/*--------------------------------*- C++ -*----------------------------------*\
  =========                 |
  \\      /  F ield         | OpenFOAM: The Open Source CFD Toolbox
   \\    /   O peration     | Website:  https://openfoam.org
    \\  /    A nd           | Version:  7
     \\/     M anipulation  |
\*---------------------------------------------------------------------------*/
FoamFile
{
    version     2.0;
    format      ascii;
    class       volScalarField;
    location    "2";
    object      p;
}
// * * * * * * * * * * * * * * * * * * * * * * * * * * * * * * * * * * * * * //

dimensions      [0 2 -2 0 0 0 0];

internalField   nonuniform List<scalar> 
12000
(
-0.368081
-0.349111
-0.33152
-0.317758
-0.306264
-0.296253
-0.287348
-0.279249
-0.271724
-0.264624
-0.257853
-0.251346
-0.245063
-0.238974
-0.233058
-0.227301
-0.221692
-0.216223
-0.210887
-0.20568
-0.200598
-0.195639
-0.190802
-0.186084
-0.181487
-0.177009
-0.172653
-0.168417
-0.164305
-0.160315
-0.156451
-0.152713
-0.149102
-0.145618
-0.142262
-0.139036
-0.135935
-0.132913
-0.129966
-0.127597
-0.31992
-0.32242
-0.315982
-0.307775
-0.299179
-0.290706
-0.282658
-0.27511
-0.268018
-0.261309
-0.254912
-0.248769
-0.242834
-0.237075
-0.231468
-0.225996
-0.220647
-0.215414
-0.21029
-0.205273
-0.20036
-0.19555
-0.190844
-0.186241
-0.181743
-0.177352
-0.173069
-0.168897
-0.164838
-0.160894
-0.157068
-0.153362
-0.149777
-0.146315
-0.142977
-0.139767
-0.13668
-0.133659
-0.130699
-0.128428
-0.306091
-0.310749
-0.309537
-0.305507
-0.299768
-0.293078
-0.286027
-0.27896
-0.272041
-0.265334
-0.258851
-0.25258
-0.246502
-0.240596
-0.234843
-0.22923
-0.223745
-0.218381
-0.21313
-0.20799
-0.202957
-0.198031
-0.193212
-0.188498
-0.183893
-0.179396
-0.175011
-0.170739
-0.166582
-0.162543
-0.158625
-0.154829
-0.151159
-0.147616
-0.144202
-0.140923
-0.137776
-0.134683
-0.131635
-0.129522
-0.294591
-0.299374
-0.30025
-0.298869
-0.295642
-0.291025
-0.285533
-0.279562
-0.273377
-0.267143
-0.260954
-0.254859
-0.248878
-0.24302
-0.237282
-0.231662
-0.226154
-0.220755
-0.215462
-0.210273
-0.205186
-0.200201
-0.195318
-0.190539
-0.185865
-0.181297
-0.176838
-0.17249
-0.168257
-0.16414
-0.160144
-0.156271
-0.152524
-0.148906
-0.14542
-0.142077
-0.138871
-0.135698
-0.132533
-0.130646
-0.28567
-0.289946
-0.291667
-0.291758
-0.29025
-0.287323
-0.283316
-0.278554
-0.273305
-0.267769
-0.262088
-0.256355
-0.250631
-0.244951
-0.239335
-0.233795
-0.228337
-0.222964
-0.21768
-0.212484
-0.207378
-0.202365
-0.197445
-0.19262
-0.187894
-0.183268
-0.178746
-0.17433
-0.170025
-0.165834
-0.16176
-0.157807
-0.15398
-0.150281
-0.146717
-0.143302
-0.140034
-0.136765
-0.133446
-0.131833
-0.27877
-0.282487
-0.284481
-0.285296
-0.284841
-0.283127
-0.28033
-0.276672
-0.272368
-0.267606
-0.26254
-0.257286
-0.251927
-0.246522
-0.241111
-0.235722
-0.230373
-0.225076
-0.21984
-0.214671
-0.209575
-0.204556
-0.199617
-0.194762
-0.189995
-0.18532
-0.180741
-0.176261
-0.171885
-0.167617
-0.163463
-0.159427
-0.155514
-0.151729
-0.14808
-0.144587
-0.14125
-0.137875
-0.134369
-0.133065
-0.272712
-0.276121
-0.278207
-0.279396
-0.279592
-0.278724
-0.276862
-0.274137
-0.270703
-0.266713
-0.262305
-0.257597
-0.252683
-0.247634
-0.242506
-0.237338
-0.23216
-0.226992
-0.221852
-0.216751
-0.211699
-0.206702
-0.201769
-0.196904
-0.192113
-0.187401
-0.182774
-0.178237
-0.173795
-0.169454
-0.16522
-0.161099
-0.157099
-0.153223
-0.149484
-0.145909
-0.1425
-0.139009
-0.135287
-0.134313
-0.266998
-0.270326
-0.272499
-0.273933
-0.274565
-0.2743
-0.273152
-0.271192
-0.268519
-0.265246
-0.261488
-0.25735
-0.252924
-0.248287
-0.2435
-0.238611
-0.233659
-0.228672
-0.223673
-0.21868
-0.213707
-0.208764
-0.203862
-0.199009
-0.194212
-0.189479
-0.184815
-0.180229
-0.175727
-0.171316
-0.167003
-0.162798
-0.158707
-0.154739
-0.150905
-0.147244
-0.14376
-0.140147
-0.136185
-0.135542
-0.261317
-0.264749
-0.267061
-0.268713
-0.269686
-0.269886
-0.269302
-0.26797
-0.265952
-0.263326
-0.260183
-0.256609
-0.252688
-0.248493
-0.244087
-0.239522
-0.234842
-0.23008
-0.225265
-0.220419
-0.21556
-0.210702
-0.205859
-0.201041
-0.196258
-0.191519
-0.186832
-0.182207
-0.177651
-0.173174
-0.168784
-0.164493
-0.16031
-0.156245
-0.152313
-0.148561
-0.145
-0.141262
-0.137034
-0.136705
-0.255434
-0.25913
-0.26165
-0.26354
-0.264828
-0.265424
-0.265312
-0.264513
-0.263065
-0.261022
-0.258449
-0.255419
-0.252001
-0.248263
-0.244264
-0.240056
-0.235684
-0.231186
-0.226592
-0.221929
-0.217218
-0.212477
-0.207721
-0.202963
-0.198215
-0.193488
-0.188792
-0.184138
-0.179536
-0.174996
-0.170531
-0.166152
-0.161873
-0.157706
-0.15367
-0.14982
-0.146178
-0.14231
-0.137795
-0.137749
-0.24919
-0.25329
-0.256086
-0.258254
-0.259863
-0.260831
-0.261143
-0.260817
-0.259878
-0.258363
-0.256321
-0.253808
-0.250884
-0.247605
-0.244026
-0.240197
-0.236162
-0.231958
-0.22762
-0.223173
-0.218644
-0.21405
-0.20941
-0.204738
-0.200049
-0.195353
-0.190664
-0.185993
-0.181352
-0.176754
-0.172213
-0.167744
-0.163363
-0.159085
-0.154934
-0.150975
-0.147242
-0.143236
-0.138408
-0.138591
-0.242487
-0.247117
-0.250248
-0.252735
-0.254688
-0.256024
-0.256739
-0.256851
-0.256379
-0.255351
-0.253806
-0.251786
-0.249341
-0.246518
-0.243366
-0.23993
-0.236252
-0.232369
-0.228314
-0.224116
-0.219798
-0.215383
-0.210889
-0.206331
-0.201725
-0.197084
-0.19242
-0.187746
-0.183076
-0.178425
-0.173807
-0.169242
-0.164748
-0.160345
-0.15606
-0.151972
-0.14813
-0.143972
-0.138799
-0.139135
-0.23529
-0.240556
-0.244067
-0.246908
-0.249227
-0.250939
-0.252048
-0.252577
-0.252545
-0.251976
-0.250899
-0.249349
-0.247367
-0.244993
-0.242268
-0.239234
-0.235929
-0.232387
-0.228641
-0.224718
-0.220643
-0.216437
-0.212119
-0.207706
-0.203212
-0.19865
-0.194034
-0.189376
-0.184691
-0.179992
-0.175298
-0.170629
-0.166008
-0.161457
-0.157011
-0.152762
-0.148777
-0.144438
-0.138874
-0.139264
-0.227626
-0.233619
-0.237534
-0.24075
-0.243449
-0.245541
-0.247038
-0.247969
-0.248357
-0.248221
-0.247588
-0.246487
-0.244952
-0.243016
-0.240716
-0.238088
-0.235165
-0.23198
-0.228563
-0.22494
-0.221135
-0.217169
-0.21306
-0.208823
-0.204474
-0.200024
-0.195485
-0.190868
-0.186187
-0.181456
-0.17669
-0.171912
-0.167146
-0.162418
-0.157768
-0.153305
-0.149122
-0.144548
-0.13852
-0.138826
-0.219606
-0.226388
-0.230702
-0.234292
-0.237369
-0.239832
-0.241704
-0.24302
-0.243805
-0.244079
-0.243866
-0.243192
-0.242085
-0.240574
-0.238691
-0.236466
-0.23393
-0.231113
-0.228041
-0.224739
-0.22123
-0.217534
-0.213666
-0.209642
-0.205475
-0.201174
-0.19675
-0.192211
-0.187566
-0.182827
-0.178006
-0.173121
-0.168198
-0.163261
-0.158353
-0.153602
-0.149131
-0.144224
-0.137607
-0.137634
-0.211437
-0.219034
-0.223688
-0.227612
-0.231027
-0.233826
-0.236042
-0.237714
-0.238866
-0.239521
-0.239701
-0.239429
-0.238729
-0.237626
-0.236149
-0.234322
-0.232174
-0.229731
-0.227016
-0.224053
-0.220863
-0.217463
-0.21387
-0.210096
-0.206153
-0.202047
-0.197786
-0.193375
-0.188817
-0.184116
-0.179278
-0.174314
-0.169239
-0.164073
-0.158854
-0.153721
-0.148829
-0.143427
-0.136006
-0.135444
-0.203529
-0.211891
-0.216778
-0.220947
-0.224601
-0.227652
-0.23015
-0.232125
-0.233596
-0.234589
-0.235124
-0.23522
-0.234899
-0.234182
-0.233092
-0.231652
-0.229885
-0.227814
-0.225462
-0.222849
-0.219994
-0.216915
-0.213625
-0.210136
-0.206458
-0.202597
-0.198556
-0.194336
-0.189933
-0.185344
-0.180563
-0.175586
-0.170411
-0.165038
-0.159485
-0.153881
-0.148406
-0.142275
-0.133686
-0.131974
-0.197019
-0.205557
-0.210608
-0.214984
-0.218737
-0.221914
-0.224593
-0.226774
-0.228473
-0.229719
-0.230535
-0.230935
-0.230935
-0.230553
-0.229807
-0.228717
-0.227302
-0.225582
-0.223577
-0.221305
-0.218783
-0.216028
-0.213053
-0.209869
-0.206485
-0.202907
-0.199135
-0.195169
-0.191001
-0.186617
-0.182002
-0.177131
-0.171977
-0.166505
-0.160684
-0.154601
-0.148435
-0.141326
-0.130977
-0.127172
-0.193473
-0.199847
-0.204018
-0.208502
-0.212169
-0.215201
-0.217941
-0.220247
-0.222099
-0.223546
-0.224607
-0.225286
-0.225593
-0.22554
-0.22514
-0.224408
-0.223358
-0.222007
-0.220371
-0.218466
-0.216308
-0.213913
-0.211293
-0.20846
-0.205423
-0.20219
-0.198762
-0.19514
-0.191316
-0.187276
-0.182995
-0.178439
-0.173554
-0.168259
-0.162448
-0.156122
-0.149382
-0.141027
-0.127742
-0.119755
-0.197039
-0.197294
-0.198255
-0.200508
-0.203289
-0.205167
-0.207814
-0.210242
-0.212285
-0.213998
-0.215384
-0.216433
-0.217143
-0.217517
-0.217563
-0.217287
-0.2167
-0.215815
-0.214645
-0.213203
-0.211503
-0.209559
-0.207386
-0.204994
-0.202397
-0.199603
-0.19662
-0.193452
-0.1901
-0.186558
-0.182811
-0.178833
-0.174573
-0.169933
-0.16477
-0.158993
-0.152415
-0.143071
-0.126394
-0.11213
-0.24283
-0.234047
-0.230163
-0.228694
-0.228327
-0.228489
-0.229055
-0.229713
-0.230348
-0.230881
-0.231247
-0.231405
-0.231331
-0.231011
-0.230439
-0.229613
-0.228533
-0.227205
-0.225634
-0.223829
-0.221799
-0.219553
-0.217103
-0.214459
-0.211631
-0.208631
-0.205467
-0.20215
-0.198688
-0.195092
-0.191369
-0.18753
-0.183582
-0.179529
-0.175386
-0.171237
-0.167108
-0.16241
-0.156448
-0.152948
-0.241624
-0.235797
-0.231829
-0.229501
-0.228151
-0.227502
-0.227329
-0.227447
-0.227706
-0.227986
-0.228201
-0.228295
-0.228225
-0.227964
-0.227493
-0.226801
-0.225882
-0.224734
-0.22336
-0.221763
-0.21995
-0.217928
-0.215707
-0.213295
-0.210703
-0.207943
-0.205026
-0.201963
-0.198768
-0.195455
-0.19204
-0.188541
-0.184983
-0.181394
-0.177826
-0.174358
-0.171061
-0.16802
-0.165753
-0.164682
-0.239493
-0.236354
-0.233652
-0.231563
-0.229988
-0.228905
-0.228237
-0.227873
-0.227698
-0.227615
-0.227546
-0.227426
-0.227209
-0.226858
-0.226344
-0.225651
-0.224765
-0.223679
-0.22239
-0.220896
-0.219202
-0.217312
-0.215231
-0.212969
-0.210534
-0.207938
-0.205191
-0.202307
-0.199301
-0.196188
-0.192988
-0.189724
-0.186423
-0.183121
-0.179866
-0.176711
-0.173718
-0.171134
-0.169472
-0.167601
-0.239287
-0.237196
-0.235177
-0.233403
-0.231875
-0.230638
-0.22969
-0.228984
-0.228458
-0.228044
-0.22768
-0.227313
-0.226894
-0.226387
-0.225762
-0.224995
-0.224069
-0.222973
-0.221699
-0.220242
-0.218603
-0.216782
-0.214785
-0.212616
-0.210283
-0.207797
-0.205167
-0.202408
-0.199532
-0.196559
-0.193506
-0.190398
-0.187262
-0.184134
-0.181053
-0.178056
-0.175194
-0.172733
-0.171042
-0.168349
-0.239003
-0.237292
-0.235617
-0.234103
-0.232708
-0.231472
-0.230419
-0.229538
-0.228797
-0.228156
-0.227573
-0.227004
-0.226411
-0.225759
-0.225019
-0.224168
-0.223186
-0.222059
-0.220777
-0.219333
-0.217724
-0.215948
-0.214007
-0.211905
-0.209649
-0.207245
-0.204705
-0.202039
-0.199261
-0.196387
-0.193435
-0.190427
-0.187387
-0.184345
-0.181334
-0.178373
-0.175503
-0.172976
-0.171071
-0.167787
-0.238728
-0.237164
-0.235667
-0.234314
-0.233026
-0.231826
-0.230738
-0.229766
-0.228894
-0.228098
-0.227351
-0.226621
-0.225878
-0.225093
-0.22424
-0.223297
-0.222245
-0.221068
-0.219756
-0.218299
-0.216692
-0.214932
-0.213019
-0.210955
-0.208745
-0.206394
-0.20391
-0.201304
-0.198588
-0.195775
-0.192882
-0.189927
-0.18693
-0.183916
-0.180908
-0.177916
-0.17497
-0.172302
-0.170138
-0.166423
-0.238464
-0.236935
-0.235507
-0.234231
-0.233002
-0.231826
-0.230724
-0.229697
-0.228739
-0.227835
-0.226965
-0.226108
-0.225239
-0.224336
-0.223377
-0.222341
-0.221211
-0.219972
-0.218612
-0.217123
-0.215496
-0.213729
-0.211819
-0.209766
-0.207574
-0.205247
-0.202791
-0.200215
-0.197529
-0.194745
-0.191875
-0.188936
-0.185944
-0.182918
-0.179875
-0.176818
-0.173768
-0.170941
-0.168528
-0.164507
-0.238142
-0.236593
-0.235173
-0.23392
-0.23271
-0.231538
-0.230417
-0.229349
-0.228328
-0.227342
-0.226377
-0.225417
-0.224444
-0.223438
-0.22238
-0.221255
-0.220045
-0.218737
-0.21732
-0.215783
-0.21412
-0.212326
-0.210397
-0.208334
-0.206137
-0.203809
-0.201356
-0.198784
-0.196101
-0.193317
-0.190443
-0.187491
-0.184476
-0.181411
-0.17831
-0.17517
-0.172009
-0.169026
-0.166387
-0.162156
-0.237732
-0.236135
-0.23469
-0.233424
-0.232203
-0.231014
-0.229866
-0.228757
-0.227679
-0.226624
-0.22558
-0.224533
-0.223468
-0.22237
-0.221222
-0.220011
-0.218721
-0.21734
-0.215857
-0.214263
-0.21255
-0.210713
-0.208749
-0.206656
-0.204433
-0.202084
-0.199611
-0.19702
-0.194317
-0.191511
-0.18861
-0.185625
-0.182566
-0.179445
-0.176272
-0.173042
-0.169771
-0.166642
-0.163801
-0.159429
-0.237219
-0.235557
-0.234065
-0.232764
-0.231511
-0.230288
-0.2291
-0.227943
-0.226809
-0.225689
-0.224572
-0.223445
-0.222297
-0.221114
-0.219881
-0.218585
-0.217215
-0.215758
-0.214203
-0.212543
-0.21077
-0.208878
-0.206864
-0.204725
-0.20246
-0.200071
-0.19756
-0.194931
-0.19219
-0.189343
-0.186397
-0.183361
-0.180244
-0.177056
-0.173804
-0.170483
-0.167107
-0.163845
-0.160823
-0.156363
-0.236595
-0.234854
-0.2333
-0.231949
-0.230648
-0.229375
-0.228136
-0.226924
-0.22573
-0.224543
-0.223354
-0.222151
-0.220923
-0.219657
-0.21834
-0.216961
-0.215509
-0.213972
-0.212341
-0.210608
-0.208765
-0.206808
-0.204731
-0.202532
-0.200211
-0.197767
-0.195202
-0.19252
-0.189725
-0.186822
-0.183818
-0.180719
-0.177534
-0.174271
-0.170936
-0.167525
-0.164051
-0.160667
-0.157483
-0.152974
-0.235853
-0.234024
-0.232398
-0.230983
-0.229621
-0.228288
-0.226987
-0.225711
-0.22445
-0.223192
-0.221929
-0.220648
-0.219339
-0.217989
-0.216588
-0.215125
-0.213588
-0.211968
-0.210255
-0.208442
-0.206522
-0.204489
-0.202339
-0.200069
-0.197679
-0.195167
-0.192536
-0.189788
-0.186926
-0.183955
-0.180881
-0.17771
-0.17445
-0.171107
-0.167688
-0.16419
-0.160624
-0.157129
-0.153801
-0.149273
-0.23499
-0.233065
-0.231357
-0.22987
-0.228435
-0.227031
-0.225659
-0.22431
-0.222974
-0.22164
-0.220297
-0.218934
-0.217541
-0.216105
-0.214617
-0.213065
-0.21144
-0.209731
-0.207931
-0.206032
-0.204026
-0.201909
-0.199677
-0.197327
-0.194857
-0.192267
-0.189558
-0.186732
-0.183793
-0.180745
-0.177593
-0.174343
-0.171002
-0.167577
-0.164074
-0.160491
-0.15684
-0.153244
-0.149786
-0.14526
-0.234003
-0.231976
-0.230179
-0.22861
-0.227095
-0.22561
-0.224157
-0.222727
-0.221308
-0.219889
-0.21846
-0.217009
-0.215526
-0.213999
-0.212419
-0.210774
-0.209055
-0.207252
-0.205358
-0.203365
-0.201267
-0.199058
-0.196735
-0.194294
-0.191735
-0.189057
-0.186261
-0.183349
-0.180325
-0.177192
-0.173955
-0.170621
-0.167196
-0.163687
-0.1601
-0.156435
-0.152705
-0.149017
-0.14544
-0.140934
-0.23289
-0.230757
-0.228867
-0.227209
-0.225604
-0.224029
-0.222485
-0.220963
-0.219452
-0.217941
-0.216417
-0.214871
-0.213291
-0.211667
-0.209987
-0.208243
-0.206423
-0.20452
-0.202525
-0.200431
-0.198233
-0.195924
-0.193502
-0.190963
-0.188307
-0.185532
-0.182641
-0.179635
-0.176518
-0.173293
-0.169966
-0.166544
-0.163032
-0.159438
-0.155769
-0.152026
-0.148221
-0.144448
-0.140763
-0.136291
-0.231652
-0.229411
-0.227424
-0.22567
-0.223966
-0.222291
-0.220646
-0.219022
-0.217408
-0.215794
-0.214166
-0.212516
-0.210831
-0.2091
-0.207314
-0.205462
-0.203534
-0.201523
-0.19942
-0.197218
-0.194911
-0.192495
-0.189966
-0.187321
-0.184559
-0.181681
-0.178687
-0.17558
-0.172364
-0.169043
-0.165622
-0.162108
-0.158508
-0.154829
-0.151079
-0.14726
-0.143386
-0.139533
-0.13575
-0.131321
-0.230294
-0.227951
-0.225867
-0.224009
-0.222196
-0.220408
-0.218649
-0.216911
-0.215183
-0.213453
-0.211711
-0.209945
-0.208145
-0.206298
-0.204396
-0.202428
-0.200384
-0.198256
-0.196036
-0.193718
-0.191295
-0.188763
-0.186119
-0.18336
-0.180486
-0.177496
-0.174393
-0.17118
-0.167859
-0.164437
-0.160918
-0.15731
-0.15362
-0.149856
-0.146026
-0.142135
-0.138195
-0.13427
-0.130395
-0.12602
-0.228833
-0.226416
-0.224243
-0.222273
-0.220338
-0.218424
-0.216537
-0.214671
-0.212815
-0.210957
-0.209088
-0.207196
-0.205269
-0.203297
-0.201268
-0.199174
-0.197004
-0.194749
-0.192403
-0.189959
-0.18741
-0.184753
-0.181985
-0.179103
-0.176108
-0.172999
-0.169779
-0.166452
-0.16302
-0.159491
-0.15587
-0.152164
-0.148381
-0.14453
-0.140621
-0.136658
-0.132654
-0.128658
-0.124697
-0.12038
-0.227196
-0.224715
-0.222441
-0.220333
-0.218246
-0.216178
-0.214138
-0.212121
-0.210117
-0.208115
-0.206103
-0.204071
-0.202005
-0.199896
-0.197732
-0.195502
-0.193198
-0.190811
-0.188332
-0.185756
-0.183077
-0.180291
-0.177396
-0.174389
-0.17127
-0.168041
-0.164704
-0.161263
-0.157723
-0.154089
-0.150369
-0.146569
-0.1427
-0.138769
-0.134787
-0.130761
-0.126704
-0.122647
-0.11861
-0.11436
-0.22581
-0.223019
-0.220465
-0.218106
-0.215788
-0.213505
-0.211266
-0.209061
-0.206879
-0.204707
-0.202532
-0.200341
-0.198122
-0.195864
-0.193553
-0.191181
-0.188737
-0.186212
-0.183599
-0.180892
-0.178084
-0.175172
-0.172153
-0.169027
-0.165792
-0.162451
-0.159007
-0.155463
-0.151825
-0.1481
-0.144294
-0.140416
-0.136475
-0.132481
-0.128443
-0.124372
-0.120279
-0.116182
-0.112092
-0.107944
-0.228299
-0.224673
-0.22171
-0.219132
-0.216646
-0.214219
-0.211846
-0.209511
-0.207195
-0.204883
-0.202558
-0.200208
-0.197819
-0.195378
-0.192876
-0.1903
-0.187642
-0.184893
-0.182046
-0.179096
-0.176039
-0.172871
-0.169592
-0.1662
-0.162699
-0.159091
-0.15538
-0.151572
-0.147674
-0.143694
-0.13964
-0.135524
-0.131353
-0.12714
-0.122895
-0.118631
-0.114359
-0.110079
-0.105785
-0.101569
-0.226705
-0.222721
-0.219452
-0.216594
-0.213845
-0.211171
-0.208566
-0.206011
-0.203484
-0.200967
-0.198445
-0.195901
-0.193324
-0.190698
-0.188014
-0.18526
-0.182427
-0.179506
-0.176491
-0.173376
-0.170157
-0.166832
-0.1634
-0.159862
-0.156219
-0.152476
-0.148637
-0.144708
-0.140698
-0.136615
-0.132469
-0.128269
-0.124026
-0.119752
-0.115458
-0.111158
-0.106864
-0.102559
-0.0982315
-0.0941501
-0.224621
-0.220483
-0.217082
-0.214048
-0.211104
-0.208232
-0.205431
-0.202681
-0.199962
-0.197256
-0.194546
-0.191817
-0.189054
-0.186246
-0.183379
-0.180443
-0.177429
-0.174327
-0.171133
-0.167839
-0.164444
-0.160945
-0.157342
-0.153636
-0.149831
-0.14593
-0.141939
-0.137867
-0.133721
-0.12951
-0.125246
-0.120939
-0.1166
-0.112242
-0.107876
-0.103518
-0.0991784
-0.0948263
-0.0904385
-0.0864391
-0.222449
-0.218103
-0.214572
-0.211369
-0.208235
-0.205168
-0.20217
-0.199221
-0.196302
-0.193395
-0.190485
-0.187555
-0.184592
-0.181582
-0.178514
-0.175376
-0.17216
-0.168859
-0.165465
-0.161974
-0.158383
-0.154692
-0.150901
-0.147012
-0.143028
-0.138957
-0.134804
-0.130577
-0.126287
-0.121944
-0.117558
-0.113143
-0.108708
-0.104268
-0.0998338
-0.095424
-0.0910478
-0.0866596
-0.0822251
-0.0783258
-0.220123
-0.21549
-0.211813
-0.208434
-0.205102
-0.201833
-0.198631
-0.195477
-0.19235
-0.189234
-0.186113
-0.182971
-0.179795
-0.176571
-0.173289
-0.169937
-0.166508
-0.162992
-0.159386
-0.155686
-0.151889
-0.147994
-0.144005
-0.139923
-0.135755
-0.131507
-0.127186
-0.122803
-0.118367
-0.11389
-0.109385
-0.104862
-0.100337
-0.0958194
-0.0913244
-0.0868703
-0.0824665
-0.0780522
-0.0735805
-0.069789
-0.217671
-0.21267
-0.20885
-0.205287
-0.201746
-0.198268
-0.194854
-0.191486
-0.188141
-0.184805
-0.181462
-0.178096
-0.174694
-0.171242
-0.167731
-0.164149
-0.16049
-0.156745
-0.152912
-0.148986
-0.144968
-0.140857
-0.136657
-0.132372
-0.128009
-0.123575
-0.11908
-0.114535
-0.10995
-0.105339
-0.100714
-0.0960878
-0.0914745
-0.0868863
-0.0823371
-0.0778465
-0.0734247
-0.0689962
-0.0644984
-0.0608201
-0.215106
-0.209651
-0.205692
-0.201939
-0.198178
-0.194479
-0.190844
-0.18725
-0.183677
-0.180108
-0.176528
-0.172922
-0.169277
-0.165581
-0.161822
-0.157993
-0.154085
-0.150094
-0.146015
-0.141847
-0.137591
-0.133248
-0.128823
-0.124323
-0.119754
-0.115127
-0.110452
-0.10574
-0.101005
-0.0962595
-0.0915172
-0.0867917
-0.0820967
-0.0774453
-0.0728504
-0.0683318
-0.0639023
-0.0594766
-0.0549693
-0.051402
-0.212316
-0.206493
-0.202355
-0.19839
-0.194399
-0.19047
-0.186602
-0.182771
-0.178955
-0.175138
-0.171306
-0.167443
-0.163536
-0.159574
-0.155548
-0.151449
-0.147272
-0.143012
-0.138667
-0.134237
-0.129725
-0.125134
-0.12047
-0.115741
-0.110957
-0.106128
-0.101267
-0.0963858
-0.0914992
-0.0866209
-0.0817652
-0.0769454
-0.072175
-0.0674691
-0.0628409
-0.0583085
-0.0538802
-0.0494781
-0.0449726
-0.0414145
-0.209319
-0.203192
-0.198836
-0.194642
-0.190416
-0.186247
-0.182135
-0.178053
-0.17398
-0.169899
-0.165795
-0.161653
-0.157462
-0.15321
-0.148891
-0.144497
-0.140025
-0.135471
-0.130836
-0.126122
-0.121333
-0.116475
-0.111555
-0.106585
-0.101574
-0.0965361
-0.0914841
-0.0864325
-0.0813955
-0.0763885
-0.0714275
-0.0665244
-0.0616909
-0.0569545
-0.052337
-0.0477663
-0.0433961
-0.039085
-0.0346237
-0.0306946
-0.206045
-0.199814
-0.195148
-0.190684
-0.186234
-0.181823
-0.177455
-0.173109
-0.168761
-0.164395
-0.159995
-0.155548
-0.151044
-0.146474
-0.14183
-0.137111
-0.132312
-0.127436
-0.122483
-0.117458
-0.112369
-0.107223
-0.102031
-0.0968048
-0.0915577
-0.0863033
-0.0810579
-0.0758388
-0.070661
-0.0655407
-0.0604982
-0.0555379
-0.0506646
-0.0459848
-0.0415929
-0.036391
-0.0322865
-0.0280442
-0.0235762
-0.0203548
-0.202664
-0.19622
-0.191386
-0.186492
-0.181852
-0.177196
-0.172575
-0.167953
-0.163312
-0.158636
-0.15391
-0.149125
-0.144271
-0.139344
-0.134338
-0.129254
-0.124093
-0.118858
-0.113554
-0.10819
-0.102774
-0.0973186
-0.0918351
-0.0863398
-0.0808499
-0.0753806
-0.0699502
-0.0645808
-0.0592723
-0.054059
-0.0489798
-0.0439328
-0.0388735
-0.03418
-0.029615
-0.0251167
-0.0208732
-0.0166416
-0.0122507
-0.00932632
-0.199124
-0.192428
-0.187254
-0.182336
-0.177412
-0.172352
-0.167506
-0.162606
-0.15764
-0.15263
-0.147544
-0.142377
-0.137127
-0.131793
-0.126375
-0.120878
-0.115309
-0.109674
-0.103982
-0.0982427
-0.0924735
-0.0866903
-0.0809059
-0.0751403
-0.0694187
-0.0637335
-0.0581395
-0.0526727
-0.0471193
-0.0416911
-0.0365686
-0.0315534
-0.0266664
-0.0219598
-0.0174167
-0.013061
-0.00890308
-0.00477319
-0.000498846
0.00218169
-0.195402
-0.188475
-0.183024
-0.177891
-0.172726
-0.167558
-0.162422
-0.157167
-0.151726
-0.146371
-0.140889
-0.135264
-0.129569
-0.123773
-0.117885
-0.111916
-0.105882
-0.0998023
-0.0936867
-0.0875449
-0.0814039
-0.075294
-0.0691856
-0.0631683
-0.057267
-0.0511835
-0.0452803
-0.039682
-0.0341703
-0.0287988
-0.0236089
-0.0185919
-0.0137596
-0.00912212
-0.00468398
-0.000463403
0.00353995
0.00751365
0.0116367
0.0140636
-0.191484
-0.184348
-0.178696
-0.173393
-0.168031
-0.162627
-0.157158
-0.151572
-0.14585
-0.140037
-0.134055
-0.127675
-0.121508
-0.115226
-0.108743
-0.102277
-0.0957234
-0.0891619
-0.0826069
-0.0760024
-0.0695138
-0.063125
-0.0563819
-0.0499833
-0.0438343
-0.0377502
-0.0318116
-0.0260542
-0.0204713
-0.015082
-0.00990334
-0.00494372
-0.000208781
0.00429868
0.00857679
0.012611
0.0164085
0.0201726
0.0240952
0.026249
-0.18732
-0.180064
-0.174318
-0.168942
-0.163448
-0.157816
-0.152012
-0.145998
-0.139767
-0.133338
-0.126733
-0.119951
-0.113136
-0.106391
-0.0986581
-0.0918026
-0.0847115
-0.07765
-0.0706226
-0.0630673
-0.0562625
-0.0494475
-0.0426799
-0.036085
-0.0296614
-0.0234078
-0.0173532
-0.0115191
-0.00591802
-0.000562091
0.00453864
0.00937828
0.0139545
0.018269
0.0223238
0.0261086
0.0296361
0.0331223
0.0367762
0.0386294
-0.182764
-0.175641
-0.170005
-0.164709
-0.159152
-0.153274
-0.147053
-0.140481
-0.133582
-0.126405
-0.119004
-0.111431
-0.10374
-0.0960028
-0.0881233
-0.0803356
-0.0725164
-0.0647468
-0.0570932
-0.0495101
-0.0421412
-0.0349126
-0.0278549
-0.0210074
-0.0143883
-0.00801273
-0.00189816
0.00394005
0.00949096
0.0147459
0.0196989
0.0243469
0.0286907
0.0327357
0.0364883
0.0399426
0.043116
0.0462312
0.0495163
0.0510295
-0.177843
-0.171432
-0.166219
-0.161176
-0.155573
-0.149322
-0.142469
-0.135082
-0.127255
-0.119092
-0.11069
-0.102133
-0.0934895
-0.0848126
-0.0761525
-0.0675512
-0.0590389
-0.050655
-0.0424379
-0.0344177
-0.0266169
-0.0190507
-0.0117389
-0.00470558
0.00203013
0.00845433
0.0145556
0.0203213
0.0257436
0.0308178
0.0355413
0.039914
0.04394
0.0476273
0.0509858
0.0540149
0.0567341
0.0593566
0.0621242
0.0632384
-0.172922
-0.168659
-0.164551
-0.159826
-0.153929
-0.146885
-0.138914
-0.130236
-0.121052
-0.111536
-0.101829
-0.0920405
-0.0822518
-0.0725224
-0.0629018
-0.0534359
-0.044167
-0.0351326
-0.0263606
-0.0178749
-0.00969779
-0.00184611
0.00566604
0.0128199
0.0195986
0.0259929
0.0320015
0.0376137
0.0428211
0.0476263
0.0520323
0.0560424
0.0596628
0.0629031
0.0657752
0.0682839
0.0704423
0.0724064
0.0743728
0.0748985
-0.163898
-0.165327
-0.163525
-0.158835
-0.151954
-0.143402
-0.133692
-0.123244
-0.112368
-0.101284
-0.0901478
-0.0790682
-0.0681247
-0.0573679
-0.0468438
-0.0366058
-0.0266982
-0.0171473
-0.00796735
0.000829177
0.00922236
0.0172001
0.0247607
0.0318884
0.0385549
0.0447564
0.05051
0.0558358
0.0607094
0.0651247
0.0690925
0.0726204
0.075712
0.0783697
0.0805961
0.0823866
0.0837073
0.0845297
0.0848724
0.0841411
-0.157246
-0.164024
-0.161957
-0.154926
-0.145308
-0.134151
-0.122122
-0.109685
-0.0971359
-0.084656
-0.0723569
-0.0603171
-0.0486435
-0.0373271
-0.0263502
-0.0157599
-0.00560627
0.00409364
0.0133396
0.0221271
0.0304241
0.0382163
0.045529
0.052378
0.0586772
0.0644146
0.0698191
0.0745992
0.0789675
0.0828572
0.0862492
0.0891562
0.0915756
0.0934881
0.0948661
0.0956669
0.0957266
0.0946259
0.0922497
0.089889
-0.25412
-0.239086
-0.225152
-0.208912
-0.191243
-0.173127
-0.154955
-0.136962
-0.119321
-0.10215
-0.0855172
-0.0694719
-0.0540532
-0.0393021
-0.0252386
-0.0118612
0.000795707
0.0126965
0.0238627
0.0343221
0.0440134
0.0529031
0.0612227
0.0687428
0.0754536
0.0811284
0.088219
0.0927147
0.0968142
0.100494
0.103615
0.10619
0.108243
0.109786
0.110843
0.111476
0.111627
0.110732
0.109146
0.114196
-0.257274
-0.228199
-0.204809
-0.183025
-0.161339
-0.140312
-0.120097
-0.100693
-0.082116
-0.0643867
-0.0475258
-0.0315282
-0.0163714
-0.00210273
0.0112645
0.0238109
0.0355494
0.0463771
0.0563825
0.0657177
0.0740187
0.0813283
0.0897101
0.0959624
0.101347
0.106196
0.110636
0.114296
0.11742
0.120081
0.122257
0.123974
0.125272
0.126195
0.126807
0.127214
0.127437
0.127166
0.127149
0.133143
-0.24495
-0.209536
-0.183025
-0.158712
-0.134986
-0.112337
-0.090849
-0.0704713
-0.0511639
-0.0329246
-0.0157967
0.00025307
0.0153239
0.029317
0.0421639
0.0544085
0.0653562
0.0753462
0.0848511
0.0945765
0.101746
0.108374
0.114532
0.119815
0.12441
0.128433
0.131854
0.134693
0.137007
0.138853
0.140266
0.14129
0.141976
0.142381
0.142577
0.142666
0.142641
0.142245
0.142281
0.147425
-0.224843
-0.185455
-0.157876
-0.131886
-0.106644
-0.0827529
-0.0602576
-0.0391402
-0.0193105
-0.000720996
0.0164804
0.0323429
0.0474274
0.0607637
0.0724172
0.0867576
0.0965012
0.105612
0.11403
0.121628
0.128195
0.134013
0.139101
0.143444
0.147102
0.150146
0.15261
0.154535
0.155977
0.156991
0.157628
0.157939
0.157977
0.157798
0.157471
0.157075
0.15658
0.15574
0.155336
0.159358
-0.198412
-0.155599
-0.127467
-0.100094
-0.0737575
-0.0490395
-0.0259409
-0.00455501
0.0155142
0.0340748
0.0508743
0.0661123
0.0833928
0.09547
0.106895
0.117728
0.127027
0.135337
0.142762
0.149225
0.154776
0.159508
0.163478
0.166726
0.169311
0.171299
0.172745
0.173703
0.17423
0.174381
0.17421
0.173767
0.173104
0.172271
0.171326
0.170331
0.169236
0.167823
0.166858
0.169779
-0.166524
-0.122079
-0.0933234
-0.0647893
-0.0379436
-0.0124173
0.0108348
0.0319793
0.0534629
0.0725933
0.0887933
0.103633
0.117386
0.12931
0.140048
0.149603
0.157929
0.165146
0.171354
0.176592
0.180924
0.184433
0.187191
0.189261
0.190711
0.191606
0.192007
0.191974
0.191564
0.190832
0.189831
0.188608
0.18721
0.185681
0.18407
0.182423
0.180683
0.178664
0.177114
0.17899
-0.130801
-0.0856932
-0.0560657
-0.0262646
0.000508699
0.0290311
0.052191
0.0734535
0.0930626
0.110653
0.12637
0.140515
0.153038
0.164002
0.17357
0.181833
0.188841
0.194705
0.199526
0.203387
0.206371
0.208561
0.210039
0.210877
0.211147
0.210917
0.210251
0.20921
0.20785
0.206224
0.204381
0.202367
0.200223
0.197984
0.195694
0.193388
0.191006
0.188397
0.186274
0.187158
-0.0913573
-0.0455627
-0.0140286
0.0173482
0.0451678
0.0709997
0.0940388
0.114988
0.133861
0.150609
0.165381
0.178332
0.18954
0.199107
0.207183
0.213896
0.219353
0.223673
0.226967
0.229336
0.230874
0.231671
0.231813
0.231379
0.230441
0.22907
0.227329
0.225278
0.22297
0.220456
0.217781
0.214985
0.212103
0.209168
0.206214
0.203269
0.200276
0.197111
0.194443
0.194393
-0.0479348
-0.000172443
0.0317622
0.0624543
0.0904587
0.115727
0.138397
0.158623
0.176473
0.192011
0.20538
0.216749
0.226274
0.234111
0.240427
0.245375
0.249092
0.251713
0.253359
0.25414
0.25416
0.253514
0.252288
0.250564
0.248414
0.245906
0.243103
0.24006
0.236828
0.233451
0.229971
0.226421
0.222834
0.219234
0.215651
0.212106
0.208544
0.204869
0.201692
0.200772
-0.000962061
0.0482032
0.0800449
0.110536
0.13835
0.163115
0.184977
0.204043
0.220429
0.234286
0.245814
0.255227
0.262737
0.268548
0.272855
0.275837
0.277652
0.278447
0.278351
0.277481
0.275944
0.273834
0.271239
0.268235
0.264895
0.261281
0.257451
0.253456
0.249341
0.245146
0.240906
0.23665
0.232404
0.228187
0.224024
0.219929
0.215851
0.211717
0.208073
0.206353
0.049382
0.0995868
0.131309
0.161607
0.188977
0.212847
0.233407
0.250805
0.265226
0.276913
0.286145
0.293204
0.298361
0.301864
0.303939
0.304785
0.304574
0.303459
0.301573
0.299031
0.295937
0.292382
0.288448
0.284208
0.279727
0.275063
0.270265
0.265379
0.260444
0.255493
0.250555
0.245654
0.240808
0.236034
0.231349
0.226762
0.222227
0.217689
0.213626
0.21118
0.103163
0.154258
0.185814
0.215694
0.242225
0.264686
0.283337
0.298432
0.310275
0.319227
0.325672
0.32997
0.332451
0.333403
0.333073
0.33167
0.329369
0.326319
0.322647
0.318461
0.313857
0.308917
0.303715
0.298314
0.292772
0.287138
0.281454
0.275759
0.270084
0.264455
0.258894
0.25342
0.248045
0.242782
0.237641
0.232627
0.227698
0.222813
0.218382
0.21529
0.160649
0.212555
0.24381
0.272903
0.297993
0.318296
0.334217
0.346202
0.354731
0.360325
0.363482
0.364645
0.364189
0.362422
0.359596
0.355912
0.351533
0.346594
0.341205
0.335462
0.329444
0.323223
0.316859
0.310406
0.303911
0.297412
0.290946
0.28454
0.278219
0.272003
0.265907
0.259942
0.254117
0.248439
0.242914
0.237541
0.232284
0.227112
0.222365
0.21871
0.222342
0.274966
0.305682
0.33333
0.356017
0.373056
0.38514
0.393015
0.397407
0.399014
0.398445
0.396197
0.392658
0.388125
0.382826
0.376934
0.370584
0.363881
0.356915
0.349758
0.342474
0.335117
0.327734
0.320367
0.313051
0.305815
0.298686
0.291684
0.284826
0.278123
0.271586
0.265221
0.259031
0.253017
0.247182
0.241521
0.236002
0.230604
0.225599
0.221466
0.289011
0.342159
0.371832
0.39684
0.415572
0.427757
0.434583
0.437217
0.436664
0.433775
0.429213
0.423467
0.416884