/*--------------------------------*- C++ -*----------------------------------*\
  =========                 |
  \\      /  F ield         | OpenFOAM: The Open Source CFD Toolbox
   \\    /   O peration     | Website:  https://openfoam.org
    \\  /    A nd           | Version:  7
     \\/     M anipulation  |
\*---------------------------------------------------------------------------*/
FoamFile
{
    version     2.0;
    format      ascii;
    class       surfaceScalarField;
    location    "2";
    object      phi;
}
// * * * * * * * * * * * * * * * * * * * * * * * * * * * * * * * * * * * * * //

dimensions      [0 3 -1 0 0 0 0];

internalField   nonuniform List<scalar> 
23750
(
1.74629e-06
-1.74629e-06
-1.24071e-12
6.24585e-06
-4.49955e-06
-2.62001e-12
1.26467e-05
-6.40088e-06
-3.51937e-12
2.05159e-05
-7.86913e-06
-4.21839e-12
2.96325e-05
-9.11664e-06
-4.78614e-12
3.98973e-05
-1.02648e-05
-5.26846e-12
5.12654e-05
-1.13681e-05
-5.68489e-12
6.37179e-05
-1.24525e-05
-6.06885e-12
7.72501e-05
-1.35323e-05
-6.42808e-12
9.18656e-05
-1.46155e-05
-6.77281e-12
0.000107573
-1.57072e-05
-7.10463e-12
0.000124384
-1.68109e-05
-7.43243e-12
0.000142313
-1.79295e-05
-7.7477e-12
0.000161378
-1.90651e-05
-8.05181e-12
0.000181598
-2.02198e-05
-8.3616e-12
0.000202993
-2.13953e-05
-8.67022e-12
0.000225586
-2.2593e-05
-8.96308e-12
0.000249401
-2.38143e-05
-9.24869e-12
0.000274461
-2.50602e-05
-9.53748e-12
0.000300792
-2.63312e-05
-9.82083e-12
0.00032842
-2.76276e-05
-1.00888e-11
0.000357369
-2.89494e-05
-1.03452e-11
0.000387665
-3.0296e-05
-1.05954e-11
0.000419331
-3.1666e-05
-1.08345e-11
0.000452389
-3.30576e-05
-1.10546e-11
0.000486857
-3.44681e-05
-1.12552e-11
0.000522751
-3.58939e-05
-1.14394e-11
0.000560081
-3.73302e-05
-1.16038e-11
0.000598852
-3.87711e-05
-1.17409e-11
0.000639061
-4.02092e-05
-1.18492e-11
0.000680697
-4.16353e-05
-1.19316e-11
0.000723735
-4.30385e-05
-1.19864e-11
0.000768141
-4.44058e-05
-1.20082e-11
0.000813863
-4.57217e-05
-1.19935e-11
0.000860831
-4.69682e-05
-1.19421e-11
0.000908956
-4.81246e-05
-1.18577e-11
0.000958122
-4.91667e-05
-1.17399e-11
0.00100819
-5.00657e-05
-1.15713e-11
0.00105898
-5.07929e-05
-1.13779e-11
-5.13142e-05
-1.11453e-11
0.0011103
3.08242e-07
-2.05453e-06
2.8494e-06
-7.04072e-06
7.4423e-06
-1.09938e-05
1.38386e-05
-1.42654e-05
2.18066e-05
-1.70847e-05
3.11732e-05
-1.96314e-05
4.1824e-05
-2.20189e-05
5.36891e-05
-2.43176e-05
6.67292e-05
-2.65723e-05
8.09251e-05
-2.88113e-05
9.62707e-05
-3.10528e-05
0.000112769
-3.33091e-05
0.000130428
-3.5589e-05
0.000149263
-3.78993e-05
0.000169288
-4.02452e-05
0.000190524
-4.26311e-05
0.000212991
-4.50607e-05
0.000236714
-4.7537e-05
0.000261716
-5.00624e-05
0.000288024
-5.26386e-05
0.000315663
-5.52664e-05
0.000344659
-5.7946e-05
0.00037504
-6.06764e-05
0.000406829
-6.34554e-05
0.000440051
-6.62794e-05
0.000474726
-6.91435e-05
0.000510873
-7.20404e-05
0.000548504
-7.4961e-05
0.000587626
-7.78936e-05
0.00062824
-8.08233e-05
0.000670337
-8.37321e-05
0.000713897
-8.65981e-05
0.000758886
-8.93949e-05
0.000805255
-9.20914e-05
0.000852938
-9.4651e-05
0.000901845
-9.70313e-05
0.000951861
-9.91829e-05
0.00100284
-0.000101047
0.00105461
-0.000102564
-0.000103674
0.00110697
3.42925e-07
-2.39746e-06
2.06609e-06
-8.76388e-06
5.45914e-06
-1.43868e-05
1.05784e-05
-1.93847e-05
1.73559e-05
-2.38621e-05
2.56831e-05
-2.79586e-05
3.54554e-05
-3.17912e-05
4.65885e-05
-3.54507e-05
5.90213e-05
-3.90052e-05
7.27141e-05
-4.25041e-05
8.76437e-05
-4.59824e-05
0.0001038
-4.94653e-05
0.000121182
-5.29714e-05
0.000139797
-5.65144e-05
0.000159657
-6.01052e-05
0.000180779
-6.37524e-05
0.000203181
-6.74629e-05
0.000226886
-7.12424e-05
0.000251919
-7.50953e-05
0.000278306
-7.90249e-05
0.000306072
-8.30332e-05
0.000335247
-8.71208e-05
0.000365858
-9.12869e-05
0.000397931
-9.55288e-05
0.000431493
-9.98416e-05
0.000466568
-0.000104218
0.000503175
-0.000108648
0.000541332
-0.000113118
0.00058105
-0.000117611
0.000622331
-0.000122104
0.000665171
-0.000126572
0.000709553
-0.00013098
0.000755448
-0.00013529
0.000802811
-0.000139454
0.000851576
-0.000143416
0.000901656
-0.000147112
0.000952938
-0.000150464
0.00100527
-0.000153383
0.00105848
-0.000155771
-0.00015755
0.00111236
3.07337e-07
-2.7048e-06
1.73109e-06
-1.01876e-05
4.52523e-06
-1.7181e-05
8.84067e-06
-2.37001e-05
1.47307e-05
-2.97522e-05
2.21809e-05
-3.54088e-05
3.11436e-05
-4.07539e-05
4.15618e-05
-4.58688e-05
5.33825e-05
-5.0826e-05
6.65634e-05
-5.56849e-05
8.10742e-05
-6.04932e-05
9.68967e-05
-6.52878e-05
0.000114023
-7.00974e-05
0.000132453
-7.49443e-05
0.000152194
-7.98463e-05
0.000173259
-8.48176e-05
0.000195665
-8.98695e-05
0.000219434
-9.50113e-05
0.000244589
-0.00010025
0.000271157
-0.000105592
0.000299164
-0.00011104
0.00032864
-0.000116597
0.000359614
-0.000122261
0.000392116
-0.000128031
0.000426174
-0.0001339
0.000461815
-0.000139859
0.000499062
-0.000145896
0.000537937
-0.000151993
0.000578454
-0.000158127
0.00062062
-0.000164271
0.000664436
-0.000170388
0.000709889
-0.000176434
0.000756955
-0.000182356
0.000805591
-0.000188091
0.000855738
-0.000193562
0.000907308
-0.000198682
0.00096019
-0.000203346
0.00101423
-0.000207427
0.00106925
-0.00021079
-0.000213344
0.00112505
3.12155e-07
-3.01695e-06
1.62769e-06
-1.15032e-05
4.13824e-06
-1.96915e-05
7.99711e-06
-2.7559e-05
1.33072e-05
-3.50623e-05
2.01168e-05
-4.22184e-05
2.84339e-05
-4.9071e-05
3.82424e-05
-5.56773e-05
4.95149e-05
-6.20985e-05
6.22228e-05
-6.83928e-05
7.63412e-05
-7.46117e-05
9.18523e-05
-8.07989e-05
0.000108746
-8.69909e-05
0.000127019
-9.32177e-05
0.000146677
-9.95038e-05
0.000167729
-0.000105869
0.00019019
-0.000112331
0.000214081
-0.000118902
0.000239424
-0.000125593
0.000266246
-0.000132414
0.000294574
-0.000139369
0.00032444
-0.000146462
0.000355873
-0.000153695
0.000388907
-0.000161064
0.000423571
-0.000168564
0.000459896
-0.000176184
0.00049791
-0.000183909
0.000537637
-0.000191719
0.000579096
-0.000199586
0.0006223
-0.000207475
0.000667254
-0.000215342
0.000713951
-0.000223131
0.000762372
-0.000230777
0.000812479
-0.000238198
0.000864217
-0.0002453
0.000917503
-0.000251968
0.000972226
-0.000258069
0.00102824
-0.000263437
0.00108534
-0.000267897
-0.000271361
0.00114336
3.32958e-07
-3.34991e-06
1.63546e-06
-1.28057e-05
4.03996e-06
-2.2096e-05
7.67545e-06
-3.11945e-05
1.26521e-05
-4.00389e-05
1.90474e-05
-4.86137e-05
2.69069e-05
-5.69306e-05
3.62506e-05
-6.5021e-05
4.70808e-05
-7.29287e-05
5.93902e-05
-8.07022e-05
7.31682e-05
-8.83897e-05
8.84053e-05
-9.6036e-05
0.000105095
-0.000103681
0.000123238
-0.00011136
0.000142837
-0.000119103
0.000163901
-0.000126934
0.000186447
-0.000134877
0.000210493
-0.000142947
0.000236061
-0.000151162
0.000263178
-0.000159531
0.000291872
-0.000168064
0.000322176
-0.000176766
0.000354121
-0.00018564
0.000387741
-0.000194684
0.000423071
-0.000203893
0.000460142
-0.000213256
0.000498988
-0.000222755
0.000539636
-0.000232368
0.000582111
-0.000242061
0.000626431
-0.000251795
0.000672606
-0.000261517
0.000720637
-0.000271161
0.000770508
-0.000280648
0.00082219
-0.00028988
0.000875631
-0.000298741
0.000930755
-0.000307092
0.000987454
-0.000314768
0.00104558
-0.000321561
0.00110494
-0.000327256
-0.000331783
0.00116536
3.52002e-07
-3.70191e-06
1.67808e-06
-1.41317e-05
4.06644e-06
-2.44844e-05
7.61741e-06
-3.47454e-05
1.24298e-05
-4.48513e-05
1.85879e-05
-5.47718e-05
2.61564e-05
-6.4499e-05
3.51796e-05
-7.40442e-05
4.56847e-05
-8.34338e-05
5.76863e-05
-9.27038e-05
7.11913e-05
-0.000101895
8.62029e-05
-0.000111048
0.000102724
-0.000120202
0.00012076
-0.000129396
0.000140318
-0.00013866
0.000161409
-0.000148026
0.000184051
-0.000157518
0.000208261
-0.000167158
0.000234063
-0.000176964
0.000261484
-0.000186952
0.000290553
-0.000197133
0.000321303
-0.000207516
0.000353767
-0.000218104
0.000387981
-0.000228898
0.000423981
-0.000239893
0.000461803
-0.000251078
0.000501484
-0.000262435
0.000543054
-0.000273938
0.000586545
-0.000285552
0.00063198
-0.00029723
0.000679376
-0.000308913
0.000728738
-0.000320524
0.000780062
-0.000331971
0.000833321
-0.00034314
0.000888474
-0.000353893
0.000945449
-0.000364067
0.00100414
-0.000373462
0.00106441
-0.000381827
0.00112606
-0.000388906
-0.000394661
0.00118894
3.69358e-07
-4.07127e-06
1.72919e-06
-1.54916e-05
4.13941e-06
-2.68946e-05
7.67687e-06
-3.82829e-05
1.24245e-05
-4.9599e-05
1.84626e-05
-6.08099e-05
2.58619e-05
-7.18983e-05
3.46802e-05
-8.28625e-05
4.49619e-05
-9.37155e-05
5.67394e-05
-0.000104481
7.00361e-05
-0.000115191
8.48693e-05
-0.000125881
0.000101253
-0.000136586
0.0001192
-0.000147343
0.000138725
-0.000158185
0.000159842
-0.000169144
0.000182571
-0.000180247
0.000206932
-0.000191519
0.00023295
-0.000202982
0.000260653
-0.000214654
0.000290069
-0.000226549
0.000321232
-0.000238679
0.000354178
-0.00025105
0.000388943
-0.000263663
0.000425564
-0.000276515
0.000464082
-0.000289596
0.000504535
-0.000302888
0.00054696
-0.000316363
0.000591391
-0.000329984
0.000637859
-0.000343698
0.000686387
-0.000357441
0.000736989
-0.000371126
0.000789668
-0.000384649
0.000844407
-0.000397879
0.00090117
-0.000410657
0.000959897
-0.000422793
0.00102049
-0.000434055
0.0010828
-0.000444143
0.00114666
-0.000452757
-0.00045991
0.00121191
3.83614e-07
-4.45488e-06
1.77403e-06
-1.6882e-05
4.21381e-06
-2.93344e-05
7.76366e-06
-4.18328e-05
1.24927e-05
-5.4328e-05
1.84734e-05
-6.67906e-05
2.57761e-05
-7.9201e-05
3.44643e-05
-9.15507e-05
4.45926e-05
-0.000103844
5.62063e-05
-0.000116095
6.9342e-05
-0.000128327
8.40296e-05
-0.000140568
0.000100294
-0.000152851
0.000118158
-0.000165207
0.000137642
-0.000177669
0.000158766
-0.000190268
0.000181554
-0.000203034
0.000206029
-0.000215993
0.000232216
-0.000229169
0.000260145
-0.000242582
0.000289845
-0.000256249
0.00032135
-0.000270184
0.000354696
-0.000284396
0.00038992
-0.000298887
0.000427062
-0.000313657
0.000466163
-0.000328697
0.000507263
-0.000343988
0.000550405
-0.000359505
0.000595627
-0.000375206
0.000642966
-0.000391037
0.000692453
-0.000406928
0.00074411
-0.000422784
0.000797949
-0.000438488
0.000853966
-0.000453895
0.000912134
-0.000468825
0.000972401
-0.000483061
0.00103468
-0.000496335
0.00109884
-0.000508297
0.00116468
-0.000518601
-0.000527326
0.00123209
3.92773e-07
-4.84766e-06
1.80127e-06
-1.82905e-05
4.2585e-06
-3.17916e-05
7.81566e-06
-4.53899e-05
1.2532e-05
-5.90444e-05
1.84731e-05
-7.27317e-05
2.57063e-05
-8.64341e-05
3.42965e-05
-0.000100141
4.43037e-05
-0.000113851
5.57814e-05
-0.000127573
6.87758e-05
-0.000141321
8.3327e-05
-0.00015512
9.94697e-05
-0.000168993
0.000117235
-0.000182971
0.00013665
-0.000197084
0.000157741
-0.00021136
0.000180536
-0.000225829
0.000205061
-0.000240518
0.000231343
-0.000255451
0.000259412
-0.000270651
0.000289299
-0.000286136
0.000321037
-0.000301922
0.000354661
-0.00031802
0.000390209
-0.000334435
0.000427721
-0.000351169
0.000467238
-0.000368214
0.000508803
-0.000385554
0.00055246
-0.000403162
0.000598254
-0.000420999
0.000646226
-0.00043901
0.000696416
-0.000457117
0.000748856
-0.000475224
0.000803569
-0.000493201
0.000860562
-0.000510889
0.000919824
-0.000528087
0.000981316
-0.000544553
0.00104496
-0.000559982
0.00111064
-0.00057397
0.00117816
-0.00058612
-0.000596593
0.00124742
3.95006e-07
-5.24266e-06
1.80159e-06
-1.96971e-05
4.24948e-06
-3.42395e-05
7.78616e-06
-4.89266e-05
1.24656e-05
-6.37238e-05
1.83486e-05
-7.86148e-05
2.55e-05
-9.35855e-05
3.39844e-05
-0.000108625
4.38644e-05
-0.000123731
5.51981e-05
-0.000138906
6.80386e-05
-0.000154162
8.24332e-05
-0.000169514
9.84242e-05
-0.000184984
0.00011605
-0.000200597
0.000135343
-0.000216378
0.000156338
-0.000232355
0.000179063
-0.000248554
0.000203548
-0.000265003
0.000229823
-0.000281726
0.000257917
-0.000298745
0.000287861
-0.000316081
0.000319688
-0.000333749
0.000353431
-0.000351763
0.000389128
-0.000370132
0.000426816
-0.000388857
0.000466536
-0.000407934
0.000508332
-0.000427349
0.000552248
-0.000447079
0.000598333
-0.000467084
0.000646634
-0.00048731
0.000697197
-0.000507681
0.000750067
-0.000528093
0.000805279
-0.000548413
0.000862856
-0.000568466
0.000922805
-0.000588036
0.000985105
-0.000606853
0.0010497
-0.000624575
0.00111647
-0.00064074
0.00118524
-0.000654896
-0.000667295
0.00125595
3.88473e-07
-5.63114e-06
1.76655e-06
-2.10751e-05
4.16639e-06
-3.66393e-05
7.63696e-06
-5.23972e-05
1.22313e-05
-6.83181e-05
1.8009e-05
-8.43925e-05
2.50335e-05
-0.00010061
3.33694e-05
-0.000116961
4.30804e-05
-0.000133442
5.42276e-05
-0.000150054
6.6868e-05
-0.000166802
8.10543e-05
-0.0001837
9.68342e-05
-0.000200764
0.000114251
-0.000218014
0.000133344
-0.000235471
0.00015415
-0.00025316
0.000176701
-0.000271106
0.00020103
-0.000289332
0.000227167
-0.000307863
0.000255142
-0.00032672
0.000284986
-0.000345924
0.000316728
-0.000365491
0.000350401
-0.000385436
0.000386037
-0.000405768
0.000423673
-0.000426492
0.000463346
-0.000447607
0.000505097
-0.000469101
0.000548972
-0.000490953
0.000595019
-0.000513131
0.000643289
-0.00053558
0.000693835
-0.000558228
0.000746714
-0.000580971
0.000801975
-0.000603674
0.000859661
-0.000626153
0.000919802
-0.000648177
0.000982402
-0.000669452
0.00104743
-0.0006896
0.00111478
-0.000708096
0.00118431
-0.000724424
-0.000738936
0.00125595
3.71236e-07
-6.00237e-06
1.68793e-06
-2.23918e-05
3.9906e-06
-3.8942e-05
7.33471e-06
-5.57413e-05
1.17769e-05
-7.27604e-05
1.73787e-05
-8.99943e-05
2.42045e-05
-0.000107436
3.23196e-05
-0.000125076
4.17889e-05
-0.000142911
5.26752e-05
-0.00016094
6.50382e-05
-0.000179165
7.89335e-05
-0.000197596
9.44128e-05
-0.000216243
0.000111523
-0.000235124
0.000130308
-0.000254255
0.000150805
-0.000273658
0.000173052
-0.000293353
0.000197082
-0.000313362
0.000222925
-0.000333707
0.000250612
-0.000354407
0.00028017
-0.000375482
0.000311628
-0.000396949
0.000345013
-0.000418821
0.000380355
-0.00044111
0.000417684
-0.000463821
0.000457033
-0.000486956
0.000498438
-0.000510506
0.000541941
-0.000534456
0.000587587
-0.000558777
0.00063543
-0.000583422
0.000685526
-0.000608325
0.000737942
-0.000633387
0.000792743
-0.000658475
0.000849995
-0.000683406
0.000909757
-0.000707938
0.000972066
-0.000731762
0.00103693
-0.000754461
0.00110428
-0.000775447
0.00117398
-0.000794127
-0.000810954
0.001246
3.41119e-07
-6.34349e-06
1.55727e-06
-2.3608e-05
3.70402e-06
-4.10888e-05
6.84876e-06
-5.8886e-05
1.10562e-05
-7.69678e-05
1.63931e-05
-9.53312e-05
2.29272e-05
-0.00011397
3.07257e-05
-0.000132875
3.98548e-05
-0.000152041
5.03788e-05
-0.000171464
6.23588e-05
-0.000191145
7.58525e-05
-0.00021109
9.09136e-05
-0.000231305
0.000107592
-0.000251802
0.000125932
-0.000272596
0.000145977
-0.000293702
0.000167762
-0.000315139
0.000191323
-0.000336923
0.000216691
-0.000359074
0.000243894
-0.00038161
0.000272959
-0.000404546
0.000303909
-0.000427899
0.00033677
-0.000451682
0.000371563
-0.000475904
0.000408314
-0.000500572
0.000447047
-0.000525689
0.000487791
-0.00055125
0.00053058
-0.000577245
0.000575452
-0.000603649
0.000622456
-0.000630427
0.000671651
-0.000657519
0.000723106
-0.000684841
0.000776902
-0.000712271
0.000833129
-0.000739633
0.000891879
-0.000766689
0.000953237
-0.00079312
0.00101726
-0.000818485
0.00108394
-0.000842126
0.00115318
-0.000863365
-0.000882744
0.00122497
2.95237e-07
-6.63873e-06
1.36498e-06
-2.46777e-05
3.28812e-06
-4.30119e-05
6.14986e-06
-6.17478e-05
1.00277e-05
-8.08456e-05
1.4997e-05
-0.000100301
2.11306e-05
-0.000120103
2.84987e-05
-0.000140243
3.71695e-05
-0.000160711
4.72081e-05
-0.000181502
5.86767e-05
-0.000202614
7.16339e-05
-0.000224047
8.61346e-05
-0.000245805
0.00010223
-0.000267897
0.000119966
-0.000290332
0.000139386
-0.000313122
0.000160527
-0.00033628
0.000183426
-0.000359822
0.000208112
-0.000383761
0.000234614
-0.000408111
0.000262954
-0.000432887
0.000293156
-0.000458101
0.000325237
-0.000483763
0.000359215
-0.000509882
0.000395106
-0.000536463
0.000432927
-0.00056351
0.000472695
-0.000591019
0.000514432
-0.000618982
0.000558167
-0.000647384
0.000603935
-0.000676195
0.000651788
-0.000705372
0.000701792
-0.000734846
0.000754037
-0.000764515
0.000808631
-0.000794226
0.000865703
-0.000823761
0.000925394
-0.000852811
0.000987835
-0.000880926
0.0010531
-0.000907391
0.00112116
-0.000931427
-0.000953649
0.00119207
2.29442e-07
-6.86817e-06
1.0995e-06
-2.55478e-05
2.72342e-06
-4.46358e-05
5.21042e-06
-6.42348e-05
8.65585e-06
-8.4291e-05
1.31466e-05
-0.000104791
1.87613e-05
-0.000125718
2.55739e-05
-0.000147056
3.36543e-05
-0.000168792
4.3069e-05
-0.000190917
5.38802e-05
-0.000213425
6.6147e-05
-0.000236314
7.99245e-05
-0.000259583
9.5264e-05
-0.000283237
0.000112213
-0.000307281
0.000130814
-0.000331723
0.000151107
-0.000356573
0.000173126
-0.000381841
0.000196901
-0.000407536
0.000222461
-0.000433671
0.000249826
-0.000460253
0.000279017
-0.000487291
0.000310048
-0.000514794
0.00034293
-0.000542765
0.000377674
-0.000571207
0.000414286
-0.000600122
0.000452773
-0.000629505
0.000493141
-0.000659351
0.000535403
-0.000689646
0.000579578
-0.00072037
0.000625699
-0.000751492
0.000673817
-0.000782964
0.000724013
-0.000814711
0.000776402
-0.000846615
0.000831141
-0.000878499
0.000888426
-0.000910096
0.000948483
-0.000940982
0.00101151
-0.000970417
0.00107761
-0.000997526
-0.00102297
0.00114693
1.31862e-07
-7.00003e-06
7.40648e-07
-2.61566e-05
1.98187e-06
-4.5877e-05
3.99623e-06
-6.62491e-05
6.90286e-06
-8.71977e-05
1.08014e-05
-0.00010869
1.57756e-05
-0.000130692
2.19024e-05
-0.000153182
2.92537e-05
-0.000176143
3.78963e-05
-0.00019956
4.78926e-05
-0.000223421
5.93013e-05
-0.000247722
7.21772e-05
-0.000272459
8.65716e-05
-0.000297631
0.000102532
-0.000323241
0.000120101
-0.000349292
0.000139319
-0.000375791
0.00016022
-0.000402742
0.000182835
-0.000430151
0.00020719
-0.000458026
0.000233308
-0.000486371
0.000261207
-0.00051519
0.000290898
-0.000544485
0.000322392
-0.000574258
0.000355691
-0.000604506
0.000390796
-0.000635227
0.000427704
-0.000666413
0.000466408
-0.000698056
0.000506905
-0.000730142
0.00054919
-0.000762655
0.00059327
-0.000795572
0.000639168
-0.000828862
0.000686934
-0.000862478
0.000736664
-0.000896345
0.000788509
-0.000930345
0.000842704
-0.000964291
0.000899565
-0.000997844
0.000959454
-0.00103031
0.00102268
-0.00106075
-0.00108989
0.00108961
-1.51157e-08
-6.98492e-06
2.41392e-07
-2.64131e-05
1.0141e-06
-4.66497e-05
2.45781e-06
-6.76928e-05
4.72127e-06
-8.94611e-05
7.91754e-06
-0.000111886
1.21333e-05
-0.000134908
1.74461e-05
-0.000158495
2.39288e-05
-0.000182626
3.16484e-05
-0.000207279
4.06667e-05
-0.00023244
5.10417e-05
-0.000258097
6.28278e-05
-0.000284245
7.60756e-05
-0.000310879
9.08324e-05
-0.000337998
0.000107141
-0.000365601
0.000125042
-0.000393691
0.000144569
-0.000422269
0.000165754
-0.000451337
0.000188625
-0.000480896
0.000213203
-0.000510949
0.000239506
-0.000541493
0.000267548
-0.000572527
0.000297337
-0.000604047
0.000328876
-0.000636045
0.000362163
-0.000668514
0.000397191
-0.000701441
0.000433946
-0.000734811
0.000472411
-0.000768607
0.000512566
-0.00080281
0.00055439
-0.000837396
0.000597869
-0.000872342
0.000643008
-0.000907617
0.000689845
-0.000943181
0.000738479
-0.000978979
0.000789114
-0.00101493
0.000842098
-0.00105083
0.000897928
-0.00108614
0.000957213
-0.00112004
-0.00115351
0.00102083
-1.95922e-07
-6.78899e-06
-3.5975e-07
-2.62493e-05
-1.48063e-07
-4.68614e-05
6.72877e-07
-6.85138e-05
2.22713e-06
-9.10154e-05
4.64885e-06
-0.000114308
8.0114e-06
-0.000138271
1.23943e-05
-0.000162878
1.7875e-05
-0.000188107
2.45214e-05
-0.000213926
3.23955e-05
-0.000240314
4.15552e-05
-0.000267257
5.20546e-05
-0.000294744
6.3944e-05
-0.000322768
7.72703e-05
-0.000351324
9.20766e-05
-0.000380408
0.000108403
-0.000410017
0.000126284
-0.00044015
0.000145752
-0.000470805
0.000166835
-0.00050198
0.000189557
-0.000533671
0.000213938
-0.000565874
0.000239993
-0.000598582
0.000267733
-0.000631786
0.000297164
-0.000665477
0.000328288
-0.000699638
0.0003611
-0.000734253
0.000395591
-0.000769301
0.000431743
-0.00080476
0.000469534
-0.000840601
0.000508933
-0.000876795
0.000549903
-0.000913312
0.000592407
-0.000950121
0.000636416
-0.00098719
0.000681931
-0.00102449
0.000729031
-0.00106203
0.000777936
-0.00109973
0.000829106
-0.00113731
0.000883438
-0.00117437
-0.00121306
0.000942993
-4.22886e-07
-6.36611e-06
-1.06344e-06
-2.56087e-05
-1.36449e-06
-4.65604e-05
-1.18521e-06
-6.8693e-05
-3.65091e-07
-9.18355e-05
1.15692e-06
-0.00011583
3.53112e-06
-0.000140645
6.84967e-06
-0.000166197
1.11823e-05
-0.000192439
1.65947e-05
-0.000219338
2.3149e-05
-0.000246868
3.09027e-05
-0.000275011
3.99094e-05
-0.000303751
5.02192e-05
-0.000333078
6.18786e-05
-0.000362983
7.49305e-05
-0.00039346
8.94143e-05
-0.000424501
0.000105366
-0.000456102
0.000122818
-0.000488257
0.000141798
-0.00052096
0.000162333
-0.000554206
0.000184444
-0.000587985
0.00020815
-0.000622288
0.000233466
-0.000657102
0.000260403
-0.000692414
0.00028897
-0.000728205
0.000319173
-0.000764456
0.000351014
-0.000801142
0.000384491
-0.000838237
0.0004196
-0.000875709
0.000456328
-0.000913523
0.00049466
-0.000951644
0.000534571
-0.000990032
0.000576028
-0.00102865
0.00061899
-0.00106746
0.000663429
-0.00110646
0.000709364
-0.00114567
0.000756946
-0.00118489
0.000806657
-0.00122408
-0.00126557
0.00085917
1.89195e-06
-8.25806e-06
5.02155e-06
-2.87383e-05
8.92162e-06
-5.04604e-05
1.35256e-05
-7.3297e-05
1.88566e-05
-9.71665e-05
2.50062e-05
-0.000121979
3.20235e-05
-0.000147662
3.99838e-05
-0.000174157
4.89594e-05
-0.000201415
5.9018e-05
-0.000229397
7.02224e-05
-0.000258072
8.26308e-05
-0.000287419
9.62969e-05
-0.000317417
0.000111271
-0.000348052
0.000127598
-0.00037931
0.000145321
-0.000411182
0.000164477
-0.000443658
0.000185103
-0.000476728
0.000207229
-0.000510383
0.000230883
-0.000544614
0.000256089
-0.000579411
0.000282867
-0.000614763
0.000311236
-0.000650657
0.000341211
-0.000687077
0.000372804
-0.000724007
0.000406026
-0.000761427
0.000440888
-0.000799318
0.000477398
-0.000837653
0.00051557
-0.000876409
0.000555418
-0.000915557
0.000596964
-0.000955069
0.000640241
-0.000994921
0.000685299
-0.00103509
0.00073222
-0.00107557
0.000781134
-0.00111637
0.000832241
-0.00115757
0.000885884
-0.00119931
0.000942847
-0.00124185
0.0010048
-0.00128604
-0.00133447
0.0010737
1.01367e-06
-9.27173e-06
3.59564e-06
-3.13203e-05
7.35014e-06
-5.42149e-05
1.20893e-05
-7.80362e-05
1.77353e-05
-0.000102813
2.42769e-05
-0.000128521
3.17388e-05
-0.000155124
4.01625e-05
-0.000182581
4.95994e-05
-0.000210852
6.01046e-05
-0.000239902
7.17329e-05
-0.000269701
8.45377e-05
-0.000300224
9.85692e-05
-0.000331449
0.000113875
-0.000363357
0.000130498
-0.000395934
0.000148479
-0.000429164
0.000167856
-0.000463034
0.000188661
-0.000497533
0.000210924
-0.000532646
0.000234673
-0.000568363
0.000259929
-0.000604668
0.000286714
-0.000641548
0.000315045
-0.000678987
0.000344936
-0.000716968
0.000376402
-0.000755472
0.000409453
-0.000794479
0.000444103
-0.000833967
0.000480363
-0.000873913
0.000518249
-0.000914295
0.000557782
-0.00095509
0.00059899
-0.000996278
0.000641914
-0.00103784
0.000686613
-0.00107979
0.000733169
-0.00112212
0.000781695
-0.0011649
0.000832334
-0.00120821
0.00088526
-0.00125224
0.000940703
-0.00129729
0.000998674
-0.00134401
-0.00139332
0.00105752
7.77841e-07
-1.00496e-05
2.96428e-06
-3.35067e-05
6.42963e-06
-5.76803e-05
1.1047e-05
-8.26536e-05
1.67269e-05
-0.000108492
2.34235e-05
-0.000135218
3.11244e-05
-0.000162825
3.98404e-05
-0.000191297
4.95983e-05
-0.000220609
6.0434e-05
-0.000250737
7.23886e-05
-0.000281655
8.55048e-05
-0.00031334
9.98254e-05
-0.000345769
0.000115392
-0.000378924
0.000132243
-0.000412785
0.000150416
-0.000447336
0.000169943
-0.000482562
0.000190856
-0.000518445
0.000213181
-0.000554972
0.000236943
-0.000592124
0.000262162
-0.000629887
0.000288855
-0.000668242
0.000317038
-0.00070717
0.000346723
-0.000746653
0.00037792
-0.000786669
0.000410638
-0.000827197
0.000444885
-0.000868214
0.000480668
-0.000909696
0.000517996
-0.000951623
0.000556881
-0.000993974
0.000597336
-0.00103673
0.00063938
-0.00107989
0.000683037
-0.00112345
0.000728333
-0.00116742
0.000775293
-0.00121186
0.000823921
-0.00125684
0.000874182
-0.0013025
0.000925949
-0.00134906
0.000978794
-0.00139685
-0.001446
0.00103148
7.28924e-07
-1.07785e-05
2.72868e-06
-3.55065e-05
5.97826e-06
-6.09299e-05
1.0427e-05
-8.71023e-05
1.60192e-05
-0.000114085
2.27135e-05
-0.000141912
3.04869e-05
-0.000170598
3.93337e-05
-0.000200144
4.92626e-05
-0.000230538
6.0293e-05
-0.000261768
7.24512e-05
-0.000293814
8.5768e-05
-0.000326657
0.000100276
-0.000360277
0.000116008
-0.000394656
0.000132997
-0.000429774
0.000151274
-0.000465613
0.000170866
-0.000502154
0.000191799
-0.000539379
0.000214097
-0.000577269
0.000237779
-0.000615806
0.000262861
-0.000654969
0.000289357
-0.000694738
0.000317278
-0.000735091
0.00034663
-0.000776005
0.000377418
-0.000817458
0.000409646
-0.000859424
0.000443312
-0.00090188
0.000478416
-0.0009448
0.000514954
-0.000988161
0.000552921
-0.00103194
0.000592311
-0.00107612
0.000633114
-0.00112069
0.000675315
-0.00116565
0.000718888
-0.00121099
0.000763787
-0.00125676
0.00080993
-0.00130298
0.000857179
-0.00134975
0.000905294
-0.00139718
0.000953845
-0.0014454
-0.00149425
0.00100209
7.04635e-07
-1.14831e-05
2.60397e-06
-3.74058e-05
5.7095e-06
-6.40354e-05
1.00094e-05
-9.14022e-05
1.54792e-05
-0.000119554
2.20939e-05
-0.000148527
2.98352e-05
-0.000178339
3.86935e-05
-0.000209002
4.86692e-05
-0.000240514
5.97708e-05
-0.000272869
7.20136e-05
-0.000306056
8.54175e-05
-0.000340061
0.000100005
-0.000374865
0.000115801
-0.000410452
0.00013283
-0.000446803
0.000151115
-0.000483898
0.000170678
-0.000521717
0.000191539
-0.00056024
0.000213716
-0.000599446
0.000237222
-0.000639312
0.000262069
-0.000679816
0.000288264
-0.000720933
0.000315812
-0.000762639
0.000344715
-0.000804908
0.000374969
-0.000847712
0.00040657
-0.000891025
0.000439508
-0.000934818
0.000473771
-0.000979063
0.000509343
-0.00102373
0.000546203
-0.0010688
0.000584325
-0.00111424
0.000623675
-0.00116004
0.00066421
-0.00120618
0.000705869
-0.00125265
0.000748569
-0.00129946
0.000792193
-0.00134661
0.000836576
-0.00139413
0.000881479
-0.00144208
0.00092656
-0.00149048
-0.00153905
0.000971355
6.91212e-07
-1.21743e-05
2.52893e-06
-3.92435e-05
5.53287e-06
-6.70393e-05
9.70888e-06
-9.55782e-05
1.5052e-05
-0.000124898
2.15524e-05
-0.000155027
2.92002e-05
-0.000185987
3.7989e-05
-0.000217791
4.7917e-05
-0.000250442
5.89878e-05
-0.00028394
7.12097e-05
-0.000318278
8.45947e-05
-0.000353446
9.91575e-05
-0.000389428
0.000114914
-0.000426209
0.000131882
-0.00046377
0.000150077
-0.000502092
0.000169514
-0.000541154
0.000190206
-0.000580933
0.000212165
-0.000621405
0.000235399
-0.000662545
0.000259911
-0.000704328
0.000285705
-0.000746727
0.000312777
-0.000789711
0.000341122
-0.000833253
0.000370731
-0.000877321
0.000401589
-0.000921883
0.000433679
-0.000966908
0.000466978
-0.00101236
0.000501457
-0.00105821
0.000537084
-0.00110443
0.000573817
-0.00115098
0.000611605
-0.00119783
0.000650388
-0.00124496
0.000690088
-0.00129235
0.000730607
-0.00133998
0.000771821
-0.00138782
0.000813569
-0.00143588
0.000855647
-0.00148416
0.000897791
-0.00153263
-0.00158095
0.000939696
6.81136e-07
-1.28555e-05
2.47296e-06
-4.10354e-05
5.39623e-06
-6.99626e-05
9.46427e-06
-9.96462e-05
1.46827e-05
-0.000130116
2.10519e-05
-0.000161396
2.85701e-05
-0.000193505
3.72353e-05
-0.000226456
4.7047e-05
-0.000260254
5.80075e-05
-0.000294901
7.01212e-05
-0.000330392
8.33951e-05
-0.000366719
9.7838e-05
-0.000403871
0.00011346
-0.00044183
0.00013027
-0.000480581
0.000148278
-0.000520101
0.000167494
-0.000560369
0.000187922
-0.000601361
0.000209568
-0.000643051
0.000232434
-0.000685411
0.000256517
-0.000728411
0.000281812
-0.000772022
0.000308312
-0.000816211
0.000336003
-0.000860944
0.000364867
-0.000906186
0.000394884
-0.000951901
0.000426028
-0.000998051
0.000458266
-0.0010446
0.000491561
-0.00109151
0.000525871
-0.00113874
0.000561143
-0.00118625
0.000597317
-0.00123401
0.000634323
-0.00128197
0.000672077
-0.00133011
0.000710478
-0.00137838
0.000749407
-0.00142675
0.000788721
-0.00147519
0.000828246
-0.00152368
0.000867779
-0.00157216
-0.00162028
0.000907111
6.69931e-07
-1.35254e-05
2.42003e-06
-4.27854e-05
5.27026e-06
-7.28128e-05
9.23665e-06
-0.000103613
1.43301e-05
-0.000135209
2.05571e-05
-0.000167623
2.79215e-05
-0.00020087
3.64254e-05
-0.00023496
4.60706e-05
-0.000269899
5.68593e-05
-0.000305689
6.87947e-05
-0.000342327
8.18806e-05
-0.000379805
9.61215e-05
-0.000418112
0.000111522
-0.000457231
0.000128087
-0.000497146
0.00014582
-0.000537834
0.000164724
-0.000579273
0.000184798
-0.000621435
0.000206041
-0.000664294
0.000228448
-0.000707818
0.000252011
-0.000751975
0.000276719
-0.00079673
0.000302557
-0.000842048
0.000329504
-0.000887891
0.000357537
-0.000934219
0.000386628
-0.000980992
0.000416743
-0.00102817
0.000447844
-0.0010757
0.000479886
-0.00112355
0.000512818
-0.00117167
0.000546583
-0.00122001
0.000581115
-0.00126854
0.00061634
-0.00131719
0.000652173
-0.00136594
0.000688516
-0.00141472
0.00072526
-0.00146349
0.000762278
-0.00151221
0.000799426
-0.00156083
0.000836541
-0.00160928
-0.00165722
0.000873476
6.56388e-07
-1.41818e-05
2.36373e-06
-4.44928e-05
5.14096e-06
-7.55901e-05
9.0049e-06
-0.000107477
1.39689e-05
-0.000140173
2.00429e-05
-0.000173697
2.72341e-05
-0.000208061
3.55478e-05
-0.000243273
4.49876e-05
-0.000279339
5.55565e-05
-0.000316258
6.72569e-05
-0.000354028
8.00909e-05
-0.000392639
9.40602e-05
-0.000432081
0.000109166
-0.000472337
0.000125408
-0.000513388
0.000142785
-0.000555211
0.000161295
-0.000597782
0.000180931
-0.000641072
0.000201687
-0.00068505
0.000223552
-0.000729683
0.000246512
-0.000774934
0.000270549
-0.000820767
0.000295642
-0.000867141
0.000321765
-0.000914014
0.000348889
-0.000961343
0.000376978
-0.00100908
0.000405995
-0.00105718
0.000435893
-0.0011056
0.000466623
-0.00115428
0.00049813
-0.00120318
0.000530353
-0.00125224
0.000563222
-0.00130141
0.000596663
-0.00135064
0.000630593
-0.00139987
0.000664919
-0.00144905
0.000699542
-0.00149812
0.000734351
-0.00154702
0.000769223
-0.0015957
0.000804029
-0.00164408
-0.00169185
0.000838658
6.40033e-07
-1.48218e-05
2.30109e-06
-4.61538e-05
5.00125e-06
-7.82902e-05
8.75744e-06
-0.000111233
1.35841e-05
-0.000145
1.94929e-05
-0.000179606
2.64931e-05
-0.000215061
3.45918e-05