/*--------------------------------*- C++ -*----------------------------------*\
  =========                 |
  \\      /  F ield         | OpenFOAM: The Open Source CFD Toolbox
   \\    /   O peration     | Website:  https://openfoam.org
    \\  /    A nd           | Version:  7
     \\/     M anipulation  |
\*---------------------------------------------------------------------------*/
FoamFile
{
    version     2.0;
    format      ascii;
    class       volVectorField;
    location    "2";
    object      U;
}
// * * * * * * * * * * * * * * * * * * * * * * * * * * * * * * * * * * * * * //

dimensions      [0 1 -1 0 0 0 0];

internalField   nonuniform List<vector> 
12000
(
(0.00159619 -0.00142605 -1.13226e-21)
(0.00710934 -0.00327215 -8.46803e-21)
(0.0137545 -0.00394819 -3.51089e-21)
(0.0212093 -0.00425075 -4.63732e-21)
(0.0291896 -0.00446938 1.89846e-21)
(0.0375529 -0.00467026 -5.7355e-21)
(0.0462094 -0.00486661 8.52106e-21)
(0.0550906 -0.00506088 9.3957e-21)
(0.0641454 -0.00525172 -1.1965e-20)
(0.0733359 -0.00543698 6.95618e-21)
(0.0826332 -0.00561522 -1.1942e-21)
(0.0920151 -0.00578584 -7.81479e-21)
(0.101464 -0.00594876 -7.09165e-21)
(0.110965 -0.00610422 4.55e-21)
(0.120508 -0.0062526 1.47748e-20)
(0.130083 -0.00639433 -7.0425e-21)
(0.139682 -0.0065298 -3.32976e-22)
(0.1493 -0.00665935 5.58569e-21)
(0.15893 -0.0067832 -1.26065e-20)
(0.16857 -0.00690148 7.73934e-21)
(0.178213 -0.0070142 -3.24953e-21)
(0.187856 -0.00712121 -2.85172e-21)
(0.197495 -0.00722222 8.97642e-21)
(0.207124 -0.00731675 1.44142e-21)
(0.216739 -0.00740415 -6.71606e-21)
(0.226333 -0.00748357 -3.5313e-21)
(0.2359 -0.0075539 8.96374e-22)
(0.245429 -0.0076138 6.95286e-21)
(0.254912 -0.00766168 -1.55854e-21)
(0.264335 -0.00769561 1.34345e-21)
(0.273684 -0.00771337 -1.18029e-21)
(0.282943 -0.00771236 4.04536e-21)
(0.29209 -0.00768965 -7.58295e-21)
(0.301103 -0.00764186 3.11011e-21)
(0.309955 -0.00756525 -2.26521e-21)
(0.318614 -0.00745577 5.08877e-21)
(0.327044 -0.00730912 -4.22504e-21)
(0.335212 -0.00711917 4.62753e-21)
(0.34309 -0.00687628 -3.93431e-21)
(0.350552 -0.0065816 1.05388e-21)
(0.0023294 -0.00239614 3.6639e-21)
(0.00915245 -0.00669821 -1.35144e-20)
(0.016102 -0.00953419 -7.28756e-22)
(0.0235619 -0.0113853 -8.24774e-21)
(0.0314915 -0.0126949 1.64817e-20)
(0.0398161 -0.0136976 -7.59186e-21)
(0.048463 -0.014516 1.02045e-21)
(0.0573641 -0.0152184 -1.15024e-21)
(0.0664624 -0.0158429 -2.83948e-21)
(0.0757134 -0.0164104 4.91898e-21)
(0.0850832 -0.0169335 9.53246e-21)
(0.0945455 -0.01742 -3.01995e-21)
(0.10408 -0.0178756 -9.00439e-21)
(0.113672 -0.0183045 -1.65371e-21)
(0.123309 -0.01871 -4.72478e-21)
(0.132981 -0.0190951 3.40782e-21)
(0.142681 -0.0194617 1.14598e-20)
(0.152402 -0.0198116 -5.6956e-21)
(0.162138 -0.0201462 2.38369e-21)
(0.171885 -0.0204661 -9.46794e-22)
(0.181639 -0.0207716 5.52858e-21)
(0.191396 -0.0210626 -1.17369e-20)
(0.20115 -0.0213382 1.18512e-21)
(0.210897 -0.0215973 6.55992e-21)
(0.220632 -0.0218379 -8.59466e-21)
(0.230348 -0.0220575 1.14669e-20)
(0.240038 -0.0222528 -9.90014e-21)
(0.249693 -0.0224199 7.90239e-21)
(0.259301 -0.0225539 -2.43758e-21)
(0.268851 -0.0226491 1.16535e-21)
(0.278326 -0.0226987 3.54608e-21)
(0.28771 -0.0226949 -3.68908e-22)
(0.296981 -0.0226287 -5.45865e-21)
(0.306114 -0.0224901 -2.48688e-21)
(0.315082 -0.0222675 6.51048e-21)
(0.323852 -0.0219486 4.65933e-22)
(0.332384 -0.02152 -3.30838e-21)
(0.340647 -0.0209649 2.38476e-21)
(0.348612 -0.0202604 -4.6412e-22)
(0.356133 -0.0194054 -1.47828e-21)
(0.00287661 -0.00225334 1.80033e-20)
(0.0111127 -0.00770184 -1.43312e-20)
(0.0190356 -0.012093 9.5059e-22)
(0.027047 -0.0154715 1.53348e-21)
(0.035285 -0.018091 6.60015e-21)
(0.0437956 -0.0201657 -1.32318e-20)
(0.0525766 -0.0218545 1.69337e-20)
(0.0615987 -0.023272 -6.04697e-21)
(0.070823 -0.0244967 -5.55109e-21)
(0.080212 -0.0255807 -7.83199e-21)
(0.0897327 -0.0265585 -3.41957e-21)
(0.0993581 -0.0274534 1.79597e-20)
(0.109066 -0.0282815 -1.3317e-20)
(0.118841 -0.0290541 -3.97604e-21)
(0.128667 -0.02978 2.11528e-20)
(0.138535 -0.0304656 -1.08774e-20)
(0.148437 -0.0311159 8.90573e-21)
(0.158366 -0.0317347 -6.81853e-21)
(0.168315 -0.0323248 1.04548e-20)
(0.17828 -0.0328881 -1.26768e-20)
(0.188256 -0.0334256 2.1956e-21)
(0.19824 -0.0339374 -1.88101e-21)
(0.208225 -0.0344226 3.94434e-21)
(0.218208 -0.0348794 2.5399e-21)
(0.228182 -0.0353051 -4.98184e-21)
(0.23814 -0.0356957 -2.83656e-22)
(0.248075 -0.0360462 9.67054e-22)
(0.257976 -0.03635 3.15405e-21)
(0.267833 -0.0365995 -4.61759e-21)
(0.277631 -0.0367852 -8.51366e-22)
(0.287355 -0.0368961 1.82128e-21)
(0.296984 -0.0369194 -1.02044e-21)
(0.306496 -0.0368401 8.01645e-22)
(0.315866 -0.0366413 1.82777e-21)
(0.325062 -0.0363039 -1.78149e-21)
(0.334047 -0.0358067 3.88226e-21)
(0.342781 -0.0351268 -2.20113e-21)
(0.351228 -0.0342354 2.00144e-21)
(0.359365 -0.033092 3.10292e-21)
(0.367004 -0.0316916 -2.09156e-21)
(0.00338602 -0.00236202 2.17682e-21)
(0.0130042 -0.00848638 -1.74412e-20)
(0.0221479 -0.0138847 -3.1648e-21)
(0.0311064 -0.0184245 1.45956e-20)
(0.0400428 -0.0221972 -8.67161e-21)
(0.0490657 -0.0253284 6.50799e-21)
(0.0582353 -0.0279445 -2.19015e-21)
(0.0675724 -0.0301595 3.87978e-21)
(0.0770734 -0.0320667 -5.9669e-21)
(0.0867228 -0.0337379 -4.14209e-21)
(0.0965004 -0.0352266 -1.17786e-20)
(0.106386 -0.0365721 1.02579e-20)
(0.116361 -0.0378032 1.45286e-20)
(0.126409 -0.0389411 -1.4751e-20)
(0.136518 -0.0400019 1.76339e-20)
(0.146677 -0.0409974 -2.0651e-20)
(0.156876 -0.0419368 1.8629e-20)
(0.167109 -0.0428272 -1.64822e-22)
(0.177371 -0.0436735 -1.71633e-20)
(0.187654 -0.0444793 2.70987e-21)
(0.197956 -0.0452468 1.97963e-21)
(0.20827 -0.0459768 -3.64065e-21)
(0.218592 -0.0466686 4.98172e-21)
(0.228917 -0.0473203 3.08463e-21)
(0.239238 -0.0479284 -4.27276e-21)
(0.249547 -0.0484878 3.41266e-21)
(0.259836 -0.0489919 -6.08598e-22)
(0.270095 -0.049432 -3.49673e-21)
(0.28031 -0.0497975 6.21413e-21)
(0.290466 -0.0500756 -3.98943e-21)
(0.300546 -0.0502512 4.25893e-21)
(0.310528 -0.0503064 -8.21843e-21)
(0.320387 -0.0502206 6.33237e-21)
(0.330095 -0.0499701 -1.60042e-21)
(0.339615 -0.0495279 -3.75265e-21)
(0.348909 -0.0488641 3.31257e-21)
(0.357927 -0.0479462 -6.22431e-21)
(0.366636 -0.0467315 9.08002e-21)
(0.375016 -0.045158 -1.35301e-21)
(0.382824 -0.0432229 -3.20027e-21)
(0.00387546 -0.00244544 -3.87616e-21)
(0.0148447 -0.00898205 -3.98132e-22)
(0.0252981 -0.0150134 5.32129e-21)
(0.0354159 -0.020374 4.99503e-21)
(0.0453299 -0.0250597 -8.9774e-22)
(0.0551569 -0.0291137 9.3104e-21)
(0.0649864 -0.0326073 4.02542e-21)
(0.0748748 -0.0356252 -1.58105e-20)
(0.0848524 -0.0382504 1.06445e-20)
(0.0949304 -0.0405568 -6.87171e-21)
(0.105109 -0.0426058 1.84075e-20)
(0.11538 -0.0444473 -8.62998e-21)
(0.125736 -0.0461203 -9.1638e-21)
(0.136164 -0.0476553 1.02847e-20)
(0.146657 -0.0490761 -1.87615e-20)
(0.157204 -0.0504009 -7.57829e-21)
(0.167798 -0.0516441 1.10561e-20)
(0.178433 -0.0528165 -9.05012e-21)
(0.189103 -0.0539263 1.59355e-20)
(0.199802 -0.0549794 -5.69574e-21)
(0.210525 -0.0559797 -2.38703e-21)
(0.221268 -0.0569292 2.67419e-21)
(0.232025 -0.0578279 1.18697e-21)
(0.24279 -0.0586739 1.45787e-21)
(0.253556 -0.0594636 -6.03858e-22)
(0.264315 -0.0601912 -3.517e-21)
(0.275057 -0.0608484 6.79029e-21)
(0.285771 -0.061425 -3.82025e-21)
(0.296442 -0.0619078 -7.16742e-21)
(0.307054 -0.0622807 5.2702e-21)
(0.317587 -0.0625248 -9.51108e-22)
(0.328016 -0.0626175 4.91381e-21)
(0.338313 -0.0625324 -5.02908e-21)
(0.348446 -0.0622391 -1.26392e-21)
(0.358376 -0.0617029 3.3759e-21)
(0.368055 -0.0608852 -8.71084e-21)
(0.377429 -0.0597436 4.82214e-21)
(0.386461 -0.0582202 -3.98175e-21)
(0.395142 -0.0562273 8.63509e-21)
(0.403159 -0.0537732 -4.70302e-21)
(0.0043685 -0.00251053 9.90225e-21)
(0.016683 -0.00929979 -1.34263e-20)
(0.0284813 -0.0157287 8.09469e-22)
(0.0398676 -0.0216447 8.13713e-21)
(0.0509339 -0.0270001 -7.35283e-21)
(0.0617796 -0.0317868 1.10985e-20)
(0.072497 -0.0360288 -1.10932e-20)
(0.0831593 -0.0397746 1.00499e-20)
(0.0938189 -0.0430841 -6.04908e-21)
(0.10451 -0.0460194 -6.73379e-21)
(0.115252 -0.048639 1.03828e-20)
(0.126055 -0.0509945 -7.84992e-21)
(0.136921 -0.0531299 1.77714e-20)
(0.147849 -0.0550817 3.82371e-21)
(0.158835 -0.0568797 -1.44722e-20)
(0.169875 -0.0585478 1.07723e-20)
(0.180963 -0.0601051 -2.4378e-21)
(0.192096 -0.0615668 -1.12227e-20)
(0.203268 -0.0629445 1.96443e-21)
(0.214474 -0.0642468 -7.41147e-22)
(0.225711 -0.0654798 1.69199e-21)
(0.236972 -0.066647 -1.1904e-22)
(0.248253 -0.0677496 3.40442e-21)
(0.259546 -0.0687864 -7.33009e-21)
(0.270845 -0.0697537 6.40473e-21)
(0.282141 -0.0706453 -9.90356e-21)
(0.293423 -0.0714521 3.05504e-21)
(0.304678 -0.0721623 7.46388e-21)
(0.31589 -0.0727605 -1.22379e-21)
(0.32704 -0.0732279 7.54899e-21)
(0.338106 -0.0735417 -1.09074e-21)
(0.349062 -0.0736749 -1.31173e-21)
(0.359874 -0.0735958 -9.25968e-21)
(0.370506 -0.0732673 3.6064e-21)
(0.380913 -0.072647 4.91736e-21)
(0.391042 -0.0716877 -9.68755e-21)
(0.400828 -0.0703375 4.06272e-21)
(0.410231 -0.0685217 -1.56376e-22)
(0.419254 -0.0661226 -1.41828e-21)
(0.427511 -0.063169 -1.10316e-21)
(0.00488133 -0.00256505 2.62104e-21)
(0.0185621 -0.00950504 5.25487e-21)
(0.0317275 -0.0161768 9.46092e-21)
(0.0444403 -0.0224503 -1.42808e-20)
(0.0567613 -0.0282671 1.56638e-21)
(0.0687677 -0.0335947 -1.41457e-20)
(0.0805419 -0.0384262 5.09488e-21)
(0.0921593 -0.0427792 -7.9318e-22)
(0.103683 -0.0466885 1.05094e-20)
(0.115161 -0.0501987 -1.68582e-21)
(0.12663 -0.0533573 -1.19158e-20)
(0.138113 -0.056211 -3.58639e-21)
(0.149626 -0.0588027 2.95457e-21)
(0.161177 -0.0611705 1.44128e-20)
(0.172772 -0.0633471 2.10144e-21)
(0.184411 -0.0653602 -4.74919e-21)
(0.196094 -0.0672327 1.35866e-20)
(0.20782 -0.0689832 -1.96304e-20)
(0.219585 -0.0706265 1.69467e-20)
(0.231386 -0.0721741 4.33611e-21)
(0.24322 -0.0736343 -5.20179e-21)
(0.255082 -0.0750126 2.80601e-21)
(0.266966 -0.0763116 4.32634e-21)
(0.278866 -0.077531 -5.74464e-21)
(0.290775 -0.0786676 2.65685e-21)
(0.302682 -0.0797152 -1.07999e-21)
(0.314576 -0.0806643 -2.90323e-21)
(0.326442 -0.0815017 -1.39926e-21)
(0.338264 -0.0822105 8.73184e-21)
(0.350021 -0.0827692 -1.58096e-20)
(0.361687 -0.0831518 1.67175e-20)
(0.373231 -0.0833271 -5.05013e-21)
(0.384619 -0.0832583 -6.04992e-21)
(0.395807 -0.0829019 -3.5466e-22)
(0.406746 -0.0822078 6.40598e-21)
(0.417372 -0.0811206 8.60708e-25)
(0.427611 -0.0795789 -6.34651e-21)
(0.437418 -0.0774908 -4.45043e-21)
(0.446809 -0.0747031 7.02745e-21)
(0.455321 -0.0712751 -2.54767e-21)
(0.00541709 -0.00260029 4.5106e-21)
(0.020497 -0.00960673 -1.17726e-20)
(0.0350513 -0.0164068 -7.36406e-21)
(0.0491249 -0.02289 2.48695e-21)
(0.0627598 -0.0290011 1.2134e-20)
(0.0760153 -0.0347003 2.28806e-21)
(0.0889614 -0.0399637 -5.46638e-21)
(0.101669 -0.0447878 -4.80636e-21)
(0.114201 -0.0491864 1.93153e-21)
(0.126616 -0.0531859 -1.31848e-21)
(0.138957 -0.0568203 -1.21528e-20)
(0.15126 -0.0601267 1.06652e-20)
(0.163551 -0.0631428 1.29487e-20)
(0.175849 -0.0659041 -5.90366e-21)
(0.188166 -0.0684431 -8.74842e-21)
(0.20051 -0.0707887 -1.74241e-20)
(0.212886 -0.0729655 7.20977e-21)
(0.225297 -0.0749947 1.23084e-21)
(0.237742 -0.0768934 2.12146e-21)
(0.250219 -0.0786756 -2.57565e-21)
(0.262728 -0.0803518 -3.25158e-22)
(0.275264 -0.0819294 1.15226e-20)
(0.287822 -0.0834124 -6.01577e-21)
(0.300396 -0.084802 3.77731e-21)
(0.312977 -0.0860957 4.95685e-21)
(0.325556 -0.0872878 -4.49246e-21)
(0.338121 -0.0883685 4.46068e-21)
(0.350655 -0.0893242 -4.02729e-21)
(0.363141 -0.0901364 2.89138e-21)
(0.375555 -0.0907817 9.12785e-22)
(0.387869 -0.0912313 -3.71455e-21)
(0.400051 -0.0914502 6.18323e-25)
(0.412058 -0.0913964 5.47308e-21)
(0.423844 -0.0910207 3.67443e-21)
(0.435351 -0.0902654 -4.48121e-21)
(0.446507 -0.0890669 5.94071e-21)
(0.457225 -0.0873552 -1.78964e-21)
(0.467456 -0.0850197 1.72157e-21)
(0.477226 -0.0818672 -4.06596e-21)
(0.485996 -0.0779953 2.63695e-21)
(0.00597466 -0.00261144 -1.69441e-21)
(0.0224863 -0.00960319 1.67976e-21)
(0.0384492 -0.0164363 -1.4776e-20)
(0.0539045 -0.0230124 1.33357e-20)
(0.0688865 -0.0292837 -7.78633e-21)
(0.0834432 -0.0352113 1.92088e-21)
(0.0976344 -0.0407641 2.2712e-20)
(0.111524 -0.0459256 3.9812e-22)
(0.125173 -0.0506946 3.97945e-22)
(0.13864 -0.0550824 3.66574e-21)
(0.151975 -0.0591092 1.09203e-20)
(0.165219 -0.0628016 -3.07865e-21)
(0.178406 -0.066189 -2.13536e-20)
(0.191562 -0.0693019 1.13806e-20)
(0.204708 -0.0721698 -2.31286e-21)
(0.217857 -0.0748202 -7.04953e-21)
(0.231019 -0.0772779 -1.37163e-21)
(0.2442 -0.0795649 1.44576e-20)
(0.257405 -0.0816998 -1.76075e-20)
(0.270634 -0.0836981 1.14685e-20)
(0.283887 -0.0855722 3.48382e-21)
(0.297161 -0.0873311 -8.55861e-21)
(0.310452 -0.0889806 6.11776e-21)
(0.323754 -0.0905232 -3.44458e-21)
(0.33706 -0.0919576 4.89549e-23)
(0.350358 -0.0932788 2.64343e-21)
(0.363637 -0.0944775 -1.79915e-20)
(0.37688 -0.0955397 5.89412e-21)
(0.390067 -0.0964464 -2.10656e-21)
(0.403173 -0.0971726 4.12862e-21)
(0.416168 -0.097687 -5.01835e-21)
(0.429016 -0.0979514 -5.48532e-21)
(0.441671 -0.0979193 5.30623e-21)
(0.45408 -0.0975355 1.2315e-21)
(0.466178 -0.0967352 -9.14855e-22)
(0.477883 -0.0954467 -1.34988e-22)
(0.489095 -0.0935919 2.82689e-21)
(0.499754 -0.0910407 8.49408e-22)
(0.5099 -0.0875544 -6.66595e-21)
(0.518923 -0.0832742 2.89278e-22)
(0.00654981 -0.00259417 -4.35423e-21)
(0.0245167 -0.00948803 -1.51755e-20)
(0.0419 -0.0162676 1.04772e-20)
(0.0587469 -0.0228379 3.50682e-21)
(0.0750908 -0.0291586 -6.16381e-21)
(0.0909753 -0.0351947 -7.99768e-21)
(0.106454 -0.0409129 -5.40263e-21)
(0.121583 -0.0462897 3.31167e-21)
(0.136423 -0.0513139 -1.0457e-21)
(0.151028 -0.0559851 1.12958e-21)
(0.165449 -0.0603121 -3.64753e-21)
(0.179731 -0.0643109 -7.16428e-21)
(0.193912 -0.0680023 2.24898e-20)
(0.208024 -0.0714102 -6.16409e-21)
(0.222092 -0.0745591 -5.52012e-21)
(0.236134 -0.0774736 -1.14206e-20)
(0.250165 -0.0801769 1.20128e-20)
(0.264195 -0.0826903 2.68675e-21)
(0.278232 -0.0850327 -1.39741e-21)
(0.292277 -0.0872205 -8.1203e-21)
(0.306334 -0.0892672 -1.58294e-22)
(0.3204 -0.0911833 5.70496e-21)
(0.334473 -0.0929761 -1.09343e-22)
(0.348547 -0.0946494 1.03732e-21)
(0.362615 -0.0962035 -4.15281e-21)
(0.376666 -0.0976345 9.31971e-21)
(0.390688 -0.098934 -1.54332e-20)
(0.404664 -0.100088 1.60678e-20)
(0.418574 -0.101079 -1.75494e-20)
(0.43239 -0.101879 2.01378e-20)
(0.446082 -0.102456 -6.29964e-21)
(0.459609 -0.102769 2.45714e-21)
(0.472924 -0.102768 -2.89021e-21)
(0.485966 -0.102391 3.25398e-21)
(0.498663 -0.101567 1.32941e-21)
(0.510924 -0.100216 -2.26646e-21)
(0.522633 -0.0982525 -5.40572e-21)
(0.533719 -0.0955258 2.99011e-21)
(0.544231 -0.0917462 4.31639e-21)
(0.553496 -0.0871005 -8.93919e-22)
(0.00713524 -0.00254375 5.09679e-21)
(0.0265645 -0.0092524 3.53608e-21)
(0.0453671 -0.0158953 1.51563e-20)
(0.063602 -0.022372 -1.3263e-20)
(0.0813075 -0.0286476 2.55596e-21)
(0.0985269 -0.0346909 -4.43748e-21)
(0.115311 -0.0404684 1.29315e-21)
(0.131713 -0.0459528 5.29702e-21)
(0.147788 -0.0511264 -2.93006e-21)
(0.163587 -0.0559805 5.8957e-22)
(0.179161 -0.0605147 6.16633e-21)
(0.194555 -0.0647358 -6.90852e-21)
(0.209807 -0.0686566 4.57296e-21)
(0.224953 -0.0722935 9.75589e-21)
(0.24002 -0.0756658 -1.19231e-20)
(0.25503 -0.0787937 6.13186e-21)
(0.270002 -0.0816975 8.54203e-21)
(0.284947 -0.0843968 -1.33152e-20)
(0.299876 -0.0869099 -7.29426e-21)
(0.314794 -0.0892531 2.14454e-20)
(0.329704 -0.0914403 -2.08508e-20)
(0.344606 -0.0934832 6.77704e-21)
(0.359498 -0.0953903 8.29807e-21)
(0.374375 -0.097167 -5.43094e-22)
(0.389231 -0.0988152 4.27607e-21)
(0.404055 -0.100333 -9.01049e-22)
(0.418835 -0.101712 -7.57419e-21)
(0.433554 -0.102941 -3.35565e-21)
(0.448191 -0.104002 1.4719e-20)
(0.462719 -0.104867 -4.63634e-21)
(0.477107 -0.105505 -4.4727e-21)
(0.491311 -0.105871 -3.17022e-21)
(0.50528 -0.105912 4.06504e-21)
(0.518951 -0.105562 -7.35127e-21)
(0.532245 -0.104742 6.55639e-21)
(0.545058 -0.103364 -4.99645e-22)
(0.557259 -0.101335 -2.3764e-21)
(0.568765 -0.0984836 -6.97951e-21)
(0.579629 -0.0944627 7.81625e-22)
(0.589125 -0.0895038 1.15985e-21)
(0.00772077 -0.00245569 4.95487e-21)
(0.0285963 -0.00888754 -3.29678e-21)
(0.0487987 -0.0153123 -1.7649e-22)
(0.0684027 -0.0216148 -3.28964e-21)
(0.0874541 -0.0277622 1.3336e-20)
(0.106 -0.0337262 -2.05632e-21)
(0.12409 -0.0394725 1.13938e-20)
(0.141775 -0.0449713 2.85479e-22)
(0.159107 -0.0502005 -1.4492e-20)
(0.176135 -0.0551454 1.78836e-20)
(0.192905 -0.0597985 -4.21074e-21)
(0.209461 -0.0641591 -9.55792e-21)
(0.225841 -0.0682326 -1.58205e-20)
(0.24208 -0.0720289 7.39611e-21)
(0.258206 -0.0755613 3.14462e-21)
(0.274244 -0.0788454 -2.39239e-21)
(0.290213 -0.081898 4.0322e-21)
(0.306127 -0.0847362 9.82976e-23)
(0.321998 -0.0873766 1.82929e-20)
(0.337832 -0.0898347 -1.95448e-20)
(0.353634 -0.0921247 8.48622e-22)
(0.369404 -0.0942586 -1.9966e-21)
(0.385142 -0.096246 -3.95056e-21)
(0.400843 -0.0980939 3.22848e-22)
(0.4165 -0.0998058 2.80315e-21)
(0.432105 -0.101381 6.79425e-22)
(0.447644 -0.102815 6.22724e-22)
(0.463101 -0.104098 -8.34506e-21)
(0.478456 -0.105212 8.50897e-21)
(0.493683 -0.106133 -7.79284e-21)
(0.508749 -0.106827 -1.17437e-21)
(0.523612 -0.107251 9.1966e-21)
(0.538218 -0.107348 -1.13974e-21)
(0.552501 -0.107048 -4.33908e-21)
(0.566375 -0.106266 6.15008e-21)
(0.579728 -0.104906 -2.02497e-21)
(0.592414 -0.102865 -2.68863e-21)
(0.604332 -0.0999513 3.1236e-21)
(0.615537 -0.0957543 -2.80839e-21)
(0.625259 -0.0905435 1.04671e-20)
(0.00829327 -0.0023261 3.45998e-22)
(0.0305699 -0.0083866 -1.4798e-21)
(0.0521298 -0.0145135 8.97406e-21)
(0.0730652 -0.0205666 -4.9408e-21)
(0.0934311 -0.0265123 5.35131e-22)
(0.113279 -0.0323221 -6.75015e-21)
(0.13266 -0.0379599 -9.0684e-21)
(0.151624 -0.0433933 -4.32021e-21)
(0.170219 -0.0485965 7.82108e-21)
(0.18849 -0.0535502 5.65517e-21)
(0.20648 -0.0582415 -3.98855e-21)
(0.224229 -0.0626635 6.74368e-22)
(0.241774 -0.0668155 -4.88387e-21)
(0.259146 -0.0707014 -1.40818e-21)
(0.276376 -0.0743291 -6.19076e-21)
(0.293485 -0.0777097 1.85831e-20)
(0.310494 -0.0808558 -1.2024e-20)
(0.327417 -0.0837818 3.47772e-21)
(0.344267 -0.0865019 -7.44048e-21)
(0.36105 -0.0890306 3.94799e-21)
(0.377772 -0.0913813 1.48762e-20)
(0.394434 -0.0935662 -5.91192e-21)
(0.411034 -0.0955958 1.03291e-20)
(0.427569 -0.0974783 -4.37822e-21)
(0.444031 -0.0992191 -6.86444e-22)
(0.460412 -0.10082 3.66942e-21)
(0.476701 -0.102279 -7.82873e-21)
(0.49288 -0.103589 1.13314e-20)
(0.508931 -0.104734 -1.63064e-20)
(0.52483 -0.105695 1.06752e-20)
(0.540543 -0.106438 -3.22878e-21)
(0.556031 -0.106922 6.93661e-21)
(0.571241 -0.107089 -1.09386e-20)
(0.586105 -0.106866 7.72615e-21)
(0.600535 -0.106162 4.15298e-21)
(0.614411 -0.104872 6.29304e-21)
(0.627572 -0.102886 -5.33628e-21)
(0.639899 -0.0999872 2.32249e-21)
(0.651441 -0.0956942 4.22613e-21)
(0.661399 -0.0903024 -8.27992e-21)
(0.00883648 -0.00215202 -4.15232e-21)
(0.0324336 -0.00774624 1.082e-20)
(0.0552816 -0.0134986 -3.38553e-21)
(0.0774899 -0.0192332 -2.96061e-21)
(0.0991226 -0.0249118 -2.21557e-21)
(0.120235 -0.0305029 8.14271e-22)
(0.14088 -0.0359661 8.15409e-22)
(0.161106 -0.0412657 2.85275e-21)
(0.180955 -0.0463725 5.50244e-21)
(0.200469 -0.0512632 -8.38146e-21)
(0.219687 -0.0559204 1.13155e-20)
(0.238645 -0.0603325 -8.93544e-21)
(0.257375 -0.0644936 1.19519e-20)
(0.275907 -0.0684025 -6.94156e-21)
(0.294266 -0.0720624 6.74164e-22)
(0.312476 -0.0754798 8.31479e-21)
(0.330553 -0.0786636 1.14288e-21)
(0.348514 -0.0816249 2.7387e-21)
(0.366368 -0.0843757 -2.7359e-21)
(0.384122 -0.0869285 -1.16927e-20)
(0.401782 -0.0892958 6.30331e-21)
(0.419348 -0.0914894 -4.17408e-21)
(0.436818 -0.0935204 1.09762e-20)
(0.454188 -0.0953979 -6.86437e-21)
(0.471451 -0.0971293 -5.57318e-22)
(0.488598 -0.0987189 -4.1577e-22)
(0.505618 -0.100168 6.91486e-22)
(0.522494 -0.101472 1.02558e-20)
(0.539209 -0.102621 -8.56821e-21)
(0.555741 -0.103599 -8.50814e-21)
(0.572059 -0.104377 5.3379e-21)
(0.588126 -0.104917 -3.66406e-21)
(0.603894 -0.105163 2.21959e-21)
(0.619296 -0.105043 3.70971e-21)
(0.634246 -0.104459 -6.68374e-21)
(0.648622 -0.103301 1.98943e-22)
(0.662249 -0.101447 5.50849e-21)
(0.674991 -0.098657 -3.34295e-21)
(0.686886 -0.0943668 4.04413e-21)
(0.697112 -0.0888779 9.12219e-22)
(0.0093304 -0.00193171 2.26766e-21)
(0.0341258 -0.00696839 -3.97629e-21)
(0.0581618 -0.0122758 5.63028e-21)
(0.0815625 -0.0176301 1.15723e-21)
(0.104398 -0.0229846 1.55557e-21)
(0.126727 -0.0283012 -8.17471e-21)
(0.148599 -0.0335332 1.00858e-20)
(0.170058 -0.0386405 -5.54935e-21)
(0.191143 -0.04359 1.49796e-21)
(0.211891 -0.048355 -2.08227e-22)
(0.232333 -0.0529142 -7.23965e-21)
(0.252502 -0.0572522 -6.57771e-21)
(0.272424 -0.0613589 2.03164e-21)
(0.292125 -0.0652289 -1.24441e-20)
(0.311629 -0.0688612 7.54721e-23)
(0.330954 -0.0722584 7.90913e-21)
(0.350116 -0.075426 -1.70406e-21)
(0.369128 -0.0783715 -3.52885e-21)
(0.388 -0.0811045 -2.28338e-21)
(0.406738 -0.0836355 7.00478e-21)
(0.425344 -0.0859754 -3.4781e-21)
(0.443818 -0.0881354 -1.69289e-20)
(0.462159 -0.0901264 1.36784e-20)
(0.480361 -0.0919584 6.48231e-22)
(0.498415 -0.09364 -1.25145e-20)
(0.516312 -0.0951782 5.3601e-21)
(0.53404 -0.096577 7.14436e-21)
(0.551583 -0.0978369 2.13053e-21)
(0.568926 -0.0989535 -3.40058e-21)
(0.586046 -0.0999156 2.63183e-21)
(0.602918 -0.100703 3.80314e-21)
(0.61951 -0.101282 -1.19087e-20)
(0.635777 -0.101606 9.82373e-21)
(0.651663 -0.101603 2.43674e-21)
(0.667087 -0.101179 4.85705e-23)
(0.68193 -0.100216 -9.72377e-21)
(0.696015 -0.0985842 -1.4205e-21)
(0.709188 -0.0960145 1.99101e-22)
(0.721472 -0.0918495 4.77591e-21)
(0.732032 -0.0863662 3.01072e-21)
(0.00974925 -0.00166426 -3.34004e-21)
(0.0355718 -0.00606158 2.39354e-21)
(0.0606622 -0.0108628 8.16214e-22)
(0.0851525 -0.0157834 8.97251e-21)
(0.109114 -0.0207652 8.40241e-22)
(0.1326 -0.0257594 -8.34554e-21)
(0.155655 -0.0307107 -1.18168e-21)
(0.178314 -0.0355741 -2.98421e-22)
(0.200611 -0.040313 8.96212e-21)
(0.222573 -0.0448968 -1.02794e-20)
(0.244227 -0.0493012 -6.01244e-22)
(0.265598 -0.0535076 5.0903e-21)
(0.286708 -0.0575026 -5.07738e-21)
(0.307577 -0.0612774 1.24131e-20)
(0.328226 -0.0648274 -1.02394e-20)
(0.348668 -0.0681518 -9.19386e-21)
(0.368919 -0.0712527 -4.8213e-21)
(0.388987 -0.0741348 1.79003e-20)
(0.408879 -0.0768048 -4.0039e-21)
(0.428602 -0.0792709 -8.00165e-22)
(0.448155 -0.0815424 3.36985e-22)
(0.467536 -0.083629 5.79523e-21)
(0.486743 -0.0855411 -4.72405e-21)
(0.505767 -0.0872886 -1.69305e-20)
(0.524601 -0.088881 5.09013e-21)
(0.543231 -0.090327 1.2562e-21)
(0.561645 -0.0916337 -3.97621e-21)
(0.579828 -0.0928058 8.52098e-21)
(0.597762 -0.0938447 -1.0592e-20)
(0.615428 -0.0947464 6.53835e-22)
(0.632803 -0.0954999 -6.08719e-22)
(0.64986 -0.0960832 -1.97546e-21)
(0.666564 -0.0964593 1.01432e-20)
(0.682868 -0.0965691 -8.42346e-21)
(0.698706 -0.0963237 1.16156e-21)
(0.713973 -0.0956086 -1.58344e-21)
(0.728501 -0.09429 4.65722e-21)
(0.742127 -0.0920703 -1.30605e-20)
(0.754866 -0.0881822 1.15579e-20)
(0.765869 -0.0828333 -3.20123e-21)
(0.0100558 -0.0013478 4.97524e-21)
(0.0366819 -0.00504727 -6.14006e-21)
(0.0626613 -0.00929376 -1.61202e-21)
(0.0881192 -0.0137361 2.82253e-21)
(0.113119 -0.0183048 -2.29178e-21)
(0.1377 -0.0229342 -3.28077e-21)
(0.161889 -0.0275595 5.59508e-21)
(0.185712 -0.0321322 1.73818e-21)
(0.209189 -0.0366118 5.04983e-21)
(0.232341 -0.0409643 6.37384e-21)
(0.255186 -0.0451627 -8.94237e-21)
(0.277742 -0.0491858 8.57869e-21)
(0.300025 -0.0530176 -1.82887e-21)
(0.322051 -0.0566465 5.17455e-21)
(0.343834 -0.0600651 1.85979e-21)
(0.365385 -0.0632694 1.15385e-20)
(0.386716 -0.0662586 -4.67828e-21)
(0.407832 -0.0690346 -6.58615e-21)
(0.428739 -0.0716015 -1.29996e-20)
(0.449439 -0.0739649 2.70243e-20)
(0.469931 -0.076132 -8.27409e-21)
(0.490212 -0.0781109 1.06827e-20)
(0.510275 -0.0799104 -8.15215e-21)
(0.530111 -0.0815397 6.59607e-21)
(0.549711 -0.0830082 -1.14257e-21)
(0.56906 -0.0843252 8.41703e-21)
(0.588143 -0.0854995 -5.2248e-21)
(0.606943 -0.086539 5.16178e-21)
(0.625443 -0.0874499 5.31337e-21)
(0.643622 -0.0882358 -9.14859e-21)
(0.661459 -0.0888955 -2.77189e-21)
(0.678931 -0.0894206 1.04818e-20)
(0.696011 -0.0897908 1.25715e-21)
(0.712666 -0.0899662 -3.89362e-21)
(0.72885 -0.0898772 3.13894e-21)
(0.744482 -0.0894257 -1.02463e-20)
(0.759421 -0.0884889 9.98896e-21)
(0.773522 -0.0867524 1.08218e-21)
(0.786805 -0.0833249 -8.21008e-22)
(0.798424 -0.0782674 3.75759e-21)
(0.0101994 -0.000997178 -1.87151e-21)
(0.0373555 -0.00399479 3.34989e-21)
(0.0640492 -0.00765594 1.55024e-22)
(0.0903527 -0.0115894 -2.02485e-21)
(0.116307 -0.015716 -2.02322e-21)
(0.141923 -0.0199457 7.30959e-21)
(0.1672 -0.0242023 -2.25927e-21)
(0.192145 -0.0284385 -4.69891e-21)
(0.216768 -0.0326118 -1.07351e-22)
(0.241078 -0.0366849 1.42713e-22)
(0.265084 -0.0406286 2.73514e-21)
(0.288797 -0.0444201 3.76089e-23)
(0.312228 -0.0480409 -1.20113e-20)
(0.335386 -0.0514774 1.97349e-21)
(0.358281 -0.0547195 -1.01008e-21)
(0.380921 -0.0577609 1.04933e-21)
(0.403312 -0.0605981 4.45802e-21)
(0.425458 -0.0632303 4.97856e-21)
(0.447361 -0.065659 -6.85203e-21)
(0.469021 -0.0678874 3.88136e-21)
(0.490436 -0.0699203 -4.123e-21)
(0.511599 -0.0717636 5.20894e-21)
(0.532503 -0.0734242 -7.1465e-21)
(0.553138 -0.0749095 1.39304e-20)
(0.573491 -0.0762276 -1.57669e-20)
(0.593546 -0.0773869 -4.38787e-21)
(0.613286 -0.0783961 -1.26661e-21)
(0.632693 -0.0792639 8.5788e-21)
(0.651747 -0.0799991 -8.09407e-21)
(0.670425 -0.0806099 6.63477e-21)
(0.688706 -0.0811032 -7.2985e-21)
(0.706567 -0.0814831 1.56897e-21)
(0.723987 -0.0817478 -7.72981e-22)
(0.740944 -0.0818834 1.72743e-21)
(0.757409 -0.0818526 4.09364e-21)
(0.773339 -0.0815952 -2.01848e-21)
(0.788636 -0.0810337 -2.64789e-21)
(0.803211 -0.0798799 6.42819e-21)
(0.817143 -0.0771156 2.22714e-21)
(0.829637 -0.0725559 -5.38359e-21)
(0.0100719 -0.000610181 -4.91945e-21)
(0.0373646 -0.0029365 -5.46023e-21)
(0.0645756 -0.00595939 2.1755e-21)
(0.0916306 -0.00934677 -2.95955e-21)
(0.118473 -0.013003 -1.26017e-21)
(0.14508 -0.0167973 2.73503e-21)
(0.171401 -0.0206328 8.39515e-23)
(0.197426 -0.0244825 4.20281e-22)
(0.223153 -0.0283018 -1.54617e-22)
(0.248581 -0.0320489 -2.08918e-21)
(0.27371 -0.0356928 3.0517e-21)
(0.298544 -0.039209 7.61302e-21)
(0.323087 -0.0425772 2.55765e-21)
(0.347343 -0.0457814 -8.86472e-21)
(0.371317 -0.0488095 -1.36762e-21)
(0.395014 -0.0516529 6.11106e-21)
(0.418435 -0.0543057 -5.63638e-21)
(0.441582 -0.0567647 1.19112e-20)
(0.464455 -0.0590289 -7.13633e-21)
(0.48705 -0.0610992 -5.12751e-21)
(0.509363 -0.062978 8.92643e-22)
(0.531387 -0.0646687 8.89198e-21)
(0.553112 -0.0661759 -3.93834e-21)
(0.574528 -0.0675047 -6.99721e-21)
(0.595619 -0.0686609 2.87899e-21)
(0.61637 -0.0696507 -3.50769e-21)
(0.636763 -0.0704804 8.37975e-22)
(0.656776 -0.071157 -5.62531e-21)
(0.67639 -0.0716878 6.95741e-21)
(0.695579 -0.0720809 1.97431e-21)
(0.714321 -0.0723451 -8.18842e-21)
(0.732592 -0.07249 4.46176e-21)
(0.750368 -0.0725261 -5.11707e-21)
(0.76763 -0.0724607 1.5248e-21)
(0.784363 -0.0722912 -1.17091e-21)
(0.800547 -0.0720144 -8.98265e-22)
(0.816137 -0.0716464 1.7388e-21)
(0.83112 -0.0709935 3.89942e-21)
(0.845707 -0.0689444 -1.10407e-20)
(0.859314 -0.0650616 -2.29093e-21)
(0.00947752 -7.23635e-06 1.42602e-21)
(0.0363671 -0.00164172 -6.61905e-22)
(0.0638188 -0.00396288 -7.85787e-21)
(0.0914712 -0.0067144 -2.55351e-21)
(0.119106 -0.00980313 -1.86752e-21)
(0.146612 -0.0130633 -6.77995e-21)
(0.173921 -0.0164039 2.14502e-21)
(0.200984 -0.0198253 -2.06947e-21)
(0.227776 -0.0232596 2.35016e-21)
(0.254284 -0.0266542 1.17722e-21)
(0.2805 -0.029975 4.51212e-21)
(0.306419 -0.0331949 -7.5131e-21)
(0.33204 -0.0362911 -4.38146e-21)
(0.357363 -0.0392457 1.79943e-21)
(0.382387 -0.0420445 -2.55714e-21)
(0.407111 -0.0446765 2.70884e-22)
(0.431536 -0.0471339 4.04122e-21)
(0.455659 -0.0494113 -6.13238e-21)
(0.479476 -0.0515056 -1.65648e-22)
(0.502984 -0.0534154 -2.96238e-21)
(0.526174 -0.0551409 4.98791e-21)
(0.54904 -0.0566834 -9.51897e-21)
(0.571569 -0.0580452 -4.17929e-21)
(0.593752 -0.059229 -1.22946e-21)
(0.615572 -0.060238 8.91977e-21)
(0.637014 -0.0610755 -6.51004e-21)
(0.658061 -0.0617447 3.87868e-21)
(0.678693 -0.0622487 1.41112e-21)
(0.69889 -0.0625905 -3.19766e-21)
(0.718629 -0.0627727 6.90475e-21)
(0.737887 -0.0627982 -5.74115e-21)
(0.756643 -0.0626709 3.05031e-21)
(0.774873 -0.0623959 -2.33358e-21)
(0.792557 -0.0619788 2.24229e-21)
(0.809682 -0.0614253 1.37041e-20)
(0.826236 -0.0607647 -1.28198e-20)
(0.842192 -0.0600796 -1.02585e-20)
(0.857572 -0.059246 1.0909e-20)
(0.872696 -0.0572077 5.79209e-21)
(0.887529 -0.0537566 -8.92389e-21)
(0.010322 -0.000320737 3.35836e-22)
(0.0370796 -0.00206716 -1.61406e-21)
(0.0647773 -0.00393705 1.91973e-21)
(0.0929099 -0.00612968 -4.76939e-22)
(0.121193 -0.00862342 2.15528e-21)
(0.149449 -0.0113142 4.58517e-21)
(0.1776 -0.0141541 -1.77133e-21)
(0.205567 -0.0170894 -3.18263e-21)
(0.233301 -0.0200627 2.54278e-21)
(0.260774 -0.0230298 -9.77837e-21)
(0.287968 -0.0259548 3.91324e-21)
(0.314869 -0.0288076 -6.13332e-21)
(0.341468 -0.0315634 7.73252e-21)
(0.36776 -0.0342018 -8.24897e-22)
(0.393739 -0.0367069 -6.64949e-21)
(0.419401 -0.0390657 1.28145e-22)
(0.44474 -0.0412685 1.72672e-21)
(0.469752 -0.0433082 6.21654e-21)
(0.49443 -0.0451797 -2.55696e-21)
(0.518767 -0.0468798 -8.11857e-21)
(0.542754 -0.0484069 8.37253e-21)
(0.566381 -0.0497605 -1.08892e-20)
(0.589638 -0.0509408 -3.2088e-21)
(0.612512 -0.0519487 -6.78153e-21)
(0.634988 -0.0527853 1.68205e-20)
(0.657053 -0.0534514 -8.11648e-21)
(0.67869 -0.0539477 9.12858e-21)
(0.699882 -0.0542738 3.30951e-22)
(0.720614 -0.0544285 -1.80728e-21)
(0.74087 -0.0544086 -6.98055e-22)
(0.760635 -0.0542091 3.69232e-21)
(0.779898 -0.0538223 8.06156e-21)
(0.798654 -0.0532365 -1.22967e-20)
(0.816906 -0.0524342 6.5557e-21)
(0.834679 -0.051392 -2.1129e-21)
(0.85203 -0.0500931 -6.99543e-21)
(0.869072 -0.0485248 6.70765e-21)
(0.886078 -0.0465547 -2.98079e-22)
(0.903818 -0.0438808 1.5763e-21)
(0.924019 -0.0411476 -1.64067e-21)
(0.0118233 -0.0011198 -4.79079e-22)
(0.0398466 -0.00342784 8.26654e-21)
(0.0682537 -0.00541061 8.66768e-21)
(0.096966 -0.00739868 -2.41186e-21)
(0.125843 -0.00950838 2.84219e-21)
(0.154759 -0.0117452 1.44804e-21)
(0.183621 -0.0140936 1.46794e-21)
(0.212353 -0.0165234 2.82345e-21)
(0.240896 -0.019 -8.58059e-22)
(0.26921 -0.0214887 -1.53164e-22)
(0.297266 -0.0239573 2.87571e-21)