/*--------------------------------*- C++ -*----------------------------------*\
  =========                 |
  \\      /  F ield         | OpenFOAM: The Open Source CFD Toolbox
   \\    /   O peration     | Website:  https://openfoam.org
    \\  /    A nd           | Version:  7
     \\/     M anipulation  |
\*---------------------------------------------------------------------------*/
FoamFile
{
    version     2.0;
    format      ascii;
    class       volScalarField;
    location    "9.6";
    object      rho;
}
// * * * * * * * * * * * * * * * * * * * * * * * * * * * * * * * * * * * * * //

dimensions      [1 -3 0 0 0 0 0];

internalField   nonuniform List<scalar> 
3700
(
0.248677
0.320631
0.364254
0.421964
0.419176
0.427825
0.447642
0.499801
0.56733
0.607532
0.642985
0.657764
0.658287
0.681719
0.68885
0.670645
0.692572
0.728621
0.732616
0.733018
0.18916
0.138138
0.138132
0.146212
0.133196
0.127021
0.144887
0.184732
0.206367
0.202773
0.19286
0.203369
0.223473
0.246206
0.24431
0.239141
0.249892
0.273468
0.315589
0.323335
0.20234
0.135935
0.0995832
0.0820107
0.0779517
0.0808536
0.0836733
0.0939264
0.0958978
0.100544
0.0948738
0.0969665
0.100951
0.112607
0.12813
0.144939
0.161084
0.172783
0.182359
0.185306
0.198267
0.117555
0.0800115
0.0678843
0.0673159
0.0755715
0.0849817
0.103955
0.12351
0.145087
0.144726
0.146563
0.146156
0.147953
0.154447
0.169878
0.188272
0.211138
0.236869
0.267537
0.182774
0.0997011
0.064778
0.0594333
0.0626416
0.0714006
0.0805776
0.102025
0.128413
0.155306
0.182186
0.193227
0.204104
0.208235
0.209715
0.206111
0.209007
0.229589
0.265599
0.328868
0.158581
0.0886999
0.057909
0.0555527
0.0618672
0.0709138
0.079074
0.0979842
0.123541
0.152524
0.193164
0.217948
0.248067
0.272687
0.29443
0.300993
0.304271
0.312149
0.326335
0.392998
0.128038
0.0754705
0.0529332
0.0543425
0.0657306
0.0836958
0.0938197
0.109443
0.128757
0.15115
0.188572
0.223533
0.271142
0.315367
0.353812
0.395208
0.427086
0.460622
0.473096
0.5358
0.0957431
0.0602057
0.0487783
0.0572535
0.0803146
0.113478
0.134579
0.160813
0.178851
0.199752
0.209977
0.234226
0.286858
0.346782
0.404312
0.47213
0.540488
0.611089
0.656859
0.762266
0.0694016
0.0484975
0.0487222
0.0593983
0.0856874
0.128614
0.16428
0.21187
0.254178
0.298517
0.325189
0.359791
0.389879
0.43872
0.491792
0.563047
0.657291
0.771315
0.86537
1.04709
0.0506898
0.0420372
0.0473697
0.0589465
0.0842462
0.128669
0.166418
0.222522
0.298335
0.383647
0.456879
0.524819
0.596594
0.66709
0.716751
0.779347
0.856687
0.980596
1.13817
1.34991
0.0381022
0.0358257
0.0431939
0.0589602
0.0839412
0.124125
0.158166
0.207987
0.305631
0.433479
0.555464
0.666745
0.796364
0.89934
1.00476
1.11031
1.21545
1.32456
1.58426
1.57919
0.0312994
0.0305326
0.0356033
0.0628696
0.104954
0.163188
0.210662
0.258551
0.367196
0.516096
0.686743
0.845045
1.02018
1.1658
1.33808
1.52168
1.70215
1.85691
2.1408
2.07372
0.0295808
0.0276934
0.030074
0.0819994
0.17444
0.273467
0.374631
0.51711
0.711577
0.907098
1.09272
1.26204
1.4346
1.59532
1.79885
2.06184
2.32996
2.57969
2.91859
2.89581
0.0309569
0.0268849
0.0303967
0.127343
0.269151
0.394732
0.567014
0.810654
1.09885
1.40391
1.64761
1.8807
2.10772
2.33193
2.60803
2.92335
3.24529
3.58329
3.88588
4.15802
0.0342965
0.0333882
0.0507481
0.181506
0.333334
0.4965
0.774898
1.15099
1.57896
2.00939
2.35179
2.68178
3.00217
3.34271
3.76634
4.16608
4.54114
4.88743
5.09231
5.2551
0.0339359
0.0468628
0.0992434
0.240974
0.419856
0.851626
1.40413
1.9746
2.62508
3.16128
3.57013
3.95216
4.33452
4.75804
5.21096
5.4922
5.65903
5.73136
5.60546
5.43665
0.0277561
0.0699355
0.187116
0.47129
1.14415
2.03718
2.84502
3.64766
4.45656
4.96017
5.25736
5.57855
5.87225
6.1078
6.22184
6.11559
5.81187
5.06588
3.87319
2.63084
0.0221959
0.138558
0.665134
1.67967
2.98832
4.0478
4.91194
5.86658
6.63119
6.68143
6.55056
6.56703
6.5188
6.29908
5.60669
4.2834
2.92547
1.86368
1.42484
1.39008
0.445706
1.26991
2.83338
4.50256
5.84679
6.69222
7.47401
8.14682
7.95645
7.33658
6.73395
5.98977
4.7272
3.24987
1.99541
1.44107
1.38512
1.39292
1.39628
1.39923
3.23044
5.06018
6.79926
7.94328
8.65584
8.92493
9.1087
8.6675
6.32401
4.47403
3.31786
2.20234
1.51914
1.38284
1.39025
1.39481
1.39881
1.39997
1.40003
1.40002
9.68057
9.61283
9.55476
9.61945
9.77847
9.41546
8.33914
3.16072
0.913208
1.40001
1.40001
1.40001
1.40001
1.40001
1.40001
1.40001
1.40001
1.40001
1.40001
1.40001
9.58585
9.53449
9.39782
9.28525
9.60879
8.01058
3.57595
1.41413
1.40001
1.40001
1.40001
1.40001
1.40001
1.40001
1.40001
1.40001
1.40001
1.40001
1.40001
1.40001
9.39845
9.48619
9.36464
9.09912
8.73306
4.76118
1.47541
1.3987
1.40001
1.40001
1.40001
1.40001
1.40001
1.40001
1.40001
1.40001
1.40001
1.40001
1.40001
1.40001
9.22764
9.48081
9.50866
9.01919
6.60039
2.10696
1.38976
1.40017
1.4
1.40001
1.40001
1.40001
1.40001
1.40001
1.40001
1.40001
1.40001
1.40001
1.40001
1.40001
9.00561
9.46058
9.5228
8.80824
3.75283
1.36484
1.40053
1.4
1.40001
1.40001
1.40001
1.40001
1.40001
1.40001
1.40001
1.40001
1.40001
1.40001
1.40001
1.40001
8.8534
9.31788
9.37311
6.77153
1.91075
1.40001
1.40001
1.40001
1.40001
1.40001
1.40001
1.40001
1.40001
1.40001
1.40001
1.40001
1.40001
1.40001
1.40001
1.40001
8.81732
9.24375
9.11388
4.93593
1.39326
1.40001
1.40001
1.40001
1.40001
1.40001
1.40001
1.40001
1.40001
1.40001
1.40001
1.40001
1.40001
1.40001
1.40001
1.40001
9.00415
9.31035
8.54008
2.85923
1.40001
1.40001
1.40001
1.40001
1.40001
1.40001
1.40001
1.40001
1.40001
1.40001
1.40001
1.40001
1.40001
1.40001
1.40001
1.40001
9.62276
9.25719
6.80657
1.67508
1.40001
1.40001
1.40001
1.40001
1.40001
1.40001
1.40001
1.40001
1.40001
1.40001
1.40001
1.40001
1.40001
1.40001
1.40001
1.40001
10.0423
8.82573
4.8734
1.38239
1.40001
1.40001
1.40001
1.40001
1.40001
1.40001
1.40001
1.40001
1.40001
1.40001
1.40001
1.40001
1.40001
1.40001
1.40001
1.40001
10.3321
8.38752
3.16296
1.40001
1.40001
1.40001
1.40001
1.40001
1.40001
1.40001
1.40001
1.40001
1.40001
1.40001
1.40001
1.40001
1.40001
1.40001
1.40001
1.40001
10.4197
7.46205
2.23343
1.40001
1.40001
1.40001
1.40001
1.40001
1.40001
1.40001
1.40001
1.40001
1.40001
1.40001
1.40001
1.40001
1.40001
1.40001
1.40001
1.40001
10.4961
6.54264
1.62628
1.40001
1.40001
1.40001
1.40001
1.40001
1.40001
1.40001
1.40001
1.40001
1.40001
1.40001
1.40001
1.40001
1.40001
1.40001
1.40001
1.40001
10.2455
5.49709
1.40019
1.40001
1.40001
1.40001
1.40001
1.40001
1.40001
1.40001
1.40001
1.40001
1.40001
1.40001
1.40001
1.40001
1.40001
1.40001
1.40001
1.40001
9.85043
4.54528
1.40001
1.40001
1.40001
1.40001
1.40001
1.40001
1.40001
1.40001
1.40001
1.40001
1.40001
1.40001
1.40001
1.40001
1.40001
1.40001
1.40001
1.40001
9.65078
3.57945
1.40001
1.40001
1.40001
1.40001
1.40001
1.40001
1.40001
1.40001
1.40001
1.40001
1.40001
1.40001
1.40001
1.40001
1.40001
1.40001
1.40001
1.40001
9.35654
2.59985
1.40001
1.40001
1.40001
1.40001
1.40001
1.40001
1.40001
1.40001
1.40001
1.40001
1.40001
1.40001
1.40001
1.40001
1.40001
1.40001
1.40001
1.40001
8.69267
1.85193
1.40001
1.40001
1.40001
1.40001
1.40001
1.40001
1.40001
1.40001
1.40001
1.40001
1.40001
1.40001
1.40001
1.40001
1.40001
1.40001
1.40001
1.40001
7.9384
1.40618
1.40001
1.40001
1.40001
1.40001
1.40001
1.40001
1.40001
1.40001
1.40001
1.40001
1.40001
1.40001
1.40001
1.40001
1.40001
1.40001
1.40001
1.40001
6.475
1.40019
1.40001
1.40001
1.40001
1.40001
1.40001
1.40001
1.40001
1.40001
1.40001
1.40001
1.40001
1.40001
1.40001
1.40001
1.40001
1.40001
1.40001
1.40001
6.4663
1.4002
1.40001
1.40001
1.40001
1.40001
1.40001
1.40001
1.40001
1.40001
1.40001
1.40001
1.40001
1.40001
1.40001
1.40001
1.40001
1.40001
1.40001
1.40001
7.95895
1.40633
1.40001
1.40001
1.40001
1.40001
1.40001
1.40001
1.40001
1.40001
1.40001
1.40001
1.40001
1.40001
1.40001
1.40001
1.40001
1.40001
1.40001
1.40001
8.69512
1.8566
1.40001
1.40001
1.40001
1.40001
1.40001
1.40001
1.40001
1.40001
1.40001
1.40001
1.40001
1.40001
1.40001
1.40001
1.40001
1.40001
1.40001
1.40001
9.32284
2.58535
1.40001
1.40001
1.40001
1.40001
1.40001
1.40001
1.40001
1.40001
1.40001
1.40001
1.40001
1.40001
1.40001
1.40001
1.40001
1.40001
1.40001
1.40001
9.69136
3.55201
1.40001
1.40001
1.40001
1.40001
1.40001
1.40001
1.40001
1.40001
1.40001
1.40001
1.40001
1.40001
1.40001
1.40001
1.40001
1.40001
1.40001
1.40001
9.85494
4.57002
1.40001
1.40001
1.40001
1.40001
1.40001
1.40001
1.40001
1.40001
1.40001
1.40001
1.40001
1.40001
1.40001
1.40001
1.40001
1.40001
1.40001
1.40001
10.2225
5.51713
1.40009
1.40001
1.40001
1.40001
1.40001
1.40001
1.40001
1.40001
1.40001
1.40001
1.40001
1.40001
1.40001
1.40001
1.40001
1.40001
1.40001
1.40001
10.4978
6.54581
1.62082
1.40001
1.40001
1.40001
1.40001
1.40001
1.40001
1.40001
1.40001
1.40001
1.40001
1.40001
1.40001
1.40001
1.40001
1.40001
1.40001
1.40001
10.4237
7.44938
2.23492
1.40001
1.40001
1.40001
1.40001
1.40001
1.40001
1.40001
1.40001
1.40001
1.40001
1.40001
1.40001
1.40001
1.40001
1.40001
1.40001
1.40001
10.3364
8.3825
3.16291
1.40001
1.40001
1.40001
1.40001
1.40001
1.40001
1.40001
1.40001
1.40001
1.40001
1.40001
1.40001
1.40001
1.40001
1.40001
1.40001
1.40001
10.0579
8.83564
4.84997
1.38245
1.40001
1.40001
1.40001
1.40001
1.40001
1.40001
1.40001
1.40001
1.40001
1.40001
1.40001
1.40001
1.40001
1.40001
1.40001
1.40001
9.63357
9.22488
6.7756
1.68481
1.4
1.40001
1.40001
1.40001
1.40001
1.40001
1.40001
1.40001
1.40001
1.40001
1.40001
1.40001
1.40001
1.40001
1.40001
1.40001
9.03062
9.33587
8.54375
2.83941
1.40001
1.40001
1.40001
1.40001
1.40001
1.40001
1.40001
1.40001
1.40001
1.40001
1.40001
1.40001
1.40001
1.40001
1.40001
1.40001
8.83095
9.26183
9.1296
4.97135
1.39798
1.40001
1.40001
1.40001
1.40001
1.40001
1.40001
1.40001
1.40001
1.40001
1.40001
1.40001
1.40001
1.40001
1.40001
1.40001
8.86685
9.30681
9.33102
6.75961
1.93875
1.40001
1.40001
1.40001
1.40001
1.40001
1.40001
1.40001
1.40001
1.40001
1.40001
1.40001
1.40001
1.40001
1.40001
1.40001
9.00384
9.44085
9.50432
8.76384
3.71881
1.36548
1.40052
1.4
1.40001
1.40001
1.40001
1.40001
1.40001
1.40001
1.40001
1.40001
1.40001
1.40001
1.40001
1.40001
9.22566
9.48418
9.50891
9.09915
6.58443
2.08891
1.38946
1.40018
1.4
1.40001
1.40001
1.40001
1.40001
1.40001
1.40001
1.40001
1.40001
1.40001
1.40001
1.40001
9.3998
9.49038
9.37345
9.10932
8.71879
4.79997
1.48329
1.39852
1.40001
1.40001
1.40001
1.40001
1.40001
1.40001
1.40001
1.40001
1.40001
1.40001
1.40001
1.40001
9.57072
9.52562
9.37914
9.27532
9.59734
8.01441
3.59571
1.41531
1.40001
1.40001
1.40001
1.40001
1.40001
1.40001
1.40001
1.40001
1.40001
1.40001
1.40001
1.40001
9.66991
9.60346
9.53211
9.61323
9.79404
9.4133
8.32531
3.13803
0.919456
1.40001
1.40001
1.40001
1.40001
1.40001
1.40001
1.40001
1.40001
1.40001
1.40001
1.40001
3.23091
5.06674
6.80222
7.95286
8.68872
8.92469
9.10767
8.65904
6.31732
4.46919
3.31461
2.20232
1.52017
1.38285
1.39038
1.39486
1.39882
1.39997
1.40003
1.40002
0.433744
1.22269
2.79054
4.45386
5.85206
6.73434
7.51194
8.15689
7.96159
7.33701
6.7339
5.98752
4.72519
3.249
1.9951
1.44075
1.38511
1.39292
1.39627
1.39923
0.0419709
0.192538
0.67038
1.68906
2.97651
4.02686
4.9179
5.88476
6.65061
6.68752
6.55143
6.56354
6.51479
6.29596
5.60478
4.28337
2.92654
1.86435
1.42496
1.39009
0.0181455
0.0796361
0.208901
0.452303
1.10338
2.01734
2.83693
3.64293
4.45865
4.96382
5.25725
5.57623
5.86809
6.1049
6.22222
6.11583
5.81243
5.06787
3.87541
2.63105
0.0188729
0.0520241
0.131564
0.240283
0.441198
0.850232
1.38196
1.96141
2.61902
3.1577
3.56514
3.94796
4.331
4.75407
5.20736
5.49282
5.66435
5.73462
5.60778
5.43679
0.0185464
0.0298683
0.0908537
0.195886
0.329914
0.494324
0.784246
1.15863
1.59008
2.02131
2.36111
2.68809
3.00554
3.34276
3.76451
4.16684
4.54671
4.89315
5.09284
5.25349
0.0195163
0.0222373
0.0534915
0.130039
0.257148
0.396312
0.571947
0.816736
1.10828
1.4122
1.65475
1.88343
2.10642
2.32718
2.60237
2.92113
3.24858
3.58775
3.88796
4.1565
0.0243618
0.0244812
0.035107
0.0656
0.165781
0.275739
0.369423
0.511299
0.704268
0.899794
1.08569
1.25485
1.42822
1.59078
1.79862
2.06578
2.33435
2.58244
2.91753
2.89423
0.0323664
0.0302174
0.035411
0.049909
0.106643
0.163981
0.206172
0.255705
0.359651
0.50961
0.682501
0.8437
1.0218
1.16896
1.34199
1.52458
1.70259
1.85516
2.13921
2.07175
0.042915
0.0365769
0.0396096
0.0533679
0.0883044
0.120685
0.159099
0.211671
0.310534
0.437223
0.558062
0.66886
0.797474
0.900602
1.00449
1.10855
1.21247
1.32138
1.58465
1.58099
0.057819
0.0444625
0.0430518
0.0560517
0.0837056
0.123216
0.168492
0.224635
0.303513
0.386731
0.457567
0.52366
0.592852
0.662391
0.711168
0.773692
0.85358
0.981735
1.1399
1.35251
0.0782408
0.055459
0.0443825
0.0568314
0.0813306
0.123669
0.166126
0.212859
0.257083
0.298963
0.321927
0.353492
0.382938
0.433253
0.489793
0.564444
0.660213
0.774196
0.86705
1.046
0.106004
0.0680219
0.0475186
0.0567322
0.0733312
0.11022
0.138333
0.161243
0.179188
0.197817
0.20849
0.235059
0.290769
0.351053
0.408323
0.475908
0.542791
0.612128
0.656188
0.758481
0.140512
0.0823453
0.0525175
0.0550434
0.0604717
0.0795859
0.0965922
0.110836
0.129438
0.153036
0.192466
0.227636
0.274974
0.318877
0.356602
0.396515
0.4267
0.457951
0.470285
0.533132
0.170041
0.093987
0.0582116
0.0561507
0.058506
0.0675301
0.0795173
0.100919
0.126519
0.156322
0.196008
0.220128
0.249583
0.273484
0.294476
0.298811
0.301535
0.30888
0.324369
0.394168
0.188855
0.102916
0.065061
0.0594828
0.0598074
0.0682363
0.0812789
0.105981
0.131449
0.157783
0.182761
0.192839
0.202716
0.206065
0.20696
0.203707
0.207839
0.230834
0.267798
0.331172
0.198152
0.118043
0.0789294
0.0671215
0.0656307
0.0741897
0.0859311
0.107067
0.125381
0.144372
0.142148
0.143983
0.143824
0.146051
0.153785
0.170118
0.189124
0.212551
0.238675
0.268188
0.195974
0.12977
0.0983786
0.0813257
0.0773656
0.0818617
0.0841463
0.093509
0.0953366
0.0979942
0.0928447
0.0952542
0.0996648
0.11239
0.128721
0.145918
0.162284
0.173749
0.182993
0.185833
0.184848
0.148235
0.149676
0.142526
0.157188
0.187441
0.196983
0.203685
0.218525
0.237257
0.246026
0.23381
0.207175
0.211037
0.233851
0.268741
0.30592
0.318759
0.304548
0.274876
0.248351
0.342124
0.392194
0.418406
0.439272
0.496481
0.502054
0.518333
0.588406
0.629744
0.659064
0.662144
0.646137
0.666139
0.69467
0.698814
0.711876
0.720175
0.705551
0.69912
0.77652
0.892426
0.992861
1.09339
1.12129
1.17722
1.2106
1.25182
1.25335
1.2515
1.25727
1.28285
1.33126
1.34249
1.32124
1.30188
1.3065
1.33547
1.35682
1.34616
0.411903
0.577285
0.764307
0.927106
1.03765
1.1413
1.18708
1.2365
1.24657
1.2568
1.26605
1.28675
1.31598
1.32902
1.32279
1.31994
1.32517
1.33835
1.3432
1.33536
0.189799
0.221827
0.334157
0.469776
0.723998
0.958564
1.07043
1.17872
1.2398
1.27622
1.287
1.29084
1.29637
1.30786
1.31846
1.33021
1.33958
1.34439
1.33804
1.3301
0.267139
0.294184
0.334542
0.340022
0.35942
0.464185
0.73641
0.99471
1.15373
1.24508
1.31165
1.29671
1.28012
1.28946
1.31259
1.3372
1.34523
1.34282
1.32761
1.32717
0.339766
0.356513
0.383202
0.420633
0.41596
0.396394
0.421544
0.536118
0.829273
1.11478
1.25707
1.27458
1.26452
1.27146
1.29969
1.3403
1.34694
1.33519
1.31693
1.32601
0.433555
0.446745
0.475084
0.488614
0.469046
0.447772
0.451852
0.451619
0.498168
0.695171
1.01008
1.24028
1.25431
1.2678
1.28731
1.33313
1.34053
1.32483
1.31313
1.32986
0.547257
0.554667
0.545256
0.555335
0.547281
0.519834
0.513268
0.506445
0.499372
0.516392
0.631724
0.937192
1.21214
1.27175
1.29044
1.33231
1.32971
1.30449
1.3094
1.33612
0.728998
0.687626
0.626631
0.626926
0.622848
0.591021
0.569239
0.552391
0.541413
0.52994
0.540813
0.613995
0.89852
1.19006
1.30534
1.33832
1.31015
1.29398
1.3203
1.34195
0.956688
0.851773
0.723897
0.679671
0.687977
0.679742
0.646356
0.614876
0.58556
0.570042
0.55677
0.570071
0.62623
0.892566
1.2101
1.31915
1.2733
1.28499
1.33503
1.343
1.22563
1.06452
0.874605
0.785391
0.775625
0.77815
0.744314
0.700096
0.646903
0.601536
0.596807
0.5903
0.60295
0.657787
0.870248
1.16462
1.22243
1.29485
1.35092
1.3388
1.75049
1.4076
1.11365
0.889941
0.841919
0.86837
0.878031
0.843451
0.778204
0.711332
0.676247
0.657371
0.653755
0.660651
0.675244
0.790126
1.042
1.23748
1.30464
1.32685
2.80548
2.0895
1.69223
1.34266
1.09276
1.02357
1.01803
0.969625
0.869708
0.80521
0.766708
0.741478
0.724554
0.699131
0.668768
0.674179
0.733613
0.905128
1.10462
1.27125
3.48982
2.99457
2.40295
1.91066
1.54874
1.25068
1.11625
1.06872
0.986494
0.954234
0.940258
0.909017
0.851902
0.798582
0.75043
0.723221
0.733068
0.751906
0.810062
1.04294
3.29718
3.26951
3.10898
2.67232
2.20969
1.79849
1.43783
1.33564
1.23847
1.14634
1.07694
1.00848
0.94315
0.884581
0.8374
0.808645
0.794669
0.781851
0.762767
0.810391
2.34737
2.99639
3.09808
3.0561
2.86256
2.50438
2.06974
1.7311
1.50807
1.31791
1.19897
1.08387
1.02931
1.0091
0.984735
0.941165
0.910136
0.869779
0.801401
0.802449
1.55092
2.01158
2.58319
2.94916
2.945
2.89299
2.69924
2.34207
2.01665
1.71181
1.50904
1.35767
1.23874
1.18861
1.13152
1.03858
0.963793
0.917085
0.880336
0.853141
1.4063
1.46191
1.68916
2.16372
2.60218
2.81972
2.81202
2.74858
2.56406
2.26661
1.94027
1.71002
1.50155
1.35038
1.25111
1.1529
1.05858
1.039
1.03011
0.976806
1.40013
1.40155
1.41499
1.50897
1.77359
2.19244
2.5522
2.70485
2.69422
2.63665
2.4627
2.20538
1.94252
1.69052
1.51821
1.41607
1.30573
1.22745
1.16545
1.06597
1.40001
1.40002
1.40022
1.40346
1.42568
1.54158
1.80786
2.17571
2.46751
2.59834
2.58881
2.53655
2.40615
2.1752
1.92032
1.71801
1.54751
1.39372
1.28606
1.164
1.40001
1.40001
1.40001
1.40004
1.40044
1.40576
1.43367
1.5534
1.79924
2.13372
2.37201
2.49759
2.4933
2.45743
2.34569
2.15169
1.9389
1.7245
1.5717
1.39807
1.40001
1.40001
1.40001
1.40001
1.40001
1.40008
1.40065
1.40702
1.43655
1.54739
1.76879
2.07099
2.28666
2.40656
2.40457
2.37938
2.29778
2.1395
1.95556
1.6754
1.40001
1.40001
1.40001
1.40001
1.40001
1.40001
1.40001
1.4001
1.40078
1.40675
1.43657
1.52987
1.72604
1.98963
2.21134
2.32255
2.32257
2.30649
2.25764
2.04659
1.40001
1.40001
1.40001
1.40001
1.40001
1.40001
1.40001
1.40001
1.40001
1.4001
1.40086
1.40561
1.43186
1.5111
1.6761
1.91047
2.12234
2.24965
2.24968
2.21861
1.40001
1.40001
1.40001
1.40001
1.40001
1.40001
1.40001
1.40001
1.40001
1.40001
1.40001
1.40008
1.40077
1.40468
1.42437
1.4919
1.62624
1.83714
2.02205
2.16994
1.40001
1.40001
1.40001
1.40001
1.40001
1.40001
1.40001
1.40001
1.40001
1.40001
1.40001
1.40001
1.40001
1.40007
1.40058
1.40367
1.41936
1.47173
1.59054
1.94302
2.2597
3.42745
3.59767
2.90801
1.83098
1.45139
1.40262
1.40007
1.40001
1.40001
1.40001
1.40001
1.40001
1.40001
1.40001
3.25906
3.91694
3.52089
2.15256
1.46712
1.40113
1.40001
1.4
1.40001
1.40001
1.40001
1.40001
1.40001
1.40001
1.40001
4.07404
3.99528
2.76515
1.61287
1.40731
1.40008
1.40001
1.40001
1.40001
1.40001
1.40001
1.40001
1.40001
1.40001
1.40001
4.519
3.56128
1.9074
1.42665
1.40025
1.40001
1.40001
1.40001
1.40001
1.40001
1.40001
1.40001
1.40001
1.40001
1.40001
4.61876
2.35106
1.466
1.40075
1.40001
1.40001
1.40001
1.40001
1.40001
1.40001
1.40001
1.40001
1.40001
1.40001
1.40001
2.88726
1.50257
1.40068
1.4
1.4
1.4
1.40001
1.40001
1.40001
1.40001
1.40001
1.40001
1.40001
1.40001
1.40001
1.54214
1.40081
1.4
1.4
1.40001
1.40001
1.40001
1.40001
1.40001
1.40001
1.40001
1.40001
1.40001
1.40001
1.40001
1.3974
1.39982
1.4
1.40001
1.40001
1.40001
1.40001
1.40001
1.40001
1.40001
1.40001
1.40001
1.40001
1.40001
1.40001
1.39996
1.40001
1.40001
1.40001
1.40001
1.40001
1.40001
1.40001
1.40001
1.40001
1.40001
1.40001
1.40001
1.40001
1.40001
1.40001
1.40001
1.40001
1.40001
1.40001
1.40001
1.40001
1.40001
1.40001
1.40001
1.40001
1.40001
1.40001
1.40001
1.40001
1.40001
1.40001
1.40001
1.40001
1.40001
1.40001
1.40001
1.40001
1.40001
1.40001
1.40001
1.40001
1.40001
1.40001
1.40001
1.40001
1.40001
1.40001
1.40001
1.40001
1.40001
1.40001
1.40001
1.40001
1.40001
1.40001
1.40001
1.40001
1.40001
1.40001
1.40001
1.40001
1.40001
1.40001
1.40001
1.40001
1.40001
1.40001
1.40001
1.40001
1.40001
1.40001
1.40001
1.40001
1.40001
1.40001
1.40001
1.40001
1.40001
1.40001
1.40001
1.40001
1.40001
1.40001
1.40001
1.40001
1.40001
1.40001
1.40001
1.40001
1.40001
1.40001
1.40001
1.40001
1.40001
1.40001
1.40001
1.40001
1.40001
1.40001
1.40001
1.40001
1.40001
1.40001
1.40001
1.40001
1.40001
1.40001
1.40001
1.40001
1.40001
1.40001
1.40001
1.40001
1.40001
1.40001
1.40001
1.40001
1.40001
1.40001
1.40001
1.40001
1.40001
1.40001
1.40001
1.40001
1.40001
1.40001
1.40001
1.40001
1.40001
1.40001
1.40001
1.40001
1.40001
1.40001
1.40001
1.40001
1.40001
1.40001
1.40001
1.40001
1.40001
1.40001
1.40001
1.40001
1.40001
1.40001
1.40001
1.40001
1.40001
1.40001
1.40001
1.40001
1.40001
1.40001
1.40001
1.40001
1.40001
1.40001
1.40001
1.40001
1.40001
1.40001
1.40001
1.40001
1.40001
1.40001
1.40001
1.40001
1.40001
1.40001
1.40001
1.40001
1.40001
1.40001
1.40001
1.40001
1.40001
1.40001
1.40001
1.40001
1.40001
1.40001
1.40001
1.40001
1.40001
1.40001
1.40001
1.40001
1.40001
1.40001
1.40001
1.40001
1.40001
1.40001
1.40001
1.40001
1.40001
1.40001
1.40001
1.40001
1.40001
1.40001
1.40001
1.40001
1.40001
1.40001
1.40001
1.40001
1.40001
1.40001
1.40001
1.40001
1.40001
1.40001
1.40001
1.40001
1.40001
1.40001
1.40001
1.40001
1.40001
1.40001
1.40001
1.40001
1.40001
1.40001
1.40001
1.40001
1.40001
1.40001
1.40001
1.40001
1.40001
1.40001
1.40001
1.40001
1.40001
1.40001
1.40001
1.40001
1.40001
1.40001
1.40001
1.40001
1.40001
1.40001
1.40001
1.40001
1.40001
1.40001
1.40001
1.40001
1.40001
1.40001
1.40001
1.40001
1.40001
1.40001
1.40001
1.40001
1.40001
1.40001
1.40001
1.40001
1.40001
1.40001
1.40001
1.40001
1.40001
1.40001
1.40001
1.40001
1.40001
1.40001
1.40001
1.40001
1.40001
1.40001
1.40001
1.40001
1.40001
1.40001
1.40001
1.40001
1.40001
1.40001
1.40001
1.40001
1.40001
1.40001
1.40001
1.40001
1.40001
1.40001
1.40001
1.40001
1.40001
1.40001
1.40001
1.40001
1.40001
1.40001
1.40001
1.40001
1.40001
1.40001
1.40001
1.40001
1.40001
1.40001
1.40001
1.40001
1.40001
1.40001
1.40001
1.40001
1.40001
1.40001
1.40001
1.40001
1.40001
1.40001
1.40001
1.40001
1.40001
1.40001
1.40001
1.40001
1.40001
1.40001
1.40001
1.40001
1.40001
1.40001
1.40001
1.40001
1.40001
1.40001
1.40001
1.40001
1.40001
1.40001
1.40001
1.40001
1.40001
1.40001
1.40001
1.40001
1.40001
1.40001
1.40001
1.40001
1.40001
1.40001
1.40001
1.40001
1.40001
1.40001
1.40001
1.40001
1.40001
1.40001
1.40001
1.40001
1.40001
1.40001
1.40001
1.40001
1.40001
1.40001
1.40001
1.40001
1.40001
1.40001
1.40001
1.40001
1.40001
1.40001
1.40001
1.40001
1.40001
1.40001
1.40001
1.40001
1.40001
1.40001
1.40001
1.40001
1.40001
1.40001
1.40001
1.40001
1.40001
1.40001
1.40001
1.40001
1.40001
1.40001
1.40001
1.40001
1.40001
1.40001
1.40001
1.40001
1.40001
1.40001
1.40001
1.40001
1.40001
1.40001
1.40001
1.40001
1.40001
1.40001
1.40001
1.40001
1.40001
1.40001
1.40001
1.40001
1.40001
1.40001
1.40001
1.40001
1.40001
1.40001
1.40001
1.40001
1.40001
1.40001
1.40001
1.40001
1.40001
1.40001
1.40001
1.40001
1.40001
1.40001
1.40001
1.40001
1.40001
1.40001
1.40001
1.40001
1.40001
1.40001
1.40001
1.40001
1.40001
1.40001
1.40001
1.40001
1.40001
1.40001
1.40001
1.40001
1.40001
1.40001
1.40001
1.40001
1.40001
1.40001
1.40001
1.40001
1.40001
1.40001
1.40001
1.40001
1.40001
1.40001
1.40001
1.40001
1.40001
1.40001
1.40001
1.40001
1.40001
1.40001
1.40001
1.40001
1.40001
1.40001
1.40001
1.40001
1.40001
1.40001
1.40001
1.40001
1.40001
1.40001
1.40001
1.40001
1.40001
1.40001
1.40001
1.40001
1.40001
1.40001
1.40001
1.40001
1.40001
1.40001
1.40001
1.40001
1.40001
1.40001
1.40001
1.40001
1.40001
1.40001
1.40001
1.40001
1.40001
1.40001
1.40001
1.40001
1.40001
1.40001
1.40001
1.40001
1.40001
1.40001
1.40001
1.40001
1.40001
1.40001
1.40001
1.40001
1.40001
1.40001
1.40001
1.40001
1.40001
1.40001
1.40001
1.40001
1.40001
1.40001
1.40001
1.40001
1.40001
1.40001
1.40001
1.40001
1.40001
1.40001
1.40001
1.40001
1.40001
1.40001
1.40001
1.40001
1.40001
1.40001
1.40001
1.40001
1.40001
1.40001
1.40001
1.40001
1.40001
1.40001
1.40001
1.40001
1.40001
1.40001
1.40001
1.40001
1.40001
1.40001
1.40001
1.40001
1.40001
1.40001
1.40001
1.40001
1.40001
1.40001
1.40001
1.40001
1.40001
1.40001
1.40001
1.40001
1.40001
1.40001
1.40001
1.40001
1.40001
1.40001
1.40001
1.40001
1.40001
1.40001
1.40001
1.40001
1.40001
1.40001
1.40001
1.40001
1.40001
1.40001
1.40001
1.40001
1.40001
1.40001
1.40001
1.40001
1.40001
1.40001
1.40001
1.40001
1.40001
1.40001
1.40001
1.40001
1.40001
1.40001
1.40001
1.40001
1.40001
1.40001
1.40001
1.40001
1.40001
1.40001
1.40001
1.40001
1.40001
1.40001
1.40001
1.40001
1.40001
1.40001
1.40001
1.40001
1.40001
1.40001
1.40001
1.40001
1.40001
1.40001
1.40001
1.40001
1.40001
1.40001
1.40001
1.40001
1.40001
1.40001
1.40001
1.40001
1.40001
1.40001
1.40001
1.40001
1.40001
1.40001
1.40001
1.40001
1.40001
1.40001
1.40001
1.40001
1.40001
1.40001
1.40001
1.40001
1.40001
1.40001
1.40001
1.40001
1.40001
1.40001
1.40001
1.40001
1.40001
1.40001
1.40001
1.40001
1.40001
1.40001
1.40001
1.40001
1.40001
1.40001
1.40001
1.40001
1.40001
1.40001
1.40001
1.40001
1.40001
1.40001
1.40001
1.40001
1.40001
1.40001
1.40001
1.40001
1.40001
1.40001
1.40001
1.40001
1.40001
1.40001
1.40001
1.40001
1.40001
1.40001
1.40001
1.40001
1.40001
1.40001
1.40001
1.40001
1.40001
1.40001
1.40001
1.40001
1.40001
1.40001
1.40001
1.40001
1.40001
1.40001
1.40001
1.40001
1.40001
1.40001
1.40001
1.40001
1.40001
1.40001
1.40001
1.40001
1.40001
1.40001
1.40001
1.40001
1.40001
1.40001
1.40001
1.40001
1.40001
1.40001
1.40001
1.40001
1.40001
1.40001
1.40001
1.40001
1.40001
1.40001
1.40001
1.40001
1.40001
1.40001
1.40001
1.40001
1.40001
1.40001
1.40001
1.40001
1.40001
1.40001
1.40001
1.40001
1.40001
1.40001
1.40001
1.40001
1.40001
1.40001
1.40001
1.40001
1.40001
1.40001
1.40001
1.40001
1.40001
1.40001
1.40001
1.40001
1.40001
1.40001
1.40001
1.40001
1.40001
1.40001
1.40001
1.40001
1.40001
1.40001
1.40001
1.40001
1.40001
1.40001
1.40001
1.40001
1.40001
1.40001
1.40001
1.40001
1.40001
1.40001
1.40001
1.40001
1.40001
1.40001
1.40001
1.40001
1.40001
1.40001
1.40001
1.40001
1.40001
1.40001
1.40001
1.40001
1.40001
1.40001
1.40001
1.40001
1.40001
1.40001
1.40001
1.40001
1.40001
1.40001
1.40001
1.40001
1.40001
1.40001
1.40001
1.40001
1.40001
1.40001
1.40001
1.40001
1.40001
1.40001
1.40001
1.39996
1.40001
1.40001
1.40001
1.40001
1.40001
1.40001
1.40001
1.40001
1.40001
1.40001
1.40001
1.40001
1.40001
1.40001
1.3974
1.39982
1.4
1.40001
1.40001
1.40001
1.40001
1.40001
1.40001
1.40001
1.40001
1.40001
1.40001
1.40001
1.40001
1.54196
1.40081
1.4
1.4
1.40001
1.40001
1.40001
1.40001
1.40001
1.40001
1.40001
1.40001
1.40001
1.40001
1.40001
2.88644
1.50248
1.40067
1.4
1.4
1.4
1.40001
1.40001
1.40001
1.40001
1.40001
1.40001
1.40001
1.40001
1.40001
4.61747
2.35117
1.4661
1.40075
1.40001
1.40001
1.40001
1.40001
1.40001
1.40001
1.40001
1.40001
1.40001
1.40001
1.40001
4.51803
3.56079
1.90751
1.42665
1.40025
1.40001
1.40001
1.40001
1.40001
1.40001
1.40001
1.40001
1.40001
1.40001
1.40001
4.07329
3.99504
2.76552
1.613
1.40732
1.40008
1.40001
1.40001
1.40001
1.40001
1.40001
1.40001
1.40001
1.40001
1.40001
3.25768
3.91697
3.52123
2.15279
1.46712
1.40113
1.40001
1.4
1.40001
1.40001
1.40001
1.40001
1.40001
1.40001
1.40001
2.25994
3.42776
3.59824
2.90792
1.83081
1.4514
1.40262
1.40007
1.40001
1.40001
1.40001
1.40001
1.40001
1.40001
1.40001
1.7458
2.80245
3.48911
3.298
2.34732
1.55035
1.40627
1.40013
1.40001
1.40001
1.40001
1.40001
1.40001
1.40001
1.40001
1.40978
2.09321
2.99146
3.26894
2.9998
2.01303
1.46215
1.40156
1.40002
1.40001
1.40001
1.40001
1.40001
1.40001
1.40001
1.1105
1.69211
2.41027
3.10902
3.09749
2.5843
1.68942
1.41494
1.40021
1.40001
1.40001
1.40001
1.40001
1.40001
1.40001
0.886643
1.33589
1.90736
2.68033
3.05444
2.94874
2.16426
1.5092
1.40348
1.40004
1.40001
1.40001
1.40001
1.40001
1.40001
0.843156
1.10236
1.5346
2.20358
2.86118
2.94434
2.60162
1.77387
1.42575
1.40044
1.40001
1.40001
1.40001
1.40001
1.40001
0.864705
1.04545
1.25341
1.77329
2.50004
2.89194
2.81898
2.19327
1.54133
1.40569
1.40008
1.40001
1.40001
1.40001
1.40001
0.862483
1.02343
1.13844
1.47059
2.06193
2.6951
2.81193
2.54997
1.8071
1.43383
1.40065
1.40001
1.40001
1.40001
1.40001
0.824576
0.958431
1.06399
1.34425
1.73938
2.35071
2.74845
2.70429
2.17531
1.55253
1.40694
1.4001
1.40001
1.40001
1.40001
0.770679
0.8601
0.973555
1.2311
1.5078
2.01882
2.56567
2.69456
2.46877
1.79915
1.43636
1.40078
1.40001
1.40001
1.40001
0.707768
0.799018
0.954886
1.15546
1.32058
1.69989
2.26685
2.63707
2.59735
2.13195
1.54773
1.40681
1.4001
1.40001
1.40001
0.668599
0.756387
0.930734
1.07697
1.20175
1.50644
1.94965
2.46329
2.58771
2.37278
1.76835
1.43634
1.40085
1.40001
1.40001
0.657596
0.745442
0.897691
0.995525
1.09309
1.36416
1.70921
2.21014
2.53688
2.49863
2.07082
1.5298
1.4056
1.40008
1.40001
0.654609
0.736043
0.853592
0.927272
1.04019
1.26227
1.49371
1.94224
2.40573
2.49393
2.28609
1.72612
1.43193
1.40077
1.40001
0.659722
0.71012
0.804353
0.873985
1.01643
1.2032
1.34841
1.68932
2.17287
2.45737
2.40743
1.99041
1.511
1.40467
1.40007
0.673931
0.669498
0.754193
0.825577
0.982567
1.1301
1.24619
1.52186
1.92285
2.3458
2.40551
2.21094
1.6762
1.4244
1.40058
0.792652
0.67706
0.726414
0.802827
0.94097
1.0332
1.13746
1.41172
1.71954
2.1523
2.38032
2.3229
1.91078
1.49191
1.40368
1.04887
0.739378
0.736867
0.788597
0.908265
0.967499
1.06664
1.29981
1.54405
1.93939
2.29837
2.32274
2.1227
1.62649
1.41941
1.24106
0.909868
0.755594
0.777297
0.868794
0.920517
1.03959
1.22785
1.39153
1.72495
2.13911
2.30664
2.24924
1.83726
1.47177
1.31276
1.1064
0.809018
0.761237
0.799092
0.883937
1.03026
1.16825
1.28529
1.57083
1.95473
2.25764
2.24952
2.022
1.59048
1.32773
1.26926
1.03958
0.808305
0.798092
0.853251
0.980843
1.0677
1.16318
1.39627
1.67466
2.04641
2.2186
2.16992
1.9431
1.23033
1.06998
0.866676
0.774872
0.771858
0.768685
0.72022
0.681877
0.658638
0.619656
0.606466
0.597492
0.604177
0.649785
0.868216
1.17202
1.22808
1.29916
1.35864
1.34507
0.961345
0.853816
0.71334
0.679068
0.695623
0.685547
0.646688
0.6268
0.60846
0.582482
0.563727
0.569278
0.625498
0.87789
1.19822
1.32289
1.27969
1.29166
1.34226
1.34756
0.730121
0.68694
0.619505
0.619432
0.620428
0.594967
0.573402
0.561371
0.551831
0.533529
0.538323
0.611772
0.904395
1.17151
1.2792
1.33833
1.31645
1.29863
1.32433
1.34442
0.551521
0.546175
0.548482
0.562979
0.554728
0.524839
0.518882
0.511795
0.501933
0.516844
0.636226
0.940577
1.19816
1.27789
1.29411
1.3376
1.33698
1.30948
1.30937
1.33211
0.434022
0.448148
0.466613
0.486619
0.469332
0.452101