/*--------------------------------*- C++ -*----------------------------------*\
  =========                 |
  \\      /  F ield         | OpenFOAM: The Open Source CFD Toolbox
   \\    /   O peration     | Website:  https://openfoam.org
    \\  /    A nd           | Version:  7
     \\/     M anipulation  |
\*---------------------------------------------------------------------------*/
FoamFile
{
    version     2.0;
    format      ascii;
    class       volScalarField;
    location    "9.6";
    object      T;
}
// * * * * * * * * * * * * * * * * * * * * * * * * * * * * * * * * * * * * * //

dimensions      [0 0 0 1 0 0 0];

internalField   nonuniform List<scalar> 
3700
(
100.653
100.765
100.839
100.859
100.827
100.811
100.859
100.984
101.1
101.115
101.109
101.123
101.147
101.144
101.126
101.076
101.061
101.08
101.087
101.085
100.249
100.171
100.216
100.294
100.231
100.201
100.343
100.574
100.626
100.573
100.505
100.535
100.614
100.612
100.539
100.396
100.38
100.416
100.505
100.522
100.28
100.165
100.083
100.02
99.9996
99.9944
99.9874
100.007
99.9905
99.9785
99.9419
99.9334
99.9386
99.9655
99.9963
100.023
100.037
100.044
100.047
100.036
100.307
100.159
100.027
99.9594
99.9499
99.9732
99.9984
100.041
100.065
100.08
100.059
100.034
100.004
99.986
99.9906
100.022
100.045
100.066
100.084
100.103
100.309
100.108
99.9376
99.8931
99.9002
99.9219
99.9566
100.026
100.076
100.107
100.122
100.117
100.111
100.095
100.074
100.048
100.042
100.06
100.095
100.141
100.283
100.064
99.8858
99.859
99.8816
99.9051
99.9298
99.9883
100.041
100.096
100.135
100.142
100.16
100.161
100.158
100.149
100.134
100.127
100.125
100.163
100.223
100.016
99.856
99.8487
99.8771
99.908
99.9275
99.979
100.027
100.076
100.114
100.138
100.17
100.19
100.199
100.212
100.216
100.221
100.22
100.24
100.124
99.9538
99.8445
99.8664
99.9411
99.999
100.014
100.042
100.058
100.095
100.11
100.129
100.162
100.195
100.22
100.245
100.268
100.284
100.291
100.326
100.005
99.8904
99.8627
99.9012
100.005
100.083
100.119
100.151
100.172
100.195
100.2
100.212
100.218
100.231
100.247
100.271
100.301
100.332
100.351
100.395
99.8911
99.8455
99.8783
99.9215
100.042
100.134
100.165
100.195
100.233
100.27
100.293
100.306
100.326
100.337
100.342
100.348
100.358
100.381
100.412
100.453
99.7975
99.7921
99.8818
99.9625
100.104
100.182
100.186
100.199
100.252
100.303
100.339
100.362
100.39
100.402
100.417
100.429
100.443
100.457
100.494
100.492
99.7363
99.7402
99.858
100.043
100.164
100.23
100.236
100.258
100.302
100.339
100.375
100.403
100.433
100.451
100.476
100.5
100.522
100.54
100.576
100.566
99.7163
99.7123
99.8406
100.129
100.229
100.289
100.317
100.376
100.429
100.468
100.484
100.495
100.504
100.515
100.536
100.567
100.598
100.624
100.656
100.654
99.7226
99.7092
99.8846
100.207
100.301
100.349
100.405
100.466
100.518
100.556
100.568
100.581
100.593
100.609
100.633
100.659
100.684
100.708
100.724
100.734
99.7395
99.7543
99.9833
100.239
100.332
100.391
100.467
100.535
100.589
100.623
100.638
100.654
100.672
100.697
100.729
100.755
100.774
100.784
100.78
100.774
99.6866
99.7949
100.063
100.257
100.358
100.513
100.596
100.645
100.691
100.712
100.726
100.742
100.762
100.789
100.812
100.824
100.822
100.815
100.789
100.745
99.5882
99.856
100.194
100.404
100.598
100.695
100.737
100.772
100.799
100.813
100.822
100.835
100.85
100.855
100.855
100.844
100.793
100.678
100.514
100.276
99.4653
99.9917
100.443
100.661
100.771
100.811
100.835
100.861
100.877
100.883
100.883
100.882
100.881
100.857
100.771
100.624
100.362
100.102
100.005
99.9978
100.113
100.529
100.742
100.842
100.887
100.901
100.915
100.922
100.918
100.91
100.896
100.841
100.725
100.468
100.147
100.01
99.9966
99.9985
99.9992
99.9998
100.697
100.837
100.914
100.95
100.96
100.951
100.951
100.928
100.847
100.768
100.583
100.24
100.032
99.9959
99.9978
99.9989
99.9998
100
100
100
100.999
100.997
100.994
100.99
100.981
100.946
100.876
100.443
99.853
100
100
100
100
100
100
100
100
100
100
100
100.998
100.996
100.989
100.977
100.964
100.856
100.475
100.01
100
100
100
100
100
100
100
100
100
100
100
100
100.989
100.992
100.986
100.966
100.929
100.653
100.045
99.9992
100
100
100
100
100
100
100
100
100
100
100
100
100.983
100.989
100.987
100.953
100.802
100.273
99.9959
100
100
100
100
100
100
100
100
100
100
100
100
100
100.977
100.987
100.982
100.925
100.556
99.9922
100
100
100
100
100
100
100
100
100
100
100
100
100
100
100.974
100.984
100.976
100.821
100.227
100
100
100
100
100
100
100
100
100
100
100
100
100
100
100
100.974
100.982
100.967
100.707
100.01
100
100
100
100
100
100
100
100
100
100
100
100
100
100
100
100.986
100.984
100.93
100.473
99.9983
100
100
100
100
100
100
100
100
100
100
100
100
100
100
100
101.003
100.973
100.825
100.148
100
100
100
100
100
100
100
100
100
100
100
100
100
100
100
100
101.014
100.941
100.683
99.9964
100
100
100
100
100
100
100
100
100
100
100
100
100
100
100
100
101.023
100.907
100.498
100
100
100
100
100
100
100
100
100
100
100
100
100
100
100
100
100
101.027
100.85
100.316
100
100
100
100
100
100
100
100
100
100
100
100
100
100
100
100
100
101.031
100.791
100.111
100
100
100
100
100
100
100
100
100
100
100
100
100
100
100
100
100
101.029
100.727
100
100
100
100
100
100
100
100
100
100
100
100
100
100
100
100
100
100
101.015
100.677
100
100
100
100
100
100
100
100
100
100
100
100
100
100
100
100
100
100
100.992
100.586
100
100
100
100
100
100
100
100
100
100
100
100
100
100
100
100
100
100
100.95
100.428
100
100
100
100
100
100
100
100
100
100
100
100
100
100
100
100
100
100
100.898
100.209
100
100
100
100
100
100
100
100
100
100
100
100
100
100
100
100
100
100
100.863
100.004
100
100
100
100
100
100
100
100
100
100
100
100
100
100
100
100
100
100
100.815
100
100
100
100
100
100
100
100
100
100
100
100
100
100
100
100
100
100
100
100.815
100
100
100
100
100
100
100
100
100
100
100
100
100
100
100
100
100
100
100
100.865
100.004
100
100
100
100
100
100
100
100
100
100
100
100
100
100
100
100
100
100
100.899
100.212
100
100
100
100
100
100
100
100
100
100
100
100
100
100
100
100
100
100
100.947
100.423
100
100
100
100
100
100
100
100
100
100
100
100
100
100
100
100
100
100
100.991
100.581
100
100
100
100
100
100
100
100
100
100
100
100
100
100
100
100
100
100
101.014
100.681
100
100
100
100
100
100
100
100
100
100
100
100
100
100
100
100
100
100
101.031
100.73
100
100
100
100
100
100
100
100
100
100
100
100
100
100
100
100
100
100
101.031
100.791
100.108
100
100
100
100
100
100
100
100
100
100
100
100
100
100
100
100
100
101.027
100.849
100.316
100
100
100
100
100
100
100
100
100
100
100
100
100
100
100
100
100
101.022
100.906
100.499
100
100
100
100
100
100
100
100
100
100
100
100
100
100
100
100
100
101.014
100.941
100.681
99.9964
100
100
100
100
100
100
100
100
100
100
100
100
100
100
100
100
101.003
100.97
100.822
100.151
100
100
100
100
100
100
100
100
100
100
100
100
100
100
100
100
100.986
100.985
100.93
100.468
99.9977
100
100
100
100
100
100
100
100
100
100
100
100
100
100
100
100.975
100.984
100.969
100.711
100.011
100
100
100
100
100
100
100
100
100
100
100
100
100
100
100
100.975
100.984
100.976
100.823
100.238
100
100
100
100
100
100
100
100
100
100
100
100
100
100
100
100.977
100.987
100.981
100.922
100.552
99.9922
100
100
100
100
100
100
100
100
100
100
100
100
100
100
100.983
100.989
100.986
100.954
100.798
100.264
99.9959
100
100
100
100
100
100
100
100
100
100
100
100
100
100.989
100.991
100.985
100.966
100.928
100.657
100.049
99.9992
100
100
100
100
100
100
100
100
100
100
100
100
100.997
100.995
100.987
100.976
100.965
100.86
100.48
100.01
100
100
100
100
100
100
100
100
100
100
100
100
100.999
100.997
100.994
100.99
100.982
100.947
100.874
100.438
99.8552
100
100
100
100
100
100
100
100
100
100
100
100.697
100.838
100.914
100.951
100.961
100.952
100.951
100.927
100.847
100.768
100.583
100.241
100.032
99.9959
99.9978
99.9989
99.9998
100
100
100
100.122
100.527
100.741
100.84
100.887
100.903
100.917
100.921
100.918
100.909
100.896
100.842
100.726
100.469
100.146
100.01
99.9966
99.9985
99.9992
99.9998
99.479
100.063
100.444
100.664
100.772
100.811
100.836
100.861
100.876
100.883
100.883
100.883
100.881
100.857
100.771
100.623
100.362
100.102
100.005
99.9978
99.585
99.8727
100.175
100.378
100.58
100.691
100.737
100.772
100.798
100.812
100.822
100.836
100.85
100.855
100.855
100.844
100.793
100.678
100.515
100.276
99.6311
99.8389
100.069
100.227
100.365
100.513
100.593
100.644
100.69
100.711
100.726
100.742
100.763
100.789
100.812
100.824
100.822
100.815
100.789
100.745
99.5921
99.7932
100.013
100.197
100.311
100.388
100.474
100.54
100.592
100.625
100.64
100.656
100.673
100.697
100.728
100.755
100.774
100.785
100.78
100.774
99.6131
99.7307
99.932
100.134
100.276
100.352
100.41
100.471
100.521
100.558
100.571
100.583
100.593
100.608
100.631
100.658
100.684
100.708
100.725
100.734
99.698
99.7367
99.8402
100.039
100.221
100.292
100.318
100.377
100.429
100.469
100.484
100.494
100.503
100.514
100.535
100.567
100.599
100.625
100.656
100.654
99.7824
99.7702
99.8039
99.9758
100.161
100.222
100.23
100.257
100.3
100.338
100.375
100.403
100.433
100.451
100.476
100.5
100.522
100.541
100.576
100.565
99.8561
99.7961
99.8049
99.9376
100.087
100.158
100.175
100.197
100.253
100.304
100.339
100.361
100.389
100.401
100.416
100.429
100.443
100.457
100.494
100.492
99.9382
99.8333
99.7995
99.8935
100.007
100.109
100.159
100.191
100.233
100.268
100.29
100.302
100.321
100.333
100.339
100.345
100.357
100.382
100.413
100.453
100.034
99.8957
99.7944
99.8635
99.9663
100.069
100.118
100.149
100.17
100.191
100.194
100.203
100.208
100.224
100.246
100.272
100.304
100.334
100.351
100.394
100.147
99.9699
99.813
99.8501
99.9023
99.9952
100.025
100.046
100.061
100.093
100.108
100.129
100.166
100.199
100.223
100.248
100.27
100.284
100.291
100.324
100.264
100.044
99.8513
99.8485
99.859
99.9027
99.9426
99.993
100.035
100.079
100.117
100.141
100.174
100.194
100.203
100.213
100.216
100.218
100.218
100.236
100.329
100.099
99.8965
99.8634
99.8675
99.9007
99.9441
100.004
100.052
100.104
100.137
100.144
100.163
100.163
100.158
100.147
100.13
100.123
100.122
100.163
100.338
100.145
99.9563
99.9028
99.8945
99.921
99.9719
100.045
100.085
100.11
100.122
100.116
100.11
100.092
100.07
100.044
100.041
100.062
100.098
100.143
100.318
100.171
100.043
99.9745
99.9603
99.9857
100.013
100.053
100.07
100.077
100.053
100.028
99.9981
99.9831
99.9915
100.025
100.046
100.068
100.086
100.104
100.253
100.162
100.099
100.04
100.018
100.014
99.9984
100.01
99.9886
99.9692
99.9349
99.9291
99.9365
99.9662
99.9994
100.026
100.038
100.045
100.048
100.036
100.237
100.223
100.27
100.265
100.39
100.546
100.56
100.537
100.6
100.71
100.721
100.666
100.492
100.417
100.451
100.518
100.56
100.557
100.509
100.402
100.664
100.828
100.833
100.814
100.85
100.946
100.969
100.995
101.085
101.156
101.159
101.145
101.097
101.075
101.097
101.127
101.126
101.119
101.095
101.047
101.058
101.028
101.009
100.988
100.956
100.935
100.922
100.917
100.901
100.876
100.862
100.857
100.855
100.851
100.838
100.823
100.818
100.819
100.82
100.81
100.605
100.639
100.703
100.722
100.754
100.789
100.808
100.816
100.816
100.807
100.795
100.793
100.796
100.802
100.801
100.795
100.792
100.791
100.79
100.785
100.021
100.055
100.176
100.275
100.417
100.516
100.578
100.617
100.651
100.671
100.67
100.67
100.678
100.694
100.708
100.713
100.714
100.715
100.717
100.72
100.077
100.088
100.105
100.098
100.116
100.205
100.355
100.432
100.492
100.542
100.56
100.558
100.563
100.578
100.597
100.607
100.612
100.616
100.62
100.631
100.133
100.133
100.133
100.144
100.136
100.122
100.147
100.223
100.353
100.449
100.481
100.491
100.493
100.501
100.515
100.527
100.532
100.535
100.538
100.549
100.184
100.177
100.182
100.184
100.172
100.161
100.161
100.158
100.184
100.286
100.395
100.458
100.461
100.464
100.47
100.481
100.485
100.485
100.485
100.494
100.235
100.227
100.213
100.217
100.213
100.204
100.199
100.189
100.176
100.18
100.239
100.361
100.437
100.445
100.449
100.459
100.458
100.454
100.456
100.464
100.304
100.279
100.251
100.251
100.249
100.238
100.229
100.213
100.195
100.175
100.179
100.214
100.332
100.41
100.436
100.445
100.438
100.434
100.44
100.445
100.37
100.338
100.295
100.276
100.276
100.272
100.26
100.242
100.215
100.193
100.176
100.181
100.202
100.307
100.397
100.423
100.414
100.417
100.428
100.43
100.436
100.403
100.35
100.316
100.303
100.301
100.289
100.27
100.24
100.205
100.191
100.179
100.182
100.198
100.277
100.364
100.384
100.404
100.416
100.413
100.532
100.469
100.405
100.341
100.313
100.318
100.317
100.303
100.276
100.242
100.217
100.2
100.19
100.185
100.177
100.223
100.311
100.362
100.373
100.379
100.616
100.544
100.49
100.433
100.373
100.342
100.333
100.314
100.284
100.258
100.236
100.217
100.201
100.181
100.16
100.152
100.169
100.226
100.278
100.321
100.608
100.584
100.539
100.485
100.434
100.373
100.331
100.314
100.294
100.281
100.267
100.246
100.219
100.193
100.168
100.148
100.141
100.134
100.147
100.221
100.489
100.546
100.54
100.514
100.476
100.426
100.366
100.341
100.318
100.293
100.268
100.241
100.215
100.191
100.171
100.151
100.133
100.117
100.1
100.106
100.25
100.377
100.446
100.483
100.474
100.45
100.409
100.363
100.326
100.288
100.258
100.226
100.206
100.194
100.18
100.16
100.141
100.118
100.092
100.073
100.043
100.145
100.254
100.337
100.387
100.415
100.406
100.379
100.345
100.304
100.271
100.241
100.213
100.195
100.176
100.147
100.12
100.1
100.083
100.063
100.002
100.015
100.066
100.155
100.233
100.289
100.33
100.349
100.34
100.316
100.28
100.248
100.214
100.185
100.161
100.136
100.109
100.099
100.091
100.067
100
100
100.003
100.025
100.077
100.148
100.209
100.251
100.28
100.291
100.281
100.259
100.229
100.196
100.168
100.148
100.124
100.105
100.087
100.056
100
100
100
100.001
100.006
100.031
100.081
100.139
100.187
100.217
100.24
100.244
100.237
100.217
100.186
100.158
100.131
100.102
100.079
100.048
100
100
100
100
100
100.001
100.007
100.033
100.078
100.129
100.168
100.191
100.211
100.21
100.202
100.183
100.157
100.127
100.101
100.069
100
100
100
100
100
100
100
100.002
100.008
100.032
100.073
100.119
100.154
100.173
100.186
100.184
100.177
100.161
100.137
100.098
100
100
100
100
100
100
100
100
100
100.002
100.008
100.028
100.065
100.107
100.142
100.159
100.168
100.166
100.162
100.138
100
100
100
100
100
100
100
100
100
100
100
100.001
100.007
100.024
100.056
100.096
100.129
100.147
100.154
100.15
100
100
100
100
100
100
100
100
100
100
100
100
100
100.001
100.005
100.02
100.047
100.085
100.114
100.138
100
100
100
100
100
100
100
100
100
100
100
100
100
100
100
100.001
100.004
100.016
100.041
100.105
100.596
100.653
100.61
100.415
100.142
100.017
100.001
100
100
100
100
100
100
100
100
100.671
100.662
100.518
100.217
100.022
100
100
100
100
100
100
100
100
100
100
100.705
100.636
100.374
100.074
100.002
100
100
100
100
100
100
100
100
100
100
100.719
100.518
100.167
100.009
100
100
100
100
100
100
100
100
100
100
100
100.651
100.284
100.025
100
100
100
100
100
100
100
100
100
100
100
100
100.396
100.038
100
100
100
100
100
100
100
100
100
100
100
100
100
100.042
100
100
100
100
100
100
100
100
100
100
100
100
100
100
99.9995
100
100
100
100
100
100
100
100
100
100
100
100
100
100
100
100
100
100
100
100
100
100
100
100
100
100
100
100
100
100
100
100
100
100
100
100
100
100
100
100
100
100
100
100
100
100
100
100
100
100
100
100
100
100
100
100
100
100
100
100
100
100
100
100
100
100
100
100
100
100
100
100
100
100
100
100
100
100
100
100
100
100
100
100
100
100
100
100
100
100
100
100
100
100
100
100
100
100
100
100
100
100
100
100
100
100
100
100
100
100
100
100
100
100
100
100
100
100
100
100
100
100
100
100
100
100
100
100
100
100
100
100
100
100
100
100
100
100
100
100
100
100
100
100
100
100
100
100
100
100
100
100
100
100
100
100
100
100
100
100
100
100
100
100
100
100
100
100
100
100
100
100
100
100
100
100
100
100
100
100
100
100
100
100
100
100
100
100
100
100
100
100
100
100
100
100
100
100
100
100
100
100
100
100
100
100
100
100
100
100
100
100
100
100
100
100
100
100
100
100
100
100
100
100
100
100
100
100
100
100
100
100
100
100
100
100
100
100
100
100
100
100
100
100
100
100
100
100
100
100
100
100
100
100
100
100
100
100
100
100
100
100
100
100
100
100
100
100
100
100
100
100
100
100
100
100
100
100
100
100
100
100
100
100
100
100
100
100
100
100
100
100
100
100
100
100
100
100
100
100
100
100
100
100
100
100
100
100
100
100
100
100
100
100
100
100
100
100
100
100
100
100
100
100
100
100
100
100
100
100
100
100
100
100
100
100
100
100
100
100
100
100
100
100
100
100
100
100
100
100
100
100
100
100
100
100
100
100
100
100
100
100
100
100
100
100
100
100
100
100
100
100
100
100
100
100
100
100
100
100
100
100
100
100
100
100
100
100
100
100
100
100
100
100
100
100
100
100
100
100
100
100
100
100
100
100
100
100
100
100
100
100
100
100
100
100
100
100
100
100
100
100
100
100
100
100
100
100
100
100
100
100
100
100
100
100
100
100
100
100
100
100
100
100
100
100
100
100
100
100
100
100
100
100
100
100
100
100
100
100
100
100
100
100
100
100
100
100
100
100
100
100
100
100
100
100
100
100
100
100
100
100
100
100
100
100
100
100
100
100
100
100
100
100
100
100
100
100
100
100
100
100
100
100
100
100
100
100
100
100
100
100
100
100
100
100
100
100
100
100
100
100
100
100
100
100
100
100
100
100
100
100
100
100
100
100
100
100
100
100
100
100
100
100
100
100
100
100
100
100
100
100
100
100
100
100
100
100
100
100
100
100
100
100
100
100
100
100
100
100
100
100
100
100
100
100
100
100
100
100
100
100
100
100
100
100
100
100
100
100
100
100
100
100
100
100
100
100
100
100
100
100
100
100
100
100
100
100
100
100
100
100
100
100
100
100
100
100
100
100
100
100
100
100
100
100
100
100
100
100
100
100
100
100
100
100
100
100
100
100
100
100
100
100
100
100
100
100
100
100
100
100
100
100
100
100
100
100
100
100
100
100
100
100
100
100
100
100
100
100
100
100
100
100
100
100
100
100
100
100
100
100
100
100
100
100
100
100
100
100
100
100
100
100
100
100
100
100
100
100
100
100
100
100
100
100
100
100
100
100
100
100
100
100
100
100
100
100
100
100
100
100
100
100
100
100
100
100
100
100
100
100
100
100
100
100
100
100
100
100
100
100
100
100
100
100
100
100
100
100
100
100
100
100
100
100
100
100
100
100
100
100
100
100
100
100
100
100
100
100
100
100
100
100
100
100
100
100
100
100
100
100
100
100
100
100
100
100
100
100
100
100
100
100
100
100
100
100
100
100
100
100
100
100
100
100
100
100
100
100
100
100
100
100
100
100
100
100
100
100
100
100
100
100
100
100
100
100
100
100
100
100
100
100
100
100
100
100
100
100
100
100
100
100
100
100
100
100
100
100
100
100
100
100
100
100
100
100
100
100
100
100
100
100
100
100
100
100
100
100
100
100
100
100
99.9995
100
100
100
100
100
100
100
100
100
100
100
100
100
100
100.042
100
100
100
100
100
100
100
100
100
100
100
100
100
100
100.395
100.038
100
100
100
100
100
100
100
100
100
100
100
100
100
100.65
100.284
100.025
100
100
100
100
100
100
100
100
100
100
100
100
100.719
100.518
100.167
100.009
100
100
100
100
100
100
100
100
100
100
100
100.704
100.636
100.374
100.074
100.002
100
100
100
100
100
100
100
100
100
100
100.67
100.662
100.518
100.217
100.022
100
100
100
100
100
100
100
100
100
100
100.596
100.653
100.61
100.415
100.142
100.017
100.001
100
100
100
100
100
100
100
100
100.531
100.615
100.608
100.489
100.25
100.043
100.002
100
100
100
100
100
100
100
100
100.47
100.544
100.584
100.546
100.378
100.146
100.015
100
100
100
100
100
100
100
100
100.405
100.49
100.539
100.54
100.446
100.255
100.066
100.003
100
100
100
100
100
100
100
100.341
100.432
100.485
100.515
100.483
100.337
100.155
100.025
100.001
100
100
100
100
100
100
100.313
100.374
100.432
100.476
100.474
100.387
100.233
100.078
100.006
100
100
100
100
100
100
100.316
100.347
100.373
100.422
100.45
100.415
100.289
100.148
100.031
100.001
100
100
100
100
100
100.313
100.334
100.337
100.371
100.407
100.405
100.33
100.209
100.081
100.007
100
100
100
100
100
100.298
100.312
100.314
100.343
100.364
100.379
100.349
100.25
100.139
100.033
100.002
100
100
100
100
100.273
100.281
100.291
100.317
100.327
100.345
100.34
100.28
100.187
100.078
100.008
100
100
100
100
100.239
100.255
100.281
100.295
100.288
100.302
100.316
100.291
100.217
100.129
100.032
100.002
100
100
100
100.214
100.233
100.264
100.268
100.258
100.27
100.281
100.281
100.24
100.168
100.073
100.008
100
100
100
100.201
100.219
100.244
100.238
100.228
100.242
100.248
100.26
100.244
100.192
100.119
100.028
100.001
100
100
100.192
100.206
100.221
100.212
100.209
100.217
100.213
100.23
100.237
100.211
100.153
100.065
100.007
100
100
100.185
100.184
100.195
100.19
100.197
100.198
100.184
100.196
100.216
100.21
100.173
100.107
100.024
100.001
100
100.177
100.158
100.169
100.169
100.181
100.175
100.16
100.168
100.186
100.202
100.186
100.142
100.056
100.005
100
100.225
100.153
100.149
100.149
100.16
100.145
100.132
100.147
100.158
100.183
100.184
100.159
100.096
100.02
100.001
100.313
100.171
100.142
100.131
100.14
100.12
100.11
100.123
100.13
100.157
100.178
100.168
100.129
100.047
100.004
100.363
100.227
100.134
100.115
100.118
100.101
100.099
100.105
100.102
100.127
100.161
100.166
100.147
100.085
100.016
100.374
100.278
100.146
100.099
100.092
100.085
100.092
100.087
100.079
100.101
100.137
100.162
100.154
100.114
100.041
100.379
100.32
100.22
100.105
100.072
100.063
100.069
100.057
100.048
100.069
100.098
100.138
100.15
100.138
100.105
100.438
100.405
100.348
100.312
100.302
100.297
100.279
100.262
100.243
100.212
100.195
100.184
100.184
100.195
100.278
100.367
100.386
100.405
100.418
100.414
100.372
100.339
100.292
100.275
100.279
100.273
100.258
100.244
100.225
100.2
100.178
100.18
100.202
100.3
100.395
100.425
100.415
100.418
100.43
100.431
100.305
100.279
100.248
100.248
100.248
100.24
100.23
100.217
100.201
100.178
100.179
100.213
100.333
100.403
100.432
100.446
100.44
100.435
100.442
100.446
100.237
100.222
100.217
100.221
100.217
100.207
100.202
100.192
100.178
100.181
100.242
100.361
100.431
100.445
100.451
100.462
100.462
100.455
100.456
100.463
100.184
100.178
100.178
100.182
100.172
100.163
100.163
100.16
100.183
100.284
100.395
100.456
100.456
100.463
100.472
100.485
100.489
100.487
100.486
100.492
100.132
100.135
100.133
100.144
100.136
100.125
100.144
100.215
100.348
100.446
100.487
100.493
100.491
100.496
100.51
100.527
100.538
100.538
100.539
100.547
100.077
100.085
100.106
100.099
100.132
100.21
100.343
100.421
100.484
100.538
100.571
100.57
100.57
100.574
100.586
100.601
100.616
100.62
100.62
100.627
100.022
100.064
100.171
100.298
100.452
100.523
100.561
100.594
100.631
100.667
100.688
100.693
100.695
100.695
100.696
100.705
100.715
100.716
100.714
100.715
100.545
100.646
100.699
100.747
100.789
100.797
100.791
100.79
100.793
100.803
100.813
100.813
100.81
100.805
100.794
100.789
100.79
100.79
100.788
100.782
101.032
101.027
101.012
100.997
100.968
100.939
100.916
100.904
100.886
100.868
100.863
100.863
100.861
100.854
100.836
100.821
100.818
100.819
100.818
100.808
)
;

boundaryField
{
    inlet
    {
        type            fixedValue;
        value           uniform 100;
    }
    outlet
    {
        type            inletOutlet;
        inletValue      uniform 100;
        value           nonuniform List<scalar> 
50
(
100.379
100.321
100.221
100.106
100.073
100.063
100.067
100.056
100.048
100.069
100.098
100.138
100.15
100.138
100.105
100.81
100.785
100.72
100.631
100.549
100.495
100.464
100.445
100.43
100.413
100.414
100.431
100.446
100.463
100.492
100.547
100.627
100.715
100.782
100.808
100.379
100.32
100.22
100.105
100.072
100.063
100.069
100.057
100.048
100.069
100.098
100.138
100.15
100.138
100.105
)
;
    }
    airfoil
    {
        type            zeroGradient;
    }
    top
    {
        type            symmetryPlane;
    }
    bottom
    {
        type            symmetryPlane;
    }
    defaultFaces
    {
        type            empty;
    }
}


// ************************************************************************* //
