/*--------------------------------*- C++ -*----------------------------------*\
  =========                 |
  \\      /  F ield         | OpenFOAM: The Open Source CFD Toolbox
   \\    /   O peration     | Website:  https://openfoam.org
    \\  /    A nd           | Version:  7
     \\/     M anipulation  |
\*---------------------------------------------------------------------------*/
FoamFile
{
    version     2.0;
    format      ascii;
    class       volVectorField;
    location    "9.6";
    object      U;
}
// * * * * * * * * * * * * * * * * * * * * * * * * * * * * * * * * * * * * * //

dimensions      [0 1 -1 0 0 0 0];

internalField   nonuniform List<vector> 
3700
(
(1.41937 -0.630469 0)
(1.378 -0.643896 0)
(1.25968 -0.473673 0)
(1.26479 -0.361443 0)
(1.42244 -0.402026 0)
(1.54117 -0.41844 0)
(1.49655 -0.295308 0)
(1.49999 -0.134766 0)
(1.58913 -0.0605943 0)
(1.64887 -0.13796 0)
(1.59851 -0.226435 0)
(1.55554 -0.224271 0)
(1.54595 -0.159145 0)
(1.59888 -0.109779 0)
(1.67287 -0.163928 0)
(1.72781 -0.271172 0)
(1.79927 -0.319457 0)
(1.7885 -0.284101 0)
(1.78205 -0.199422 0)
(1.82791 -0.126881 0)
(1.5174 -1.5599 0)
(1.62844 -1.61889 0)
(1.69359 -1.80177 0)
(1.75619 -1.76413 0)
(1.85975 -1.8649 0)
(1.84848 -1.90683 0)
(1.76872 -1.61933 0)
(1.70043 -1.31271 0)
(1.83021 -1.12808 0)
(1.93575 -1.2107 0)
(1.94734 -1.31911 0)
(1.90669 -1.30641 0)
(1.87567 -1.15794 0)
(1.93756 -1.11397 0)
(2.06514 -1.24447 0)
(2.15759 -1.3743 0)
(2.19162 -1.37997 0)
(2.20231 -1.28249 0)
(2.22623 -1.10102 0)
(2.31222 -0.971335 0)
(1.53032 -1.54399 0)
(1.7518 -1.58852 0)
(1.86391 -1.96399 0)
(1.91292 -2.14005 0)
(1.96055 -2.21279 0)
(1.95841 -2.27176 0)
(1.98261 -2.18385 0)
(1.94386 -2.17973 0)
(2.00836 -2.11085 0)
(2.09906 -2.08002 0)
(2.22868 -2.00983 0)
(2.30199 -1.98512 0)
(2.3935 -1.9146 0)
(2.41487 -1.92151 0)
(2.42198 -1.86966 0)
(2.4207 -1.81338 0)
(2.43202 -1.78424 0)
(2.46698 -1.66427 0)
(2.5332 -1.64346 0)
(2.65148 -1.53325 0)
(1.57422 -1.57619 0)
(1.89563 -1.60935 0)
(1.96803 -2.00087 0)
(1.99325 -2.14753 0)
(2.06426 -2.1784 0)
(2.02895 -2.29545 0)
(2.07165 -2.15805 0)
(1.98959 -2.16571 0)
(2.04936 -2.06799 0)
(2.13093 -1.96233 0)
(2.23022 -1.85242 0)
(2.39066 -1.78248 0)
(2.52015 -1.60814 0)
(2.63733 -1.55016 0)
(2.7027 -1.52917 0)
(2.70301 -1.54563 0)
(2.62934 -1.61669 0)
(2.60629 -1.50572 0)
(2.57502 -1.51842 0)
(2.62449 -1.35101 0)
(1.67525 -1.63268 0)
(1.98712 -1.64531 0)
(2.00485 -2.04149 0)
(2.03902 -2.09576 0)
(2.11828 -2.11967 0)
(2.09857 -2.25566 0)
(2.19894 -2.08479 0)
(2.15646 -2.04214 0)
(2.15083 -2.03419 0)
(2.1877 -1.95472 0)
(2.22047 -1.87314 0)
(2.34174 -1.75816 0)
(2.43016 -1.64801 0)
(2.57576 -1.53733 0)
(2.71034 -1.36109 0)
(2.78728 -1.15759 0)
(2.79874 -1.13188 0)
(2.8112 -1.0899 0)
(2.72751 -1.19564 0)
(2.6622 -1.17967 0)
(1.75121 -1.6699 0)
(2.01607 -1.66858 0)
(1.89001 -2.08249 0)
(1.92074 -2.08712 0)
(2.05242 -2.12392 0)
(2.08964 -2.23485 0)
(2.21557 -2.06656 0)
(2.24322 -1.96684 0)
(2.28307 -1.91055 0)
(2.41908 -1.76658 0)
(2.38643 -1.81849 0)
(2.45109 -1.65449 0)
(2.47793 -1.56069 0)
(2.53402 -1.48664 0)
(2.62351 -1.3785 0)
(2.68023 -1.21621 0)
(2.7767 -1.05121 0)
(2.86516 -0.854032 0)
(2.86441 -0.736296 0)
(2.75882 -0.748898 0)
(1.69854 -1.63543 0)
(1.83217 -1.74463 0)
(1.71191 -2.12776 0)
(1.80641 -2.0765 0)
(1.89283 -2.05179 0)
(1.99307 -2.08195 0)
(2.21108 -1.98901 0)
(2.38709 -1.81169 0)
(2.44012 -1.82571 0)
(2.53827 -1.57994 0)
(2.5721 -1.60193 0)
(2.64244 -1.44551 0)
(2.61902 -1.39972 0)
(2.62159 -1.31505 0)
(2.64036 -1.21887 0)
(2.65661 -1.09961 0)
(2.69607 -1.00238 0)
(2.79304 -0.894825 0)
(2.80248 -0.650143 0)
(2.80225 -0.484141 0)
(1.54145 -1.51309 0)
(1.6164 -1.7148 0)
(1.60574 -2.06675 0)
(1.63784 -2.08812 0)
(1.72828 -1.98493 0)
(1.85098 -2.01115 0)
(2.06801 -1.87957 0)
(2.2598 -1.7031 0)
(2.43487 -1.62451 0)
(2.59366 -1.41219 0)
(2.66294 -1.26937 0)
(2.73996 -1.09632 0)
(2.74331 -1.05521 0)
(2.74558 -1.00529 0)
(2.74493 -0.908196 0)
(2.72275 -0.852547 0)
(2.70571 -0.759033 0)
(2.73882 -0.762176 0)
(2.73505 -0.615758 0)
(2.73282 -0.383334 0)
(1.42183 -1.32607 0)
(1.50064 -1.48001 0)
(1.59442 -1.89468 0)
(1.56713 -2.08714 0)
(1.72014 -1.92023 0)
(1.79987 -1.98863 0)
(2.05519 -1.81412 0)
(2.18845 -1.7042 0)
(2.30127 -1.54171 0)
(2.43594 -1.45284 0)
(2.56156 -1.16041 0)
(2.6842 -0.984605 0)
(2.71469 -0.716197 0)
(2.7608 -0.611454 0)
(2.76669 -0.465813 0)
(2.76147 -0.453736 0)
(2.74588 -0.36597 0)
(2.71658 -0.426294 0)
(2.70689 -0.436573 0)
(2.66364 -0.235817 0)
(1.38695 -1.15676 0)
(1.4637 -1.24712 0)
(1.63222 -1.67565 0)
(1.53557 -2.04651 0)
(1.77649 -1.85009 0)
(1.91907 -1.93762 0)
(2.21668 -1.70435 0)
(2.31225 -1.65063 0)
(2.38021 -1.44401 0)
(2.41707 -1.36254 0)
(2.502 -1.14481 0)
(2.59004 -0.990673 0)
(2.6298 -0.733597 0)
(2.7329 -0.612584 0)
(2.71193 -0.336213 0)
(2.72803 -0.212237 0)
(2.70699 -0.0459208 0)
(2.66944 -0.0359929 0)
(2.64097 -0.104165 0)
(2.61683 -0.0581285 0)
(1.39971 -1.04682 0)
(1.50328 -1.06257 0)
(1.6448 -1.44716 0)
(1.57816 -2.00044 0)
(1.93271 -1.84396 0)
(2.14367 -1.80689 0)
(2.41423 -1.48008 0)
(2.57779 -1.26254 0)
(2.64008 -1.10352 0)
(2.61624 -1.04869 0)
(2.62477 -0.881569 0)
(2.64338 -0.714408 0)
(2.63326 -0.549231 0)
(2.66897 -0.455035 0)
(2.64619 -0.272779 0)
(2.66725 -0.171866 0)
(2.64274 0.0171853 0)
(2.60242 0.159427 0)
(2.53117 0.237286 0)
(2.57053 0.11709 0)
(1.39729 -1.02241 0)
(1.52587 -0.981505 0)
(1.69575 -1.24322 0)
(1.80022 -1.99726 0)
(2.39147 -1.8936 0)
(2.624 -1.65239 0)
(2.78996 -1.3032 0)
(2.81584 -0.777267 0)
(2.79071 -0.620153 0)
(2.72313 -0.441484 0)
(2.71712 -0.339553 0)
(2.69167 -0.184875 0)
(2.67147 -0.105398 0)
(2.64487 -0.0129762 0)
(2.60557 0.0540419 0)
(2.57883 0.0693652 0)
(2.55828 0.1109 0)
(2.51379 0.227485 0)
(2.44111 0.379697 0)
(2.44368 0.367776 0)
(1.35838 -1.02455 0)
(1.53659 -1.01172 0)
(1.8221 -1.17233 0)
(2.13463 -1.86857 0)
(2.28155 -1.78114 0)
(2.42076 -1.40948 0)
(2.52343 -1.17264 0)
(2.59259 -0.749332 0)
(2.6048 -0.644271 0)
(2.60993 -0.358317 0)
(2.64675 -0.176122 0)
(2.60209 0.0689506 0)
(2.58972 0.204892 0)
(2.52595 0.364443 0)
(2.48121 0.441255 0)
(2.44374 0.453641 0)
(2.41415 0.443486 0)
(2.40396 0.422633 0)
(2.3236 0.536032 0)
(2.31775 0.522492 0)
(1.24252 -1.06759 0)
(1.51947 -1.15489 0)
(1.9972 -1.18271 0)
(2.15924 -1.63603 0)
(2.1291 -1.59515 0)
(2.29168 -1.19986 0)
(2.39987 -0.90155 0)
(2.45503 -0.63306 0)
(2.4723 -0.424443 0)
(2.50029 -0.242163 0)
(2.52304 -0.0433408 0)
(2.48749 0.170504 0)
(2.46969 0.322468 0)
(2.40285 0.486478 0)
(2.33994 0.612596 0)
(2.29596 0.662804 0)
(2.22306 0.740994 0)
(2.20591 0.728904 0)
(2.18694 0.748322 0)
(2.14758 0.773576 0)
(1.10548 -1.10524 0)
(1.48932 -1.63495 0)
(2.24744 -1.1756 0)
(2.08433 -1.50041 0)
(2.23626 -1.25831 0)
(2.40953 -0.685703 0)
(2.48669 -0.268749 0)
(2.5035 -0.10076 0)
(2.44481 0.128129 0)
(2.45122 0.237709 0)
(2.40056 0.410355 0)
(2.34408 0.536858 0)
(2.29549 0.6225 0)
(2.23578 0.707851 0)
(2.18075 0.764993 0)
(2.1359 0.804414 0)
(2.07566 0.872304 0)
(2.0498 0.907891 0)
(2.0309 0.940254 0)
(2.05919 0.955545 0)
(0.879076 -1.03244 0)
(1.30543 -1.69414 0)
(2.06901 -1.17067 0)
(2.21608 -1.11971 0)
(2.40058 -0.203754 0)
(2.46874 0.0360169 0)
(2.4738 0.198809 0)
(2.39215 0.42389 0)
(2.32413 0.52626 0)
(2.29085 0.653039 0)
(2.20232 0.787061 0)
(2.12254 0.884879 0)
(2.06574 0.935582 0)
(2.01484 0.983308 0)
(1.98284 0.978418 0)
(1.95824 0.987818 0)
(1.95742 1.01013 0)
(1.97208 0.992826 0)
(1.99564 0.993505 0)
(2.06891 0.978955 0)
(0.875302 -0.746743 0)
(1.26188 -1.34312 0)
(2.13453 -0.748802 0)
(2.37255 0.0885175 0)
(2.38362 0.236575 0)
(2.35743 0.368602 0)
(2.29894 0.507365 0)
(2.21056 0.650887 0)
(2.13769 0.754905 0)
(2.08628 0.891517 0)
(1.97791 0.999947 0)
(1.92022 1.05623 0)
(1.88496 1.08004 0)
(1.86911 1.09241 0)
(1.86859 1.06076 0)
(1.89428 1.05213 0)
(1.96174 1.02283 0)
(2.16744 0.900815 0)
(2.38532 0.786892 0)
(2.77939 0.437072 0)
(1.04972 -0.0627283 0)
(1.98847 0.681617 0)
(2.2856 0.429477 0)
(2.24117 0.567039 0)
(2.20189 0.627824 0)
(2.16333 0.737595 0)
(2.03749 0.907483 0)
(1.96542 0.968152 0)
(1.9025 1.03176 0)
(1.85043 1.12289 0)
(1.78797 1.15576 0)
(1.79159 1.14885 0)
(1.81383 1.12791 0)
(1.85388 1.08579 0)
(2.03818 0.952012 0)
(2.25185 0.833583 0)
(2.65988 0.509119 0)
(3.03554 0.0937876 0)
(3.05504 -0.0237679 0)
(3.00401 -0.00465346 0)
(0.993967 0.0552243 0)
(1.92694 0.701095 0)
(2.09412 0.796386 0)
(2.00959 0.913317 0)
(1.97017 0.972457 0)
(1.8753 1.08825 0)
(1.79752 1.13917 0)
(1.75826 1.14676 0)
(1.75342 1.16282 0)
(1.72755 1.20432 0)
(1.70691 1.19834 0)
(1.86233 1.07481 0)
(2.10687 0.886824 0)
(2.51032 0.576327 0)
(2.98963 0.134331 0)
(3.0743 -0.030288 0)
(3.00821 -0.00778012 0)
(3.00293 -0.00385251 0)
(3.00122 -0.0021943 0)
(3.00008 -0.000479821 0)
(1.16917 0.754895 0)
(1.82229 1.15487 0)
(1.83748 1.15111 0)
(1.73748 1.19642 0)
(1.71925 1.19788 0)
(1.67331 1.24363 0)
(1.65898 1.21626 0)
(1.72383 1.16523 0)
(1.75048 1.22897 0)
(1.77535 1.14422 0)
(2.25419 0.754355 0)
(2.84527 0.222311 0)
(3.09374 -0.0233845 0)
(3.02064 -0.0122325 0)
(3.00448 -0.00530072 0)
(3.00188 -0.00301398 0)
(3.00006 -0.000598007 0)
(2.99998 -2.50862e-05 0)
(2.99999 1.4307e-05 0)
(3 5.8944e-06 0)
(1.57448 1.25344 0)
(1.58051 1.25964 0)
(1.58765 1.26475 0)
(1.5996 1.25951 0)
(1.6224 1.24242 0)
(1.6115 1.2626 0)
(1.90798 1.15542 0)
(2.98352 0.353407 0)
(3.34158 -0.588516 0)
(3 5.98566e-11 0)
(3 -7.27613e-11 0)
(3 7.98345e-11 0)
(3 1.77906e-15 0)
(3 -4.30366e-13 0)
(3 -1.67875e-14 0)
(3 1.34803e-14 0)
(3 -1.35421e-14 0)
(3 -3.68797e-15 0)
(3 -3.44911e-15 0)
(3 -4.99875e-15 0)
(1.57555 1.24907 0)
(1.58862 1.26031 0)
(1.59339 1.27299 0)
(1.588 1.27264 0)
(1.6691 1.24678 0)
(1.75949 1.22275 0)
(2.31597 0.717151 0)
(3.00333 0.00723812 0)
(3 6.52231e-08 0)
(3 -3.24561e-11 0)
(3 -7.42799e-15 0)
(3 1.40595e-15 0)
(3 -3.44749e-15 0)
(3 -1.36412e-16 0)
(3 -2.2526e-15 0)
(3 -2.87744e-15 0)
(3 -2.67589e-15 0)
(3 -2.28504e-15 0)
(3 -2.7689e-15 0)
(3 -3.4946e-15 0)
(1.58334 1.25514 0)
(1.59968 1.25959 0)
(1.59938 1.27325 0)
(1.57323 1.30675 0)
(1.71564 1.22003 0)
(2.18898 0.83377 0)
(2.98565 0.0102417 0)
(3.00027 -0.00059645 0)
(3 5.38352e-07 0)
(3 6.0665e-11 0)
(3 -3.90752e-14 0)
(3 -2.97816e-15 0)
(3 -1.59059e-15 0)
(3 -3.24672e-15 0)
(3 -3.70012e-16 0)
(3 -1.81556e-15 0)
(3 -2.0473e-15 0)
(3 -2.11076e-15 0)
(3 -3.37736e-15 0)
(3 -3.68525e-15 0)
(1.58665 1.25748 0)
(1.60842 1.26029 0)
(1.62811 1.26551 0)
(1.60312 1.3096 0)
(1.8198 1.11521 0)
(2.69941 0.26158 0)
(3.00565 -0.00246368 0)
(2.99992 7.48221e-05 0)
(3 -7.44388e-07 0)
(3 8.52977e-10 0)
(3 -1.25836e-14 0)
(3 -4.63079e-16 0)
(3 -2.8426e-15 0)
(3 -3.73234e-15 0)
(3 5.31427e-16 0)
(3 -3.92631e-16 0)
(3 -1.59817e-15 0)
(3 -2.73532e-15 0)
(3 -3.09157e-15 0)
(3 -3.86528e-15 0)
(1.58842 1.26996 0)
(1.60805 1.26377 0)
(1.63631 1.25231 0)
(1.73666 1.20104 0)
(2.35822 0.631998 0)
(3.02104 -0.0198392 0)
(2.99973 0.000167629 0)
(3 -4.23482e-06 0)
(3 8.35754e-08 0)
(3 -8.80856e-10 0)
(3 1.67538e-13 0)
(3 -1.06288e-15 0)
(3 -1.96437e-15 0)
(3 -3.37444e-15 0)
(3 -1.65363e-15 0)
(3 -7.50762e-16 0)
(3 -2.28923e-15 0)
(3 -3.62638e-15 0)
(3 -3.45732e-15 0)
(3 -3.91488e-15 0)
(1.58559 1.28242 0)
(1.58311 1.27259 0)
(1.63849 1.23935 0)
(1.84319 1.0975 0)
(2.75182 0.214012 0)
(3 -5.83849e-10 0)
(3 1.40185e-08 0)
(3 -1.26557e-08 0)
(3 5.49881e-10 0)
(3 2.49585e-12 0)
(3 -9.35348e-14 0)
(3 -1.1633e-15 0)
(3 -1.4031e-15 0)
(3 -1.42126e-15 0)
(3 -1.82191e-15 0)
(3 -3.01153e-15 0)
(3 -3.32807e-15 0)
(3 -4.24212e-15 0)
(3 -3.49228e-15 0)
(3 -3.93122e-15 0)
(1.58337 1.29249 0)
(1.54974 1.28257 0)
(1.64835 1.24807 0)
(2.07607 0.877147 0)
(3.00519 -0.00149824 0)
(3 -2.25643e-12 0)
(3 -1.46071e-11 0)
(3 2.13929e-11 0)
(3 -3.59319e-12 0)
(3 4.89821e-15 0)
(3 -7.62434e-16 0)
(3 -1.39829e-15 0)
(3 -1.49473e-15 0)
(3 -9.94684e-16 0)
(3 -1.58525e-15 0)
(3 -3.73594e-15 0)
(3 -4.89344e-15 0)
(3 -3.67813e-15 0)
(3 -3.11784e-15 0)
(3 -4.25568e-15 0)
(1.58073 1.32042 0)
(1.50939 1.32221 0)
(1.78467 1.18456 0)
(2.44202 0.539139 0)
(3 -3.42374e-06 0)
(3 2.40383e-11 0)
(3 1.86877e-13 0)
(3 -8.43864e-14 0)
(3 2.08482e-14 0)
(3 -2.46546e-16 0)
(3 -1.03877e-15 0)
(3 -9.00837e-16 0)
(3 -8.51194e-16 0)
(3 -7.6796e-16 0)
(3 -8.34499e-16 0)
(3 -2.39944e-15 0)
(3 -3.07732e-15 0)
(3 -4.65653e-15 0)
(3 -2.93695e-15 0)
(3 -4.97008e-15 0)
(1.58881 1.3075 0)
(1.46693 1.34507 0)
(1.9499 1.04569 0)
(2.86475 0.132794 0)
(3 -8.33398e-09 0)
(3 -7.62298e-12 0)
(3 -1.56583e-14 0)
(3 -3.05078e-16 0)
(3 4.33343e-17 0)
(3 5.58544e-17 0)
(3 -4.68166e-16 0)
(3 -8.12622e-16 0)
(3 -9.40184e-16 0)
(3 -5.24111e-16 0)
(3 -3.24031e-16 0)
(3 -6.01282e-16 0)
(3 -1.51849e-15 0)
(3 -3.05527e-15 0)
(3 -4.34681e-15 0)
(3 -3.70092e-15 0)
(1.60512 1.29665 0)
(1.48477 1.39417 0)
(2.12377 0.848675 0)
(3.01139 -0.00959031 0)
(3 4.98917e-09 0)
(3 -9.32159e-12 0)
(3 3.11137e-14 0)
(3 1.20312e-16 0)
(3 -1.2085e-16 0)
(3 -1.75867e-16 0)
(3 -3.19742e-16 0)
(3 -4.36207e-16 0)
(3 -5.21255e-16 0)
(3 -2.30603e-16 0)
(3 -3.43955e-16 0)
(3 -3.69475e-16 0)
(3 -8.50419e-16 0)
(3 -2.18176e-15 0)
(3 -3.483e-15 0)
(3 -3.58194e-15 0)
(1.62003 1.28171 0)
(1.58451 1.30551 0)
(2.43559 0.520658 0)
(3 4.35674e-13 0)
(3 -4.53652e-12 0)
(3 7.78505e-14 0)
(3 -1.65328e-15 0)
(3 4.66836e-17 0)
(3 1.68235e-16 0)
(3 -9.53631e-18 0)
(3 -2.09976e-16 0)
(3 -2.77127e-16 0)
(3 1.49769e-17 0)
(3 1.15831e-16 0)
(3 5.52302e-16 0)
(3 4.56605e-16 0)
(3 -3.99362e-17 0)
(3 -1.08624e-15 0)
(3 -2.05625e-15 0)
(3 -3.05708e-15 0)
(1.63618 1.2651 0)
(1.63131 1.2436 0)
(2.6479 0.291255 0)
(3 2.79782e-13 0)
(3 1.0929e-14 0)
(3 -9.8628e-16 0)
(3 -3.10629e-16 0)
(3 3.26443e-17 0)
(3 2.50243e-16 0)
(3 3.34726e-16 0)
(3 2.07867e-16 0)
(3 1.21486e-16 0)
(3 5.0491e-16 0)
(3 5.10036e-16 0)
(3 7.14831e-16 0)
(3 6.14303e-16 0)
(3 1.8832e-17 0)
(3 -2.34581e-16 0)
(3 -1.80111e-15 0)
(3 -1.65045e-15 0)
(1.65951 1.23997 0)
(1.80936 1.09866 0)
(2.87532 0.0871684 0)
(3 -7.67302e-13 0)
(3 -2.33195e-15 0)
(3 -1.21664e-15 0)
(3 -3.58272e-16 0)
(3 1.5214e-16 0)
(3 5.51658e-16 0)
(3 4.40288e-16 0)
(3 5.41836e-16 0)
(3 3.17165e-16 0)
(3 5.51065e-16 0)
(3 7.31664e-16 0)
(3 8.81765e-16 0)
(3 7.83492e-16 0)
(3 3.45304e-16 0)
(3 -3.76692e-16 0)
(3 -2.06607e-15 0)
(3 -1.98948e-15 0)
(1.68911 1.19264 0)
(1.9224 0.968123 0)
(2.99989 2.71401e-05 0)
(3 -2.05332e-15 0)
(3 -2.56561e-15 0)
(3 -1.74352e-15 0)
(3 -9.85745e-16 0)
(3 -3.78784e-16 0)
(3 2.87069e-16 0)
(3 5.23746e-16 0)
(3 6.92351e-16 0)
(3 6.64802e-16 0)
(3 6.82541e-16 0)
(3 7.82087e-16 0)
(3 1.07373e-15 0)
(3 1.04668e-15 0)
(3 1.25192e-15 0)
(3 1.11243e-15 0)
(3 3.01446e-16 0)
(3 -3.97008e-16 0)
(1.69164 1.16778 0)
(2.03438 0.837908 0)
(3 -2.89014e-15 0)
(3 -2.59227e-15 0)
(3 -2.6745e-15 0)
(3 -1.8538e-15 0)
(3 -6.00483e-16 0)
(3 6.31132e-17 0)
(3 6.81972e-16 0)
(3 9.04395e-16 0)
(3 7.58604e-16 0)
(3 4.07442e-16 0)
(3 5.29077e-16 0)
(3 1.53506e-16 0)
(3 4.2694e-16 0)
(3 2.20755e-16 0)
(3 2.3585e-16 0)
(3 3.88112e-16 0)
(3 2.76161e-16 0)
(3 1.81448e-17 0)
(1.74052 1.10456 0)
(2.20676 0.657482 0)
(3 -2.48136e-15 0)
(3 -2.41047e-15 0)
(3 -2.19364e-15 0)
(3 -1.99764e-15 0)
(3 -8.52103e-16 0)
(3 5.10855e-17 0)
(3 7.22015e-16 0)
(3 1.21162e-15 0)
(3 1.32612e-15 0)
(3 1.32331e-15 0)
(3 1.29635e-15 0)
(3 1.07185e-15 0)
(3 8.32928e-16 0)
(3 -9.45997e-17 0)
(3 -5.06726e-16 0)
(3 -6.60595e-16 0)
(3 -6.59294e-16 0)
(3 -8.10838e-16 0)
(1.85082 1.01939 0)
(2.45576 0.44312 0)
(3 -6.27451e-16 0)
(3 -7.0601e-16 0)
(3 -8.10982e-16 0)
(3 -2.81078e-16 0)
(3 -9.26673e-17 0)
(3 -2.49464e-16 0)
(3 -6.12079e-16 0)
(3 -8.26346e-16 0)
(3 -8.93751e-16 0)
(3 -2.73046e-16 0)
(3 -4.24512e-17 0)
(3 3.90252e-18 0)
(3 5.20335e-17 0)
(3 4.76723e-16 0)
(3 3.74669e-16 0)
(3 1.64135e-16 0)
(3 3.62142e-17 0)
(3 -1.73158e-16 0)
(1.95191 0.860758 0)
(2.73932 0.187859 0)
(3 2.43458e-16 0)
(3 -9.46444e-16 0)
(3 -9.75578e-16 0)
(3 -8.79518e-16 0)
(3 -1.70644e-15 0)
(3 -2.78589e-15 0)
(3 -3.30656e-15 0)
(3 -3.36492e-15 0)
(3 -3.5157e-15 0)
(3 -3.33416e-15 0)
(3 -2.25636e-15 0)
(3 -1.77528e-15 0)
(3 -6.72283e-16 0)
(3 1.34385e-16 0)
(3 2.98208e-16 0)
(3 3.44194e-16 0)
(3 3.03591e-16 0)
(3 4.16583e-16 0)
(2.08815 0.650072 0)
(2.99301 8.36397e-05 0)
(3 -3.36558e-15 0)
(3 -4.12395e-15 0)
(3 -4.11572e-15 0)
(3 -2.95884e-15 0)
(3 -2.92348e-15 0)
(3 -3.23835e-15 0)
(3 -3.20066e-15 0)
(3 -3.63563e-15 0)
(3 -3.91105e-15 0)
(3 -3.31939e-15 0)
(3 -2.883e-15 0)
(3 -2.59024e-15 0)
(3 -2.15864e-15 0)
(3 -1.84152e-15 0)
(3 -1.18431e-15 0)
(3 -1.73704e-16 0)
(3 5.38928e-16 0)
(3 8.85378e-16 0)
(1.99123 0.378031 0)
(2.99981 -2.97636e-05 0)
(3 -4.42815e-15 0)
(3 -5.31481e-15 0)
(3 -4.81612e-15 0)
(3 -3.74666e-15 0)
(3 -3.64049e-15 0)
(3 -3.16724e-15 0)
(3 -1.82477e-15 0)
(3 -1.2387e-15 0)
(3 -1.41158e-15 0)
(3 -1.49456e-15 0)
(3 -1.43188e-15 0)
(3 -1.11412e-15 0)
(3 -7.26903e-16 0)
(3 -5.74066e-16 0)
(3 -2.42485e-16 0)
(3 1.98852e-16 0)
(3 5.6324e-16 0)
(3 1.09709e-15 0)
(1.99145 -0.37679 0)
(2.99981 3.13983e-05 0)
(3 -2.55409e-15 0)
(3 -2.85347e-15 0)
(3 -2.47755e-15 0)
(3 -2.05512e-15 0)
(3 -1.53171e-15 0)
(3 -1.14929e-15 0)
(3 3.2693e-16 0)
(3 3.2478e-16 0)
(3 4.61084e-16 0)
(3 3.18034e-17 0)
(3 2.03741e-16 0)
(3 5.36336e-16 0)
(3 1.3251e-15 0)
(3 1.86699e-15 0)
(3 2.1592e-15 0)
(3 2.56706e-15 0)
(3 2.7937e-15 0)
(3 2.87168e-15 0)
(2.08716 -0.65389 0)
(2.9928 -5.39051e-05 0)
(3 -1.52108e-15 0)
(3 -1.51698e-15 0)
(3 -9.1151e-16 0)
(3 -7.02826e-16 0)
(3 3.59178e-16 0)
(3 1.30429e-15 0)
(3 2.31713e-15 0)
(3 2.07013e-15 0)
(3 2.27036e-15 0)
(3 2.22918e-15 0)
(3 2.75288e-15 0)
(3 2.5851e-15 0)
(3 2.81293e-15 0)
(3 2.79482e-15 0)
(3 2.28937e-15 0)
(3 1.76954e-15 0)
(3 1.3402e-15 0)
(3 5.89638e-16 0)
(1.94551 -0.860214 0)
(2.73584 -0.189754 0)
(3 -1.40904e-15 0)
(3 -2.58687e-16 0)
(3 1.71385e-16 0)
(3 2.17156e-15 0)
(3 2.74363e-15 0)
(3 3.43496e-15 0)
(3 3.87995e-15 0)
(3 3.97382e-15 0)
(3 4.00605e-15 0)
(3 4.07939e-15 0)
(3 3.58487e-15 0)
(3 3.10217e-15 0)
(3 2.75437e-15 0)
(3 2.04358e-15 0)
(3 1.37169e-15 0)
(3 1.02663e-15 0)
(3 9.1284e-16 0)
(3 6.91602e-16 0)
(1.85421 -1.01693 0)
(2.46167 -0.439931 0)
(3 2.52434e-15 0)
(3 2.05599e-15 0)
(3 3.25443e-15 0)
(3 4.50745e-15 0)
(3 5.25057e-15 0)
(3 5.06632e-15 0)
(3 5.08594e-15 0)
(3 4.73142e-15 0)
(3 4.51453e-15 0)
(3 4.44899e-15 0)
(3 4.29799e-15 0)
(3 4.46789e-15 0)
(3 4.4771e-15 0)
(3 3.81782e-15 0)
(3 3.07255e-15 0)
(3 2.59225e-15 0)
(3 1.96111e-15 0)
(3 1.7224e-15 0)
(1.74889 -1.10349 0)
(2.21344 -0.653879 0)
(3 2.44104e-15 0)
(3 3.49635e-15 0)
(3 4.00592e-15 0)
(3 4.7829e-15 0)
(3 4.84462e-15 0)
(3 4.42706e-15 0)
(3 4.00999e-15 0)
(3 3.90929e-15 0)
(3 3.53381e-15 0)
(3 3.44244e-15 0)
(3 3.28581e-15 0)
(3 3.07724e-15 0)
(3 3.02728e-15 0)
(3 2.5509e-15 0)
(3 1.83334e-15 0)
(3 9.60623e-16 0)
(3 3.03948e-16 0)
(3 -1.71634e-16 0)
(1.68644 -1.17181 0)
(2.03051 -0.838155 0)
(3 4.37651e-15 0)
(3 4.48729e-15 0)
(3 5.02881e-15 0)
(3 5.1054e-15 0)
(3 4.8141e-15 0)
(3 4.39273e-15 0)
(3 3.47778e-15 0)
(3 3.03542e-15 0)
(3 2.01817e-15 0)
(3 1.5885e-15 0)
(3 1.38251e-15 0)
(3 1.25747e-15 0)
(3 5.74107e-16 0)
(3 5.61473e-17 0)
(3 -4.06532e-16 0)
(3 -1.13833e-15 0)
(3 -1.30569e-15 0)
(3 -9.26207e-16 0)
(1.68551 -1.1924 0)
(1.91607 -0.972138 0)
(2.99995 -1.2368e-05 0)
(3 4.5768e-15 0)
(3 5.77229e-15 0)
(3 5.64585e-15 0)
(3 5.00726e-15 0)
(3 4.20294e-15 0)
(3 3.70245e-15 0)
(3 2.56727e-15 0)
(3 1.63038e-15 0)
(3 1.40772e-15 0)
(3 5.84718e-16 0)
(3 2.15207e-16 0)
(3 -8.8114e-16 0)
(3 -1.12881e-15 0)
(3 -7.56547e-16 0)
(3 -5.32059e-16 0)
(3 -1.97824e-16 0)
(3 6.33801e-16 0)
(1.65957 -1.23983 0)
(1.81701 -1.09807 0)
(2.87812 -0.0859411 0)
(3 7.3107e-13 0)
(3 5.33539e-15 0)
(3 4.53059e-15 0)
(3 3.94278e-15 0)
(3 3.23969e-15 0)
(3 3.06453e-15 0)
(3 2.14894e-15 0)
(3 1.68125e-15 0)
(3 1.71411e-15 0)
(3 1.65377e-15 0)
(3 1.57406e-15 0)
(3 1.17043e-15 0)
(3 1.01187e-15 0)
(3 6.76651e-16 0)
(3 1.14157e-15 0)
(3 1.52315e-15 0)
(3 1.27912e-15 0)
(1.63794 -1.26323 0)
(1.62705 -1.24656 0)
(2.64735 -0.291858 0)
(3 -2.32543e-13 0)
(3 -4.04204e-15 0)
(3 4.59486e-15 0)
(3 3.51578e-15 0)
(3 2.78371e-15 0)
(3 2.242e-15 0)
(3 2.31942e-15 0)
(3 1.74961e-15 0)
(3 1.80429e-15 0)
(3 1.9785e-15 0)
(3 1.66591e-15 0)
(3 1.49662e-15 0)
(3 1.70143e-15 0)
(3 1.8036e-15 0)
(3 1.51277e-15 0)
(3 1.75561e-15 0)
(3 2.01062e-15 0)
(1.62047 -1.2821 0)
(1.58378 -1.30618 0)
(2.43307 -0.523012 0)
(3 5.15905e-13 0)
(3 4.12234e-12 0)
(3 -4.56378e-14 0)
(3 4.93242e-15 0)
(3 2.86242e-15 0)
(3 2.23009e-15 0)
(3 2.06214e-15 0)
(3 1.88143e-15 0)
(3 2.17534e-15 0)
(3 2.48337e-15 0)
(3 2.04574e-15 0)
(3 1.35594e-15 0)
(3 1.56898e-15 0)
(3 1.69147e-15 0)
(3 1.87917e-15 0)
(3 2.75542e-15 0)
(3 2.83964e-15 0)
(1.60503 -1.29641 0)
(1.48367 -1.39094 0)
(2.13658 -0.839394 0)
(3.01129 0.00952435 0)
(3 -4.36515e-09 0)
(3 4.68064e-12 0)
(3 -2.07221e-14 0)
(3 3.25148e-15 0)
(3 2.56953e-15 0)
(3 2.89673e-15 0)
(3 3.00868e-15 0)
(3 3.0329e-15 0)
(3 2.55591e-15 0)
(3 1.38078e-15 0)
(3 1.08312e-15 0)
(3 1.494e-15 0)
(3 1.56144e-15 0)
(3 2.98385e-15 0)
(3 2.61098e-15 0)
(3 3.10838e-15 0)
(1.59012 -1.30789 0)
(1.46556 -1.35006 0)
(1.93509 -1.04659 0)
(2.85814 -0.133756 0)
(3 1.86326e-08 0)
(3 1.68104e-11 0)
(3 3.2066e-14 0)
(3 2.15175e-15 0)
(3 2.91536e-15 0)
(3 3.08851e-15 0)
(3 3.17448e-15 0)
(3 2.79294e-15 0)
(3 1.71117e-15 0)
(3 5.12191e-16 0)
(3 3.40096e-16 0)
(3 1.48798e-15 0)
(3 3.20677e-15 0)
(3 3.02383e-15 0)
(3 2.15607e-15 0)
(3 3.49731e-15 0)
(1.58215 -1.32068 0)
(1.51172 -1.32318 0)
(1.79347 -1.18264 0)
(2.44979 -0.534296 0)
(3 5.02125e-06 0)
(3 -2.50888e-11 0)
(3 -3.1794e-13 0)
(3 8.82087e-14 0)
(3 -1.73333e-14 0)
(3 4.14797e-15 0)
(3 2.76241e-15 0)
(3 1.77622e-15 0)
(3 1.39367e-15 0)
(3 4.60783e-16 0)
(3 1.39827e-16 0)
(3 2.84171e-15 0)
(3 3.16264e-15 0)
(3 2.51614e-15 0)
(3 3.22594e-15 0)
(3 3.23389e-15 0)
(1.58227 -1.29203 0)
(1.55034 -1.28316 0)
(1.6493 -1.24969 0)
(2.08616 -0.875749 0)
(3.00215 -0.000477616 0)
(3 -1.79747e-13 0)
(3 1.59009e-11 0)
(3 -2.0813e-11 0)
(3 3.64924e-12 0)
(3 -2.02493e-15 0)
(3 1.16771e-15 0)
(3 1.35023e-15 0)
(3 1.01689e-15 0)
(3 -1.93433e-16 0)
(3 6.41612e-16 0)
(3 3.06747e-15 0)
(3 2.45595e-15 0)
(3 9.08549e-16 0)
(3 2.19812e-15 0)
(3 3.38905e-15 0)
(1.58514 -1.27996 0)
(1.58103 -1.27117 0)
(1.63447 -1.24405 0)
(1.81932 -1.11614 0)
(2.73883 -0.22609 0)
(3 5.8577e-10 0)
(3 -1.41875e-08 0)
(3 1.28229e-08 0)
(3 -5.59753e-10 0)
(3 -2.80459e-12 0)
(3 9.45222e-14 0)
(3 1.2577e-16 0)
(3 4.03493e-16 0)
(3 7.23092e-16 0)
(3 1.6436e-15 0)
(3 1.92261e-15 0)
(3 1.18512e-15 0)
(3 4.63209e-16 0)
(3 2.11957e-15 0)
(3 3.30246e-15 0)
(1.58819 -1.26853 0)
(1.60643 -1.26266 0)
(1.6347 -1.2474 0)
(1.74619 -1.1973 0)
(2.36795 -0.629994 0)
(3.02043 0.0191957 0)
(2.99974 -0.000181645 0)
(3 4.28484e-06 0)
(3 -8.49499e-08 0)
(3 8.91769e-10 0)
(3 -1.7034e-13 0)
(3 4.4951e-16 0)
(3 1.21922e-16 0)
(3 1.61708e-15 0)
(3 2.15922e-15 0)
(3 1.05325e-15 0)
(3 4.87778e-16 0)
(3 1.38184e-15 0)
(3 3.45224e-15 0)
(3 3.22516e-15 0)
(1.58728 -1.25663 0)
(1.61019 -1.25809 0)
(1.6291 -1.26299 0)
(1.6171 -1.29524 0)
(1.82328 -1.10793 0)
(2.71021 -0.24836 0)
(3.00577 0.00278339 0)
(2.99991 -8.18925e-05 0)
(3 7.71863e-07 0)
(3 -8.63453e-10 0)
(3 1.38559e-14 0)
(3 -5.29213e-16 0)
(3 6.16399e-16 0)
(3 5.16209e-16 0)
(3 9.37772e-16 0)
(3 8.66334e-16 0)
(3 7.95159e-16 0)
(3 2.82292e-15 0)
(3 3.53727e-15 0)
(3 2.81487e-15 0)
(1.5847 -1.2547 0)
(1.60193 -1.25806 0)
(1.60319 -1.27188 0)
(1.57653 -1.30579 0)
(1.70345 -1.22689 0)
(2.17997 -0.832953 0)
(2.98309 -0.0121732 0)
(3.00035 0.000719118 0)
(3 -5.66189e-07 0)
(3 -6.08813e-11 0)
(3 5.61068e-14 0)
(3 4.30547e-16 0)
(3 -5.83311e-16 0)
(3 7.08285e-16 0)
(3 8.99734e-16 0)
(3 6.28853e-16 0)
(3 1.58133e-15 0)
(3 2.53741e-15 0)
(3 3.49634e-15 0)
(3 4.07091e-15 0)
(1.57677 -1.2507 0)
(1.58916 -1.26175 0)
(1.59268 -1.27678 0)
(1.58718 -1.2785 0)
(1.66668 -1.25108 0)
(1.75236 -1.22818 0)
(2.31129 -0.723382 0)
(3.00256 -0.00854973 0)
(3 -6.27744e-08 0)
(3 3.15859e-11 0)
(3 7.25206e-15 0)
(3 -2.33946e-15 0)
(3 2.59872e-15 0)
(3 5.58907e-17 0)
(3 1.81393e-15 0)
(3 8.19538e-16 0)
(3 1.45704e-15 0)
(3 2.77791e-15 0)
(3 4.03315e-15 0)
(3 3.40094e-15 0)
(1.57415 -1.25421 0)
(1.58029 -1.26073 0)
(1.58521 -1.26662 0)
(1.5957 -1.25915 0)
(1.61948 -1.24079 0)
(1.61137 -1.26289 0)
(1.91547 -1.1572 0)
(2.98899 -0.353517 0)
(3.33244 0.579521 0)
(3 -6.07099e-11 0)
(3 7.27985e-11 0)
(3 -7.93093e-11 0)
(3 -7.64761e-16 0)
(3 4.2954e-13 0)
(3 1.68847e-14 0)
(3 -1.62284e-14 0)
(3 1.33694e-14 0)
(3 3.475e-15 0)
(3 1.10586e-15 0)
(3 2.43911e-15 0)
(1.15777 -0.772836 0)
(1.82995 -1.14243 0)
(1.83388 -1.14948 0)
(1.73449 -1.19241 0)
(1.72069 -1.1913 0)
(1.6754 -1.24016 0)
(1.66262 -1.21377 0)
(1.72715 -1.16473 0)
(1.75412 -1.22722 0)
(1.77828 -1.14112 0)
(2.25467 -0.751572 0)
(2.84516 -0.22165 0)
(3.09395 0.0234205 0)
(3.02072 0.0122984 0)
(3.00439 0.0052208 0)
(3.00186 0.0029859 0)
(3.00006 0.000596745 0)
(2.99998 2.51625e-05 0)
(2.99999 -1.43207e-05 0)
(3 -5.89709e-06 0)
(1.01148 -0.0272532 0)
(1.91857 -0.784709 0)
(2.1038 -0.806317 0)
(2.00575 -0.932484 0)
(1.95813 -0.986687 0)
(1.87996 -1.08564 0)
(1.80146 -1.13631 0)
(1.76019 -1.14665 0)
(1.75481 -1.16266 0)
(1.7283 -1.20357 0)
(1.70584 -1.19777 0)
(1.85901 -1.07528 0)
(2.10491 -0.887852 0)
(2.51061 -0.577 0)
(2.99047 -0.134357 0)
(3.07441 0.0302845 0)
(3.00819 0.00777621 0)
(3.00293 0.00385692 0)
(3.00122 0.00219749 0)
(3.00008 0.000480987 0)
(1.07098 0.0253074 0)
(1.94393 -0.0437058 0)
(2.21924 -0.49987 0)
(2.2384 -0.527996 0)
(2.2103 -0.593091 0)
(2.16115 -0.742077 0)
(2.03902 -0.913806 0)
(1.96885 -0.969198 0)
(1.90194 -1.03232 0)
(1.85133 -1.12251 0)
(1.78701 -1.15542 0)
(1.79033 -1.14899 0)
(1.81311 -1.1282 0)
(1.85465 -1.08564 0)
(2.03942 -0.951396 0)
(2.2521 -0.83322 0)
(2.65919 -0.509327 0)
(3.03537 -0.0940573 0)
(3.05508 0.0237155 0)
(3.004 0.00464706 0)
(1.26872 0.829559 0)
(1.5869 1.35744 0)
(2.21859 0.798788 0)
(2.32846 -0.247173 0)
(2.3665 -0.332729 0)
(2.35656 -0.372763 0)
(2.30378 -0.503834 0)
(2.2135 -0.655465 0)
(2.13917 -0.758271 0)
(2.08543 -0.895194 0)
(1.97588 -1.00281 0)
(1.91826 -1.05816 0)
(1.88413 -1.08068 0)
(1.86944 -1.09208 0)
(1.86933 -1.05994 0)
(1.89436 -1.05166 0)
(1.96128 -1.02291 0)
(2.16678 -0.901564 0)
(2.38513 -0.787729 0)
(2.77964 -0.437281 0)
(0.861247 0.838828 0)
(1.62119 1.68342 0)
(1.95901 1.51059 0)
(2.20236 0.921802 0)
(2.40477 0.32421 0)
(2.46221 -0.0111852 0)
(2.46476 -0.225288 0)
(2.39556 -0.424741 0)
(2.32545 -0.529189 0)
(2.29042 -0.655364 0)
(2.20028 -0.788893 0)
(2.12103 -0.885316 0)
(2.06607 -0.933772 0)
(2.01634 -0.980238 0)
(1.98481 -0.975495 0)
(1.95797 -0.987128 0)
(1.95672 -1.0112 0)
(1.9717 -0.993479 0)
(1.99542 -0.993992 0)
(2.06924 -0.978854 0)
(0.725835 0.695748 0)
(1.65517 1.55162 0)
(2.02033 1.70773 0)
(2.00227 1.51877 0)
(2.20266 1.24174 0)
(2.39179 0.654035 0)
(2.48354 0.32298 0)
(2.49823 0.118535 0)
(2.44359 -0.110999 0)
(2.45116 -0.224814 0)
(2.39998 -0.400904 0)
(2.3437 -0.530106 0)
(2.29678 -0.616755 0)
(2.23733 -0.703672 0)
(2.18136 -0.764258 0)
(2.13451 -0.806751 0)
(2.07412 -0.876361 0)
(2.04921 -0.910157 0)
(2.03163 -0.940158 0)
(2.05966 -0.954896 0)
(0.782579 0.778346 0)
(1.41819 1.31345 0)
(2.06649 2.04326 0)
(2.19748 1.69884 0)
(2.20059 1.49982 0)
(2.29575 1.20794 0)
(2.39961 0.901114 0)
(2.45655 0.623392 0)
(2.47399 0.426675 0)
(2.50337 0.240162 0)
(2.52488 0.0390309 0)
(2.48815 -0.177713 0)
(2.47101 -0.32954 0)
(2.40322 -0.493559 0)
(2.33941 -0.618904 0)
(2.29397 -0.667996 0)
(2.2232 -0.742189 0)
(2.20853 -0.726576 0)
(2.18868 -0.746073 0)
(2.14734 -0.772734 0)
(0.937628 0.920448 0)
(1.3173 1.31199 0)
(1.75331 2.0329 0)
(2.47012 1.76758 0)
(2.38879 1.66312 0)
(2.41121 1.45089 0)
(2.53602 1.11909 0)
(2.60914 0.730352 0)
(2.625 0.620417 0)
(2.62323 0.336407 0)
(2.65046 0.153315 0)
(2.6036 -0.0839987 0)
(2.59066 -0.211304 0)
(2.52804 -0.364337 0)
(2.48321 -0.437556 0)
(2.44551 -0.447734 0)
(2.41645 -0.436211 0)
(2.40477 -0.420134 0)
(2.32328 -0.53666 0)
(2.3168 -0.52379 0)
(1.1268 1.01692 0)
(1.33672 1.26987 0)
(1.61784 1.82294 0)
(1.93661 1.8094 0)
(2.29692 1.94872 0)
(2.59205 1.66376 0)
(2.75887 1.26389 0)
(2.79308 0.798996 0)
(2.78238 0.61656 0)
(2.71792 0.448107 0)
(2.7114 0.347423 0)
(2.68974 0.199292 0)
(2.67008 0.120615 0)
(2.64515 0.0296754 0)
(2.60425 -0.043649 0)
(2.57848 -0.062858 0)
(2.5582 -0.11127 0)
(2.51253 -0.234056 0)
(2.4405 -0.383293 0)
(2.44255 -0.370471 0)
(1.28305 1.09923 0)
(1.42128 1.24156 0)
(1.57644 1.67827 0)
(1.73326 1.81268 0)
(1.83555 1.98591 0)
(2.16216 1.79538 0)
(2.35779 1.51005 0)
(2.5164 1.27126 0)
(2.59001 1.11535 0)
(2.58571 1.06099 0)
(2.60607 0.895279 0)
(2.63236 0.728192 0)
(2.62765 0.558692 0)
(2.66802 0.460299 0)
(2.64512 0.269033 0)
(2.66728 0.162635 0)
(2.64177 -0.0310678 0)
(2.60152 -0.166093 0)
(2.52923 -0.240536 0)
(2.57282 -0.109268 0)
(1.3809 1.22324 0)
(1.50294 1.33563 0)
(1.52191 1.69706 0)
(1.52565 1.88999 0)
(1.69606 1.97411 0)
(1.96459 1.87959 0)
(2.16624 1.75022 0)
(2.28009 1.61033 0)
(2.34822 1.4319 0)
(2.40173 1.34981 0)
(2.49726 1.13772 0)
(2.59189 0.983788 0)
(2.63451 0.723942 0)
(2.73657 0.597989 0)
(2.71293 0.318625 0)
(2.72519 0.199632 0)
(2.70538 0.041874 0)
(2.66912 0.0445092 0)
(2.64342 0.114439 0)
(2.61628 0.0570842 0)
(1.50493 1.38481 0)
(1.57171 1.50504 0)
(1.4917 1.8652 0)
(1.49355 2.02789 0)
(1.71994 1.97795 0)
(1.8606 1.94487 0)
(2.03265 1.8516 0)
(2.19172 1.65397 0)
(2.29813 1.52396 0)
(2.44412 1.42726 0)
(2.56925 1.13895 0)
(2.69131 0.962211 0)
(2.72099 0.707555 0)
(2.76032 0.60592 0)
(2.76661 0.471227 0)
(2.76019 0.465182 0)
(2.74385 0.379249 0)
(2.71617 0.439215 0)
(2.70792 0.440023 0)
(2.66165 0.228734 0)
(1.65249 1.52967 0)
(1.70314 1.65375 0)
(1.55968 2.07186 0)
(1.61563 2.17021 0)
(1.76107 1.97422 0)
(1.91692 1.96248 0)
(2.07137 1.92239 0)
(2.28157 1.65229 0)
(2.4526 1.59976 0)
(2.60848 1.38845 0)
(2.67324 1.2803 0)
(2.75071 1.10903 0)
(2.74871 1.07451 0)
(2.74418 1.01953 0)
(2.74004 0.920859 0)
(2.71791 0.859563 0)
(2.70305 0.767795 0)
(2.74025 0.762434 0)
(2.73683 0.609118 0)
(2.73304 0.377373 0)
(1.75994 1.61699 0)
(1.90456 1.67974 0)
(1.70246 2.16337 0)
(1.77575 2.19102 0)
(1.96439 2.06225 0)
(2.03596 2.04986 0)
(2.21132 2.02435 0)
(2.38346 1.7985 0)
(2.43562 1.80267 0)
(2.54759 1.57766 0)
(2.58107 1.61428 0)
(2.63955 1.46111 0)
(2.61544 1.40282 0)
(2.61842 1.31313 0)
(2.6391 1.21811 0)