/*--------------------------------*- C++ -*----------------------------------*\
  =========                 |
  \\      /  F ield         | OpenFOAM: The Open Source CFD Toolbox
   \\    /   O peration     | Website:  https://openfoam.org
    \\  /    A nd           | Version:  7
     \\/     M anipulation  |
\*---------------------------------------------------------------------------*/
FoamFile
{
    version     2.0;
    format      ascii;
    class       volScalarField;
    location    "3.1";
    object      T;
}
// * * * * * * * * * * * * * * * * * * * * * * * * * * * * * * * * * * * * * //

dimensions      [0 0 0 1 0 0 0];

internalField   nonuniform List<scalar> 
3700
(
100.639
100.781
100.897
101.019
101.037
101.056
101.058
101.055
101.06
101.103
101.178
101.193
101.186
101.177
101.164
101.147
101.115
101.08
101.07
101.068
100.282
100.276
100.334
100.398
100.462
100.546
100.607
100.57
100.504
100.524
100.626
100.679
100.675
100.668
100.659
100.615
100.508
100.405
100.413
100.437
100.204
100.184
100.121
100.005
99.8902
99.8874
99.9299
99.995
100.023
100.049
100.07
100.064
100.049
100.032
100.009
99.9955
99.9939
100.005
100.023
100.042
100.152
100.105
100.042
99.9059
99.8338
99.8578
99.9097
99.9629
99.9909
100.035
100.076
100.093
100.106
100.111
100.102
100.086
100.056
100.029
100.028
100.067
100.111
100.031
99.9083
99.8288
99.8283
99.8566
99.9068
99.9491
99.9734
100.01
100.041
100.072
100.11
100.133
100.142
100.147
100.139
100.122
100.092
100.091
100.052
99.9663
99.8546
99.8334
99.8815
99.9409
99.9753
99.9698
99.9814
100.016
100.032
100.054
100.084
100.121
100.148
100.168
100.183
100.188
100.186
100.191
99.9834
99.9436
99.8721
99.8929
99.9852
100.037
100.049
100.066
100.084
100.105
100.078
100.079
100.084
100.108
100.132
100.163
100.198
100.227
100.24
100.269
99.9283
99.9366
99.9291
99.9585
100.063
100.104
100.078
100.112
100.169
100.184
100.187
100.185
100.18
100.18
100.177
100.183
100.207
100.253
100.282
100.327
99.8851
99.9455
99.9562
99.9966
100.099
100.155
100.102
100.127
100.206
100.23
100.249
100.256
100.275
100.279
100.285
100.29
100.296
100.311
100.332
100.387
99.8776
99.9462
99.9531
99.9947
100.095
100.162
100.142
100.168
100.216
100.249
100.277
100.296
100.328
100.339
100.353
100.365
100.378
100.393
100.416
100.452
99.8951
99.9267
99.8911
99.9695
100.096
100.152
100.168
100.232
100.273
100.301
100.316
100.336
100.363
100.38
100.4
100.423
100.446
100.465
100.505
100.495
99.9759
99.8974
99.8645
99.9931
100.134
100.185
100.242
100.314
100.358
100.401
100.42
100.438
100.447
100.453
100.461
100.479
100.508
100.536
100.58
100.572
99.9808
99.8358
99.8784
100.058
100.16
100.228
100.308
100.367
100.423
100.472
100.49
100.51
100.525
100.537
100.551
100.569
100.59
100.613
100.652
100.656
99.96
99.8044
99.8906
100.071
100.156
100.226
100.35
100.406
100.469
100.519
100.544
100.569
100.59
100.61
100.637
100.662
100.686
100.709
100.726
100.736
99.901
99.744
99.8021
99.9855
100.137
100.357
100.455
100.522
100.587
100.614
100.629
100.646
100.667
100.693
100.725
100.75
100.77
100.783
100.78
100.776
99.6789
99.6673
99.7255
100.083
100.364
100.575
100.633
100.676
100.708
100.723
100.734
100.75
100.772
100.795
100.814
100.823
100.82
100.814
100.79
100.747
99.4116
99.6893
100.133
100.444
100.627
100.702
100.743
100.776
100.796
100.805
100.816
100.833
100.852
100.856
100.855
100.843
100.791
100.678
100.518
100.28
99.4277
100.079
100.489
100.668
100.773
100.811
100.839
100.861
100.875
100.88
100.879
100.881
100.881
100.858
100.771
100.619
100.355
100.1
100.005
99.9978
100.116
100.525
100.738
100.834
100.881
100.904
100.925
100.925
100.919
100.907
100.892
100.836
100.723
100.468
100.147
100.01
99.9967
99.9985
99.9992
99.9998
100.694
100.834
100.91
100.943
100.96
100.957
100.957
100.932
100.847
100.763
100.573
100.229
100.029
99.9957
99.9977
99.9989
99.9998
100
100
100
100.996
100.993
100.989
100.985
100.979
100.958
100.886
100.444
99.8536
100
100
100
100
100
100
100
100
100
100
100
100.998
100.995
100.987
100.972
100.949
100.853
100.489
100.014
100
100
100
100
100
100
100
100
100
100
100
100
100.994
100.995
100.989
100.965
100.912
100.622
100.036
99.9993
100
100
100
100
100
100
100
100
100
100
100
100
100.988
100.995
100.99
100.955
100.787
100.214
99.9968
100
100
100
100
100
100
100
100
100
100
100
100
100
100.981
100.991
100.988
100.924
100.576
99.9921
100
100
100
100
100
100
100
100
100
100
100
100
100
100
100.975
100.986
100.982
100.843
100.283
100
100
100
100
100
100
100
100
100
100
100
100
100
100
100
100.973
100.98
100.969
100.7
99.9926
100
100
100
100
100
100
100
100
100
100
100
100
100
100
100
100.983
100.973
100.911
100.467
100
100
100
100
100
100
100
100
100
100
100
100
100
100
100
100
101.004
100.972
100.815
100.116
100
100
100
100
100
100
100
100
100
100
100
100
100
100
100
100
101.015
100.94
100.683
99.9965
100
100
100
100
100
100
100
100
100
100
100
100
100
100
100
100
101.025
100.91
100.51
100
100
100
100
100
100
100
100
100
100
100
100
100
100
100
100
100
101.028
100.859
100.334
100
100
100
100
100
100
100
100
100
100
100
100
100
100
100
100
100
101.031
100.801
100.113
100
100
100
100
100
100
100
100
100
100
100
100
100
100
100
100
100
101.022
100.726
100
100
100
100
100
100
100
100
100
100
100
100
100
100
100
100
100
100
101.01
100.653
100
100
100
100
100
100
100
100
100
100
100
100
100
100
100
100
100
100
100.99
100.573
100
100
100
100
100
100
100
100
100
100
100
100
100
100
100
100
100
100
100.964
100.46
100
100
100
100
100
100
100
100
100
100
100
100
100
100
100
100
100
100
100.912
100.242
100
100
100
100
100
100
100
100
100
100
100
100
100
100
100
100
100
100
100.849
100.005
100
100
100
100
100
100
100
100
100
100
100
100
100
100
100
100
100
100
100.809
100
100
100
100
100
100
100
100
100
100
100
100
100
100
100
100
100
100
100
100.809
100
100
100
100
100
100
100
100
100
100
100
100
100
100
100
100
100
100
100
100.85
100.005
100
100
100
100
100
100
100
100
100
100
100
100
100
100
100
100
100
100
100.911
100.239
100
100
100
100
100
100
100
100
100
100
100
100
100
100
100
100
100
100
100.965
100.456
100
100
100
100
100
100
100
100
100
100
100
100
100
100
100
100
100
100
100.99
100.576
100
100
100
100
100
100
100
100
100
100
100
100
100
100
100
100
100
100
101.01
100.653
100
100
100
100
100
100
100
100
100
100
100
100
100
100
100
100
100
100
101.022
100.725
100
100
100
100
100
100
100
100
100
100
100
100
100
100
100
100
100
100
101.031
100.8
100.113
100
100
100
100
100
100
100
100
100
100
100
100
100
100
100
100
100
101.028
100.859
100.335
100
100
100
100
100
100
100
100
100
100
100
100
100
100
100
100
100
101.024
100.911
100.511
100
100
100
100
100
100
100
100
100
100
100
100
100
100
100
100
100
101.015
100.941
100.684
99.9965
100
100
100
100
100
100
100
100
100
100
100
100
100
100
100
100
101.004
100.972
100.816
100.118
100
100
100
100
100
100
100
100
100
100
100
100
100
100
100
100
100.984
100.974
100.912
100.468
100
100
100
100
100
100
100
100
100
100
100
100
100
100
100
100
100.973
100.981
100.969
100.699
99.9926
100
100
100
100
100
100
100
100
100
100
100
100
100
100
100
100.975
100.986
100.982
100.842
100.281
100
100
100
100
100
100
100
100
100
100
100
100
100
100
100
100.98
100.991
100.987
100.923
100.576
99.992
100
100
100
100
100
100
100
100
100
100
100
100
100
100
100.988
100.995
100.99
100.955
100.789
100.217
99.9967
100
100
100
100
100
100
100
100
100
100
100
100
100
100.994
100.995
100.989
100.965
100.912
100.623
100.036
99.9993
100
100
100
100
100
100
100
100
100
100
100
100
100.998
100.995
100.987
100.972
100.949
100.854
100.487
100.013
100
100
100
100
100
100
100
100
100
100
100
100
100.997
100.994
100.99
100.985
100.979
100.957
100.885
100.444
99.8531
100
100
100
100
100
100
100
100
100
100
100
100.694
100.834
100.91
100.943
100.96
100.957
100.956
100.932
100.846
100.762
100.571
100.228
100.028
99.9957
99.9978
99.9989
99.9998
100
100
100
100.112
100.528
100.741
100.835
100.882
100.904
100.924
100.925
100.919
100.907
100.892
100.836
100.722
100.467
100.146
100.01
99.9967
99.9985
99.9992
99.9998
99.4941
100.054
100.481
100.663
100.772
100.812
100.84
100.861
100.875
100.88
100.879
100.881
100.881
100.857
100.77
100.619
100.355
100.1
100.005
99.9978
99.4551
99.6097
100.106
100.437
100.626
100.701
100.742
100.776
100.796
100.806
100.816
100.833
100.852
100.856
100.855
100.843
100.791
100.678
100.519
100.281
99.7356
99.6709
99.7278
100.098
100.366
100.575
100.634
100.678
100.709
100.723
100.734
100.75
100.772
100.796
100.814
100.823
100.82
100.814
100.79
100.747
99.8231
99.7017
99.756
100.01
100.143
100.362
100.459
100.526
100.589
100.616
100.631
100.647
100.667
100.693
100.725
100.75
100.77
100.783
100.78
100.776
99.8283
99.6859
99.8466
100.09
100.156
100.217
100.344
100.403
100.469
100.519
100.545
100.569
100.59
100.61
100.636
100.662
100.686
100.709
100.726
100.736
99.8557
99.7049
99.8672
100.078
100.16
100.231
100.31
100.367
100.423
100.472
100.49
100.51
100.525
100.536
100.551
100.569
100.59
100.614
100.652
100.656
99.8982
99.7744
99.8772
100.01
100.14
100.205
100.252
100.318
100.358
100.4
100.419
100.437
100.447
100.453
100.461
100.478
100.508
100.536
100.58
100.572
99.9076
99.9123
99.9335
99.9987
100.105
100.173
100.179
100.237
100.274
100.299
100.315
100.335
100.362
100.378
100.398
100.422
100.446
100.465
100.505
100.496
99.9287
100.012
100.019
100.022
100.093
100.173
100.147
100.173
100.218
100.248
100.275
100.294
100.327
100.338
100.352
100.365
100.378
100.393
100.417
100.452
99.9432
100.012
100.017
100.015
100.082
100.154
100.109
100.134
100.206
100.229
100.247
100.255
100.274
100.279
100.285
100.291
100.297
100.312
100.332
100.386
99.9634
99.9851
99.9822
99.9725
100.04
100.098
100.087
100.112
100.166
100.179
100.184
100.183
100.181
100.182
100.179
100.184
100.205
100.251
100.281
100.326
100.005
99.9621
99.9338
99.9198
99.9655
100.03
100.051
100.059
100.077
100.096
100.072
100.075
100.081
100.103
100.127
100.159
100.195
100.225
100.239
100.268
100.07
99.9929
99.911
99.8666
99.8683
99.9303
99.9716
99.9554
99.9653
100.001
100.021
100.044
100.075
100.112
100.142
100.165
100.181
100.187
100.185
100.19
100.138
100.068
99.9851
99.8646
99.8221
99.8465
99.8913
99.9249
99.9544
99.9939
100.026
100.058
100.1
100.126
100.138
100.146
100.138
100.12
100.092
100.09
100.185
100.157
100.093
99.9605
99.8354
99.849
99.8942
99.9382
99.9692
100.014
100.061
100.082
100.099
100.107
100.101
100.087
100.053
100.025
100.025
100.067
100.232
100.208
100.137
100.027
99.9068
99.8686
99.9127
99.9696
100.003
100.035
100.06
100.062
100.052
100.034
100.012
99.9976
99.9957
100.008
100.026
100.044
100.294
100.363
100.44
100.456
100.474
100.425
100.331
100.361
100.459
100.487
100.491
100.509
100.545
100.54
100.493
100.489
100.519
100.531
100.507
100.42
100.661
100.85
100.96
101.062
101.085
101.071
101.037
101.022
101.06
101.115
101.139
101.149
101.149
101.144
101.132
101.126
101.118
101.106
101.09
101.063
101.046
101.02
101.006
100.994
100.963
100.938
100.919
100.905
100.883
100.866
100.86
100.856
100.855
100.848
100.831
100.806
100.778
100.76
100.758
100.748
100.55
100.607
100.71
100.749
100.77
100.782
100.792
100.805
100.809
100.808
100.803
100.799
100.799
100.795
100.783
100.766
100.747
100.731
100.73
100.726
100.033
100.042
100.187
100.304
100.422
100.499
100.561
100.607
100.651
100.679
100.68
100.68
100.682
100.682
100.678
100.673
100.663
100.657
100.662
100.669
100.086
100.093
100.097
100.093
100.113
100.188
100.334
100.42
100.493
100.549
100.566
100.564
100.564
100.567
100.568
100.568
100.565
100.563
100.57
100.592
100.124
100.141
100.142
100.139
100.124
100.117
100.136
100.21
100.347
100.456
100.486
100.497
100.494
100.491
100.492
100.495
100.494
100.49
100.495
100.518
100.176
100.183
100.183
100.175
100.158
100.154
100.152
100.153
100.18
100.294
100.411
100.465
100.464
100.458
100.45
100.449
100.451
100.447
100.45
100.467
100.238
100.229
100.228
100.222
100.209
100.202
100.197
100.186
100.175
100.184
100.251
100.377
100.444
100.443
100.433
100.424
100.423
100.423
100.425
100.435
100.307
100.278
100.268
100.262
100.25
100.236
100.222
100.205
100.192
100.179
100.185
100.225
100.344
100.42
100.417
100.409
100.404
100.405
100.408
100.416
100.369
100.336
100.311
100.3
100.287
100.271
100.255
100.233
100.208
100.194
100.182
100.187
100.214
100.314
100.379
100.387
100.382
100.385
100.395
100.401
100.436
100.397
100.354
100.336
100.318
100.302
100.284
100.259
100.219
100.204
100.197
100.187
100.189
100.2
100.269
100.331
100.34
100.357
100.381
100.386
100.534
100.465
100.388
100.339
100.325
100.329
100.323
100.3
100.264
100.23
100.213
100.204
100.198
100.19
100.18
100.202
100.246
100.288
100.335
100.347
100.615
100.548
100.488
100.421
100.361
100.35
100.343
100.319
100.285
100.253
100.221
100.213
100.207
100.189
100.171
100.155
100.138
100.15
100.204
100.272
100.608
100.585
100.541
100.488
100.428
100.366
100.335
100.315
100.304
100.285
100.255
100.235
100.219
100.196
100.172
100.153
100.13
100.103
100.095
100.15
100.488
100.547
100.541
100.516
100.478
100.422
100.369
100.331
100.322
100.302
100.268
100.236
100.208
100.187
100.168
100.151
100.13
100.105
100.082
100.051
100.25
100.377
100.446
100.483
100.475
100.449
100.409
100.361
100.322
100.29
100.264
100.236
100.209
100.187
100.174
100.156
100.133
100.109
100.081
100.033
100.043
100.146
100.254
100.336
100.388
100.415
100.405
100.381
100.342
100.3
100.273
100.246
100.222
100.198
100.17
100.14
100.115
100.094
100.071
100.029
100.002
100.015
100.066
100.155
100.233
100.29
100.329
100.349
100.339
100.315
100.282
100.246
100.213
100.19
100.16
100.128
100.104
100.086
100.072
100.037
100
100
100.003
100.025
100.078
100.149
100.208
100.25
100.279
100.291
100.282
100.26
100.227
100.198
100.168
100.144
100.123
100.09
100.062
100.027
100
100
100
100.001
100.006
100.031
100.081
100.139
100.187
100.216
100.24
100.245
100.237
100.214
100.186
100.156
100.124
100.094
100.059
100.014
100
100
100
100
100
100.001
100.008
100.032
100.078
100.128
100.169
100.192
100.211
100.209
100.201
100.181
100.149
100.119
100.09
100.04
100
100
100
100
100
100
100
100.001
100.008
100.032
100.072
100.118
100.154
100.175
100.185
100.181
100.172
100.153
100.125
100.078
100
100
100
100
100
100
100
100
100
100.002
100.008
100.028
100.065
100.108
100.139
100.16
100.159
100.154
100.144
100.116
100
100
100
100
100
100
100
100
100
100
100
100.001
100.007
100.025
100.057
100.095
100.121
100.135
100.133
100.121
100
100
100
100
100
100
100
100
100
100
100
100
100
100.001
100.006
100.019
100.044
100.073
100.094
100.102
100
100
100
100
100
100
100
100
100
100
100
100
100
100
100
100.001
100.004
100.012
100.028
100.056
100.597
100.653
100.609
100.415
100.142
100.017
100.001
100
100
100
100
100
100
100
100
100.673
100.663
100.517
100.217
100.022
100
100
100
100
100
100
100
100
100
100
100.705
100.635
100.372
100.074
100.002
100
100
100
100
100
100
100
100
100
100
100.72
100.518
100.167
100.009
100
100
100
100
100
100
100
100
100
100
100
100.654
100.286
100.024
100
100
100
100
100
100
100
100
100
100
100
100
100.397
100.039
100
100
100
100
100
100
100
100
100
100
100
100
100
100.043
100
100
100
100
100
100
100
100
100
100
100
100
100
100
99.9995
100
100
100
100
100
100
100
100
100
100
100
100
100
100
100
100
100
100
100
100
100
100
100
100
100
100
100
100
100
100
100
100
100
100
100
100
100
100
100
100
100
100
100
100
100
100
100
100
100
100
100
100
100
100
100
100
100
100
100
100
100
100
100
100
100
100
100
100
100
100
100
100
100
100
100
100
100
100
100
100
100
100
100
100
100
100
100
100
100
100
100
100
100
100
100
100
100
100
100
100
100
100
100
100
100
100
100
100
100
100
100
100
100
100
100
100
100
100
100
100
100
100
100
100
100
100
100
100
100
100
100
100
100
100
100
100
100
100
100
100
100
100
100
100
100
100
100
100
100
100
100
100
100
100
100
100
100
100
100
100
100
100
100
100
100
100
100
100
100
100
100
100
100
100
100
100
100
100
100
100
100
100
100
100
100
100
100
100
100
100
100
100
100
100
100
100
100
100
100
100
100
100
100
100
100
100
100
100
100
100
100
100
100
100
100
100
100
100
100
100
100
100
100
100
100
100
100
100
100
100
100
100
100
100
100
100
100
100
100
100
100
100
100
100
100
100
100
100
100
100
100
100
100
100
100
100
100
100
100
100
100
100
100
100
100
100
100
100
100
100
100
100
100
100
100
100
100
100
100
100
100
100
100
100
100
100
100
100
100
100
100
100
100
100
100
100
100
100
100
100
100
100
100
100
100
100
100
100
100
100
100
100
100
100
100
100
100
100
100
100
100
100
100
100
100
100
100
100
100
100
100
100
100
100
100
100
100
100
100
100
100
100
100
100
100
100
100
100
100
100
100
100
100
100
100
100
100
100
100
100
100
100
100
100
100
100
100
100
100
100
100
100
100
100
100
100
100
100
100
100
100
100
100
100
100
100
100
100
100
100
100
100
100
100
100
100
100
100
100
100
100
100
100
100
100
100
100
100
100
100
100
100
100
100
100
100
100
100
100
100
100
100
100
100
100
100
100
100
100
100
100
100
100
100
100
100
100
100
100
100
100
100
100
100
100
100
100
100
100
100
100
100
100
100
100
100
100
100
100
100
100
100
100
100
100
100
100
100
100
100
100
100
100
100
100
100
100
100
100
100
100
100
100
100
100
100
100
100
100
100
100
100
100
100
100
100
100
100
100
100
100
100
100
100
100
100
100
100
100
100
100
100
100
100
100
100
100
100
100
100
100
100
100
100
100
100
100
100
100
100
100
100
100
100
100
100
100
100
100
100
100
100
100
100
100
100
100
100
100
100
100
100
100
100
100
100
100
100
100
100
100
100
100
100
100
100
100
100
100
100
100
100
100
100
100
100
100
100
100
100
100
100
100
100
100
100
100
100
100
100
100
100
100
100
100
100
100
100
100
100
100
100
100
100
100
100
100
100
100
100
100
100
100
100
100
100
100
100
100
100
100
100
100
100
100
100
100
100
100
100
100
100
100
100
100
100
100
100
100
100
100
100
100
100
100
100
100
100
100
100
100
100
100
100
100
100
100
100
100
100
100
100
100
100
100
100
100
100
100
100
100
100
100
100
100
100
100
100
100
100
100
100
100
100
100
100
100
100
100
100
100
100
100
100
100
100
100
100
100
100
100
100
100
100
100
100
100
100
100
100
100
100
100
100
100
100
100
100
100
100
100
100
100
100
100
100
100
100
100
100
100
100
100
100
100
100
100
100
100
100
100
100
100
100
100
100
100
100
100
100
100
100
100
100
100
100
100
100
100
100
100
100
100
100
100
100
100
100
100
100
100
100
100
100
100
100
100
100
100
100
100
100
100
100
100
100
100
100
100
100
100
100
100
100
100
100
100
100
100
100
100
100
100
100
100
100
100
100
100
100
100
100
100
100
100
100
100
100
100
100
100
100
100
100
100
100
100
100
100
100
100
100
100
100
100
100
100
100
100
100
100
100
100
100
100
100
100
100
100
100
100
100
100
100
100
100
100
100
100
100
100
100
100
100
100
100
100
100
100
100
100
100
100
100
99.9995
100
100
100
100
100
100
100
100
100
100
100
100
100
100
100.043
100
100
100
100
100
100
100
100
100
100
100
100
100
100
100.398
100.039
100
100
100
100
100
100
100
100
100
100
100
100
100
100.654
100.286
100.024
100
100
100
100
100
100
100
100
100
100
100
100
100.72
100.518
100.167
100.009
100
100
100
100
100
100
100
100
100
100
100
100.705
100.635
100.373
100.074
100.002
100
100
100
100
100
100
100
100
100
100
100.673
100.663
100.517
100.217
100.022
100
100
100
100
100
100
100
100
100
100
100.597
100.653
100.609
100.415
100.142
100.017
100.001
100
100
100
100
100
100
100
100
100.534
100.615
100.608
100.488
100.25
100.043
100.002
100
100
100
100
100
100
100
100
100.464
100.548
100.585
100.547
100.377
100.146
100.015
100
100
100
100
100
100
100
100
100.388
100.489
100.541
100.541
100.446
100.254
100.066
100.003
100
100
100
100
100
100
100
100.339
100.421
100.488
100.516
100.483
100.336
100.155
100.025
100.001
100
100
100
100
100
100
100.324
100.361
100.428
100.477
100.475
100.389
100.234
100.078
100.006
100
100
100
100
100
100
100.328
100.35
100.367
100.422
100.449
100.415
100.29
100.149
100.031
100.001
100
100
100
100
100
100.323
100.343
100.334
100.369
100.409
100.405
100.329
100.208
100.081
100.008
100
100
100
100
100
100.3
100.319
100.314
100.331
100.361
100.381
100.349
100.25
100.139
100.032
100.001
100
100
100
100
100.263
100.285
100.304
100.322
100.322
100.341
100.339
100.279
100.187
100.078
100.008
100
100
100
100
100.23
100.253
100.285
100.302
100.29
100.3
100.315
100.291
100.216
100.128
100.032
100.002
100
100
100
100.213
100.221
100.255
100.268
100.264
100.273
100.282
100.282
100.24
100.169
100.072
100.008
100
100
100
100.204
100.213
100.235
100.236
100.236
100.246
100.246
100.26
100.245
100.192
100.118
100.028
100.001
100
100
100.198
100.207
100.219
100.208
100.209
100.222
100.213
100.227
100.237
100.211
100.154
100.065
100.007
100
100
100.189
100.189
100.196
100.187
100.187
100.198
100.19
100.198
100.214
100.209
100.175
100.108
100.025
100.001
100
100.179
100.171
100.172
100.167
100.174
100.17
100.16
100.168
100.186
100.201
100.185
100.139
100.057
100.006
100
100.202
100.155
100.153
100.15
100.156
100.14
100.128
100.144
100.156
100.181
100.181
100.16
100.095
100.019
100.001
100.246
100.138
100.131
100.129
100.133
100.115
100.104
100.123
100.124
100.149
100.172
100.159
100.121
100.044
100.004
100.287
100.15
100.104
100.105
100.109
100.094
100.086
100.09
100.095
100.119
100.153
100.154
100.135
100.073
100.012
100.334
100.203
100.095
100.082
100.081
100.071
100.071
100.062
100.06
100.09
100.125
100.144
100.133
100.094
100.028
100.347
100.271
100.15
100.052
100.034
100.029
100.037
100.026
100.014
100.04
100.078
100.116
100.121
100.102
100.056
100.436
100.397
100.354
100.336
100.317
100.299
100.282
100.258
100.219
100.204
100.197
100.187
100.189
100.2
100.266
100.332
100.341
100.357
100.381
100.386
100.369
100.336
100.311
100.301
100.286
100.271
100.256
100.235
100.209
100.195
100.182
100.187
100.214
100.313
100.378
100.388
100.382
100.386
100.395
100.402
100.307
100.277
100.268
100.262
100.25
100.237
100.223
100.205
100.193
100.18
100.185
100.226
100.345
100.421
100.418
100.409
100.404
100.405
100.408
100.416
100.237
100.232
100.224
100.217
100.208
100.203
100.197
100.186
100.175
100.184
100.25
100.377
100.444
100.444
100.433
100.424
100.423
100.423
100.424
100.435
100.179
100.179
100.188
100.181
100.166
100.158
100.152
100.153
100.181
100.294
100.409
100.464
100.464
100.458
100.45
100.448
100.45
100.447
100.45
100.467
100.126
100.139
100.136
100.135
100.117
100.116
100.136
100.214
100.349
100.455
100.486
100.497
100.494
100.491
100.492
100.494
100.494
100.49
100.495
100.519
100.086
100.095
100.105
100.094
100.109
100.186
100.337
100.425
100.494
100.547
100.567
100.565
100.565
100.568
100.569
100.569
100.567
100.565
100.572
100.593
100.033
100.072
100.183
100.281
100.41
100.505
100.567
100.61
100.649
100.676
100.683
100.684
100.687
100.687
100.683
100.677
100.668
100.663
100.667
100.672
100.586
100.666
100.711
100.72
100.752
100.787
100.8
100.807
100.808
100.807
100.807
100.804
100.803
100.8
100.789
100.773
100.754
100.737
100.735
100.728
101.056
101.043
101.01
100.982
100.954
100.936
100.921
100.91
100.888
100.87
100.864
100.859
100.858
100.853
100.838
100.814
100.784
100.762
100.76
100.749
)
;

boundaryField
{
    inlet
    {
        type            fixedValue;
        value           uniform 100;
    }
    outlet
    {
        type            inletOutlet;
        inletValue      uniform 100;
        value           nonuniform List<scalar> 
50
(
100.347
100.272
100.15
100.051
100.033
100.028
100.037
100.027
100.014
100.04
100.078
100.116
100.121
100.102
100.056
100.748
100.726
100.669
100.592
100.518
100.467
100.435
100.416
100.401
100.386
100.386
100.402
100.416
100.435
100.467
100.519
100.593
100.671
100.728
100.749
100.347
100.271
100.15
100.051
100.033
100.028
100.037
100.026
100.014
100.04
100.078
100.116
100.121
100.102
100.056
)
;
    }
    airfoil
    {
        type            zeroGradient;
    }
    top
    {
        type            symmetryPlane;
    }
    bottom
    {
        type            symmetryPlane;
    }
    defaultFaces
    {
        type            empty;
    }
}


// ************************************************************************* //
