/*--------------------------------*- C++ -*----------------------------------*\
  =========                 |
  \\      /  F ield         | OpenFOAM: The Open Source CFD Toolbox
   \\    /   O peration     | Website:  https://openfoam.org
    \\  /    A nd           | Version:  7
     \\/     M anipulation  |
\*---------------------------------------------------------------------------*/
FoamFile
{
    version     2.0;
    format      ascii;
    class       volVectorField;
    location    "3.1";
    object      U;
}
// * * * * * * * * * * * * * * * * * * * * * * * * * * * * * * * * * * * * * //

dimensions      [0 1 -1 0 0 0 0];

internalField   nonuniform List<vector> 
3700
(
(1.47411 -0.513946 0)
(1.45894 -0.609375 0)
(1.4821 -0.417033 0)
(1.53539 -0.351489 0)
(1.55901 -0.291316 0)
(1.5005 -0.258529 0)
(1.49732 -0.19713 0)
(1.49206 -0.222008 0)
(1.52814 -0.309568 0)
(1.51545 -0.28943 0)
(1.49506 -0.19651 0)
(1.51005 -0.126345 0)
(1.56605 -0.125693 0)
(1.61033 -0.108718 0)
(1.65048 -0.0811846 0)
(1.69923 -0.106957 0)
(1.74979 -0.189654 0)
(1.80266 -0.274219 0)
(1.83633 -0.28647 0)
(1.87979 -0.203094 0)
(1.99468 -1.46686 0)
(1.97368 -1.42023 0)
(2.0723 -1.51677 0)
(2.10595 -1.65554 0)
(1.97818 -1.7037 0)
(1.80614 -1.5952 0)
(1.76722 -1.43816 0)
(1.72828 -1.49603 0)
(1.80869 -1.61066 0)
(1.77839 -1.44991 0)
(1.76591 -1.23818 0)
(1.81322 -1.05222 0)
(1.91571 -0.994321 0)
(1.98571 -0.953573 0)
(2.05242 -0.925316 0)
(2.12614 -0.958238 0)
(2.23168 -1.14731 0)
(2.26313 -1.25695 0)
(2.26408 -1.29023 0)
(2.26188 -1.20667 0)
(1.95793 -1.49088 0)
(2.07665 -1.35569 0)
(2.22347 -1.52345 0)
(2.33017 -1.80096 0)
(2.11771 -2.19005 0)
(2.00548 -2.31866 0)
(2.00971 -2.25943 0)
(1.924 -2.24996 0)
(1.97946 -2.16599 0)
(2.06596 -2.04768 0)
(2.15358 -2.0398 0)
(2.21575 -1.92864 0)
(2.30275 -1.88053 0)
(2.39797 -1.82858 0)
(2.49456 -1.77899 0)
(2.58757 -1.72005 0)
(2.60167 -1.70381 0)
(2.61414 -1.67 0)
(2.57922 -1.65265 0)
(2.5491 -1.6036 0)
(1.90907 -1.57736 0)
(2.01803 -1.49403 0)
(2.04243 -1.78411 0)
(1.99467 -2.06953 0)
(1.99387 -2.23998 0)
(2.00485 -2.33299 0)
(2.04106 -2.25858 0)
(2.02567 -2.17912 0)
(2.11178 -2.07913 0)
(2.24099 -1.95882 0)
(2.22645 -2.02867 0)
(2.3221 -1.87605 0)
(2.36113 -1.78833 0)
(2.42346 -1.70631 0)
(2.51909 -1.62254 0)
(2.66509 -1.5042 0)
(2.71787 -1.37279 0)
(2.79814 -1.28909 0)
(2.82052 -1.27764 0)
(2.73454 -1.34211 0)
(1.82124 -1.63855 0)
(1.88136 -1.64001 0)
(1.77459 -1.94124 0)
(1.7871 -2.16877 0)
(1.85834 -2.27298 0)
(1.92689 -2.27763 0)
(2.04258 -2.23505 0)
(2.15872 -2.0565 0)
(2.21272 -2.01592 0)
(2.33317 -1.85107 0)
(2.36439 -1.85989 0)
(2.48028 -1.71846 0)
(2.48986 -1.70085 0)
(2.48716 -1.63805 0)
(2.52459 -1.55375 0)
(2.59536 -1.44964 0)
(2.63804 -1.3319 0)
(2.76106 -1.20605 0)
(2.82704 -0.963798 0)
(2.84332 -0.875893 0)
(1.54851 -1.59452 0)
(1.63792 -1.68643 0)
(1.56784 -2.07508 0)
(1.72383 -2.18541 0)
(1.59633 -2.28641 0)
(1.83643 -2.15244 0)
(1.97255 -2.10209 0)
(2.16908 -1.79475 0)
(2.30359 -1.77424 0)
(2.47021 -1.71859 0)
(2.51847 -1.6484 0)
(2.56486 -1.56764 0)
(2.62964 -1.45627 0)
(2.63697 -1.44755 0)
(2.64868 -1.37597 0)
(2.63825 -1.31621 0)
(2.63575 -1.19971 0)
(2.69275 -1.15816 0)
(2.73039 -1.03865 0)
(2.82031 -0.802035 0)
(1.39873 -1.41212 0)
(1.47069 -1.68527 0)
(1.52411 -2.07893 0)
(1.68331 -2.18323 0)
(1.61809 -2.26235 0)
(1.80774 -2.1269 0)
(1.95504 -2.0071 0)
(2.0928 -1.73141 0)
(2.17897 -1.66547 0)
(2.37693 -1.5933 0)
(2.50788 -1.39931 0)
(2.63879 -1.34137 0)
(2.7086 -1.16318 0)
(2.73209 -1.14121 0)
(2.76216 -1.0131 0)
(2.74784 -1.0083 0)
(2.73045 -0.906571 0)
(2.71075 -0.898751 0)
(2.71995 -0.907865 0)
(2.73682 -0.6937 0)
(1.256 -1.28685 0)
(1.36918 -1.73689 0)
(1.58206 -2.08615 0)
(1.77332 -2.17563 0)
(1.73676 -2.25788 0)
(1.871 -2.14551 0)
(2.05306 -1.9208 0)
(2.14161 -1.68845 0)
(2.15655 -1.63667 0)
(2.28239 -1.59547 0)
(2.40847 -1.36502 0)
(2.56957 -1.29951 0)
(2.62523 -1.03739 0)
(2.74398 -0.938367 0)
(2.76007 -0.681011 0)
(2.76922 -0.617446 0)
(2.76715 -0.529124 0)
(2.75508 -0.479513 0)
(2.72665 -0.615031 0)
(2.69398 -0.494545 0)
(1.13965 -1.20047 0)
(1.36104 -1.82599 0)
(1.7582 -2.13465 0)
(1.91738 -2.239 0)
(2.05237 -2.18798 0)
(2.22898 -2.06102 0)
(2.20771 -1.72297 0)
(2.27796 -1.52047 0)
(2.34689 -1.52745 0)
(2.36811 -1.52422 0)
(2.45355 -1.32977 0)
(2.53568 -1.21362 0)
(2.57629 -1.0111 0)
(2.68118 -0.929549 0)
(2.69674 -0.684655 0)
(2.75002 -0.538187 0)
(2.75551 -0.347447 0)
(2.74608 -0.175545 0)
(2.70237 -0.216252 0)
(2.67232 -0.198297 0)
(1.07142 -1.22971 0)
(1.4713 -1.97094 0)
(1.93732 -2.27223 0)
(2.12226 -2.40639 0)
(2.51214 -2.16746 0)
(2.57114 -1.9363 0)
(2.55578 -1.56098 0)
(2.57671 -1.36872 0)
(2.60559 -1.23109 0)
(2.66547 -1.1152 0)
(2.67801 -1.06012 0)
(2.68946 -0.872479 0)
(2.66442 -0.775764 0)
(2.68669 -0.691878 0)
(2.67635 -0.547799 0)
(2.68452 -0.450993 0)
(2.70277 -0.328463 0)
(2.68674 -0.138252 0)
(2.65267 0.0124657 0)
(2.61645 0.0452158 0)
(1.09228 -1.30014 0)
(1.57078 -2.07756 0)
(2.05619 -2.33589 0)
(2.42601 -2.32721 0)
(2.45211 -2.02433 0)
(2.47937 -1.82857 0)
(2.62316 -1.34191 0)
(2.68306 -1.22207 0)
(2.77233 -1.12101 0)
(2.7642 -0.698453 0)
(2.77967 -0.568626 0)
(2.74516 -0.351486 0)
(2.73225 -0.299722 0)
(2.71662 -0.19765 0)
(2.69474 -0.144544 0)
(2.65932 -0.113135 0)
(2.63719 -0.105133 0)
(2.62165 -0.0495119 0)
(2.55766 0.134445 0)
(2.57242 0.134795 0)
(1.23704 -1.54305 0)
(1.75411 -2.27773 0)
(2.12894 -2.27774 0)
(2.17906 -1.95574 0)
(2.15809 -1.86265 0)
(2.24424 -1.6332 0)
(2.38944 -1.29629 0)
(2.46414 -1.11402 0)
(2.50277 -1.00404 0)
(2.56274 -0.758174 0)
(2.65342 -0.561072 0)
(2.64587 -0.270531 0)
(2.66113 -0.0901076 0)
(2.63521 0.0913266 0)
(2.60064 0.224045 0)
(2.56823 0.271674 0)
(2.53104 0.296233 0)
(2.52857 0.214274 0)
(2.45502 0.316974 0)
(2.47491 0.284583 0)
(1.32532 -1.68988 0)
(1.69905 -2.27244 0)
(1.8416 -2.0597 0)
(1.94103 -1.81296 0)
(2.06068 -1.74939 0)
(2.24313 -1.39021 0)
(2.32278 -1.20155 0)
(2.42089 -0.989191 0)
(2.4694 -0.721569 0)
(2.50201 -0.589197 0)
(2.55562 -0.393098 0)
(2.54941 -0.171288 0)
(2.55435 -0.00279882 0)
(2.53759 0.159516 0)
(2.48842 0.335001 0)
(2.46664 0.419666 0)
(2.38706 0.556372 0)
(2.35145 0.54978 0)
(2.3131 0.577452 0)
(2.32782 0.523132 0)
(1.28551 -1.70502 0)
(1.58623 -2.18906 0)
(1.76749 -1.96977 0)
(2.06122 -1.53505 0)
(2.20909 -1.60209 0)
(2.37145 -0.784025 0)
(2.47121 -0.768612 0)
(2.56869 -0.494945 0)
(2.53658 -0.151848 0)
(2.54736 -0.058815 0)
(2.53493 0.114275 0)
(2.49362 0.25417 0)
(2.44844 0.357298 0)
(2.40635 0.436282 0)
(2.35493 0.510403 0)
(2.33228 0.546464 0)
(2.25794 0.641777 0)
(2.19942 0.725847 0)
(2.1548 0.793173 0)
(2.13725 0.800168 0)
(1.13184 -1.60596 0)
(1.56431 -1.99744 0)
(2.01142 -1.77239 0)
(2.18159 -0.87622 0)
(2.51854 -0.895788 0)
(2.48934 -0.230329 0)
(2.54663 -0.0707946 0)
(2.5299 0.154955 0)
(2.50528 0.201772 0)
(2.46641 0.366699 0)
(2.41645 0.514952 0)
(2.33212 0.654383 0)
(2.26595 0.735226 0)
(2.20104 0.805316 0)
(2.16187 0.811527 0)
(2.12951 0.816224 0)
(2.08535 0.853932 0)
(2.06843 0.87537 0)
(2.03158 0.929014 0)
(2.05563 0.958375 0)
(1.04978 -1.21825 0)
(1.49235 -1.51868 0)
(2.13808 -0.830884 0)
(2.47728 -0.334914 0)
(2.41824 0.220788 0)
(2.43414 -0.197229 0)
(2.45081 0.0168246 0)
(2.40011 0.276178 0)
(2.34112 0.416568 0)
(2.31185 0.563135 0)
(2.23038 0.718174 0)
(2.14324 0.841 0)
(2.07498 0.915985 0)
(2.01247 0.980859 0)
(1.97366 0.987496 0)
(1.95202 0.995267 0)
(1.95245 1.0135 0)
(1.96852 0.993875 0)
(1.99409 0.994058 0)
(2.06796 0.97963 0)
(1.25103 -0.674222 0)
(1.66933 -0.870413 0)
(2.28948 0.361657 0)
(2.34939 -0.181121 0)
(2.34941 0.0935209 0)
(2.34461 0.298649 0)
(2.26458 0.51224 0)
(2.20963 0.621805 0)
(2.13531 0.740165 0)
(2.08691 0.886411 0)
(1.97961 0.998911 0)
(1.92251 1.05268 0)
(1.88623 1.07477 0)
(1.8692 1.08656 0)
(1.87073 1.0548 0)
(1.89657 1.04636 0)
(1.96107 1.01875 0)
(2.16135 0.901457 0)
(2.37749 0.791556 0)
(2.77561 0.443891 0)
(0.97187 0.0514137 0)
(1.88781 0.163076 0)
(2.27462 0.121108 0)
(2.22029 0.558163 0)
(2.19708 0.584534 0)
(2.1397 0.729991 0)
(2.03762 0.887568 0)
(1.95525 0.981287 0)
(1.90042 1.04041 0)
(1.84849 1.13095 0)
(1.79227 1.15812 0)
(1.79259 1.15038 0)
(1.81039 1.12952 0)
(1.85011 1.08623 0)
(2.04257 0.948552 0)
(2.26266 0.824545 0)
(2.66671 0.498819 0)
(3.0364 0.0894705 0)
(3.05558 -0.0243928 0)
(3.00413 -0.00475606 0)
(1.01802 0.0218735 0)
(1.92136 0.786837 0)
(2.09944 0.851251 0)
(2.01649 0.93583 0)
(1.95353 0.995879 0)
(1.85584 1.09817 0)
(1.79216 1.13618 0)
(1.76347 1.14676 0)
(1.7609 1.16304 0)
(1.73752 1.20545 0)
(1.7202 1.19576 0)
(1.87029 1.06546 0)
(2.10225 0.881151 0)
(2.50639 0.57372 0)
(2.98803 0.134639 0)
(3.07282 -0.0289924 0)
(3.00801 -0.00757708 0)
(3.00291 -0.00381595 0)
(3.00123 -0.0021949 0)
(3.00008 -0.000483289 0)
(1.16319 0.769329 0)
(1.82877 1.1575 0)
(1.84996 1.14887 0)
(1.73371 1.20592 0)
(1.71321 1.20187 0)
(1.6627 1.24451 0)
(1.66123 1.21831 0)
(1.72897 1.16963 0)
(1.75945 1.23569 0)
(1.79169 1.14605 0)
(2.2798 0.738495 0)
(2.8653 0.204832 0)
(3.09774 -0.0292914 0)
(3.02046 -0.0124199 0)
(3.00458 -0.00546012 0)
(3.00185 -0.00301788 0)
(3.00006 -0.000593857 0)
(2.99998 -2.25208e-05 0)
(2.99999 1.44509e-05 0)
(3 5.96138e-06 0)
(1.58218 1.25775 0)
(1.58664 1.26429 0)
(1.592 1.27121 0)
(1.59872 1.26913 0)
(1.61429 1.2592 0)
(1.6076 1.26571 0)
(1.88854 1.17245 0)
(2.98008 0.363841 0)
(3.3264 -0.578474 0)
(3 1.83608e-11 0)
(3 4.17584e-11 0)
(3 -2.29868e-13 0)
(3 1.55859e-11 0)
(3 -1.44837e-11 0)
(3 2.96993e-14 0)
(3 2.63361e-14 0)
(3 9.9493e-15 0)
(3 3.63663e-15 0)
(3 2.66545e-15 0)
(3 -2.1405e-15 0)
(1.58338 1.2502 0)
(1.59461 1.25675 0)
(1.60251 1.26959 0)
(1.60402 1.27925 0)
(1.63883 1.26226 0)
(1.73255 1.2012 0)
(2.28083 0.717673 0)
(2.99892 0.0124501 0)
(3 4.01833e-08 0)
(3 1.10111e-10 0)
(3 5.58703e-16 0)
(3 3.26509e-15 0)
(3 -4.09417e-15 0)
(3 1.12578e-14 0)
(3 4.85236e-15 0)
(3 2.64426e-15 0)
(3 2.81394e-15 0)
(3 1.14118e-15 0)
(3 1.04491e-16 0)
(3 -4.28561e-16 0)
(1.58501 1.24534 0)
(1.60376 1.25397 0)
(1.61406 1.25825 0)
(1.60399 1.28258 0)
(1.71781 1.20666 0)
(2.18897 0.796565 0)
(2.99497 -0.00365315 0)
(3.00032 -0.000639093 0)
(3 5.95232e-07 0)
(3 6.23295e-11 0)
(3 -2.21119e-14 0)
(3 2.9818e-15 0)
(3 2.67456e-15 0)
(3 3.02762e-15 0)
(3 4.36324e-15 0)
(3 2.33188e-15 0)
(3 2.62089e-15 0)
(3 1.46712e-15 0)
(3 2.01886e-15 0)
(3 4.38491e-16 0)
(1.58239 1.25425 0)
(1.60322 1.25902 0)
(1.62484 1.2574 0)
(1.6268 1.27707 0)
(1.92088 1.04649 0)
(2.78714 0.190334 0)
(3.00416 -0.00120084 0)
(2.99992 7.13288e-05 0)
(3 -7.70957e-07 0)
(3 7.96924e-10 0)
(3 -3.61665e-15 0)
(3 1.07175e-15 0)
(3 2.26594e-15 0)
(3 2.07251e-15 0)
(3 2.57788e-15 0)
(3 1.39954e-15 0)
(3 1.82856e-15 0)
(3 2.12103e-15 0)
(3 2.60822e-15 0)
(3 1.02478e-15 0)
(1.58471 1.27215 0)
(1.59706 1.27416 0)
(1.63122 1.26556 0)
(1.66066 1.25235 0)
(2.30653 0.667426 0)
(3.02114 -0.0174759 0)
(2.99974 0.000151 0)
(3 -4.13644e-06 0)
(3 8.10248e-08 0)
(3 -8.52438e-10 0)
(3 1.30296e-13 0)
(3 1.32228e-15 0)
(3 2.08114e-15 0)
(3 1.20181e-15 0)
(3 9.92473e-16 0)
(3 3.38722e-16 0)
(3 8.95966e-16 0)
(3 1.5827e-15 0)
(3 2.37378e-15 0)
(3 1.31915e-15 0)
(1.58839 1.29006 0)
(1.58652 1.28914 0)
(1.63711 1.2589 0)
(1.77583 1.14409 0)
(2.67477 0.269774 0)
(3 -5.74994e-10 0)
(3 1.36876e-08 0)
(3 -1.23477e-08 0)
(3 5.2869e-10 0)
(3 3.05398e-12 0)
(3 -8.69871e-14 0)
(3 1.06193e-15 0)
(3 6.92239e-16 0)
(3 7.68701e-18 0)
(3 2.90625e-16 0)
(3 -7.03099e-16 0)
(3 9.47137e-16 0)
(3 5.44432e-16 0)
(3 1.19409e-15 0)
(3 1.11782e-15 0)
(1.58886 1.30376 0)
(1.55717 1.29931 0)
(1.6761 1.22336 0)
(2.17752 0.820084 0)
(3.0239 -0.0223521 0)
(3 -1.40012e-12 0)
(3 -1.89891e-11 0)
(3 2.54474e-11 0)
(3 -3.6155e-12 0)
(3 -3.15424e-15 0)
(3 7.9085e-16 0)
(3 -1.04923e-16 0)
(3 2.44855e-16 0)
(3 -9.82963e-18 0)
(3 -9.88452e-17 0)
(3 -1.64087e-15 0)
(3 -9.48648e-16 0)
(3 -1.14582e-15 0)
(3 5.50159e-16 0)
(3 8.0114e-16 0)
(1.59124 1.32619 0)
(1.50268 1.3253 0)
(1.73031 1.19214 0)
(2.38726 0.555569 0)
(3 -8.94849e-11 0)
(3 2.2439e-15 0)
(3 4.32379e-15 0)
(3 -2.59075e-14 0)
(3 1.49237e-14 0)
(3 -1.11215e-15 0)
(3 -1.21804e-15 0)
(3 -5.59147e-16 0)
(3 -3.87033e-16 0)
(3 -5.38229e-16 0)
(3 -9.70825e-16 0)
(3 -2.29635e-15 0)
(3 -1.75526e-15 0)
(3 -1.9438e-15 0)
(3 -7.26602e-16 0)
(3 -5.93387e-16 0)
(1.58834 1.30117 0)
(1.4769 1.33592 0)
(2.02458 1.02508 0)
(2.90767 0.100197 0)
(3 -8.72489e-11 0)
(3 1.6169e-15 0)
(3 1.37396e-15 0)
(3 -2.06146e-16 0)
(3 -3.96412e-16 0)
(3 -6.31925e-16 0)
(3 -8.22198e-16 0)
(3 -8.21767e-16 0)
(3 -4.56358e-16 0)
(3 -1.57892e-16 0)
(3 7.42099e-17 0)
(3 -2.19751e-15 0)
(3 -2.54446e-15 0)
(3 -2.24209e-15 0)
(3 -2.25381e-15 0)
(3 -1.41785e-15 0)
(1.60187 1.29408 0)
(1.47927 1.39663 0)
(2.12557 0.858145 0)
(3.01072 -0.00868832 0)
(3 8.08413e-10 0)
(3 1.77231e-15 0)
(3 1.69095e-15 0)
(3 2.62102e-16 0)
(3 3.06665e-16 0)
(3 4.10436e-16 0)
(3 -1.73196e-17 0)
(3 1.48489e-16 0)
(3 -2.58371e-17 0)
(3 1.37581e-16 0)
(3 -1.13975e-16 0)
(3 -2.28625e-15 0)
(3 -3.17735e-15 0)
(3 -2.30827e-15 0)
(3 -2.6968e-15 0)
(3 -2.0965e-15 0)
(1.6165 1.27921 0)
(1.57078 1.31317 0)
(2.42902 0.538169 0)
(3 8.19721e-14 0)
(3 -9.8656e-13 0)
(3 3.7581e-15 0)
(3 1.06567e-15 0)
(3 7.32756e-16 0)
(3 6.27429e-16 0)
(3 1.03835e-15 0)
(3 9.03476e-16 0)
(3 6.94119e-16 0)
(3 7.15277e-16 0)
(3 4.34996e-16 0)
(3 2.25552e-16 0)
(3 -1.44337e-15 0)
(3 -2.13547e-15 0)
(3 -2.10026e-15 0)
(3 -2.2875e-15 0)
(3 -2.83519e-15 0)
(1.63093 1.26384 0)
(1.61353 1.25464 0)
(2.62429 0.314765 0)
(3 2.507e-14 0)
(3 3.25133e-15 0)
(3 7.38843e-16 0)
(3 7.65625e-16 0)
(3 8.23139e-16 0)
(3 1.13924e-15 0)
(3 1.77811e-15 0)
(3 1.85997e-15 0)
(3 1.46586e-15 0)
(3 1.52197e-15 0)
(3 1.37554e-15 0)
(3 1.38572e-15 0)
(3 2.22399e-16 0)
(3 -1.07969e-15 0)
(3 -1.77606e-15 0)
(3 -1.96731e-15 0)
(3 -2.65705e-15 0)
(1.65013 1.24923 0)
(1.83795 1.09634 0)
(2.87461 0.0915604 0)
(3 -1.23443e-13 0)
(3 2.63023e-16 0)
(3 1.04058e-16 0)
(3 -8.29175e-17 0)
(3 -3.82459e-17 0)
(3 2.33274e-16 0)
(3 7.34013e-16 0)
(3 1.13579e-15 0)
(3 1.41929e-15 0)
(3 1.55859e-15 0)
(3 1.41119e-15 0)
(3 1.06156e-15 0)
(3 8.23692e-16 0)
(3 -1.17964e-16 0)
(3 -1.65369e-15 0)
(3 -1.89131e-15 0)
(3 -2.53618e-15 0)
(1.68129 1.1977 0)
(1.90063 0.970855 0)
(2.99956 0.000168287 0)
(3 -3.64158e-16 0)
(3 1.9055e-16 0)
(3 -5.60146e-16 0)
(3 -8.16454e-16 0)
(3 -6.77544e-16 0)
(3 -2.3462e-16 0)
(3 -1.00345e-16 0)
(3 8.44847e-17 0)
(3 1.56712e-16 0)
(3 3.43532e-16 0)
(3 6.35238e-16 0)
(3 1.21224e-15 0)
(3 1.21948e-15 0)
(3 5.28016e-16 0)
(3 -9.43972e-16 0)
(3 -8.99337e-16 0)
(3 -1.97816e-15 0)
(1.73116 1.15923 0)
(2.07439 0.817603 0)
(3 -1.54225e-15 0)
(3 4.20118e-17 0)
(3 3.34306e-16 0)
(3 -2.40563e-16 0)
(3 -7.69713e-16 0)
(3 -4.49197e-16 0)
(3 -2.4317e-16 0)
(3 -8.31467e-17 0)
(3 1.16959e-16 0)
(3 3.45841e-16 0)
(3 5.00697e-16 0)
(3 7.69912e-16 0)
(3 1.13405e-15 0)
(3 1.28749e-15 0)
(3 1.39601e-15 0)
(3 1.04083e-15 0)
(3 -1.93076e-16 0)
(3 1.14116e-16 0)
(1.74479 1.09792 0)
(2.22051 0.658713 0)
(3 1.39521e-16 0)
(3 -7.85887e-16 0)
(3 -1.33324e-16 0)
(3 1.49104e-16 0)
(3 -8.73927e-17 0)
(3 -7.23151e-16 0)
(3 -7.63646e-16 0)
(3 -1.02983e-15 0)
(3 -1.00256e-15 0)
(3 -2.84214e-16 0)
(3 2.97543e-16 0)
(3 5.99514e-16 0)
(3 7.24188e-16 0)
(3 8.2418e-16 0)
(3 8.03012e-16 0)
(3 6.05333e-16 0)
(3 5.06797e-17 0)
(3 -5.97664e-16 0)
(1.80064 1.01527 0)
(2.41013 0.46584 0)
(3 -8.14282e-17 0)
(3 1.08087e-16 0)
(3 -1.83562e-16 0)
(3 -4.60394e-16 0)
(3 -4.10913e-16 0)
(3 1.47646e-16 0)
(3 1.7183e-16 0)
(3 8.12281e-18 0)
(3 -4.46686e-17 0)
(3 4.25136e-16 0)
(3 7.28434e-16 0)
(3 7.4552e-16 0)
(3 4.79158e-16 0)
(3 6.56108e-16 0)
(3 9.6677e-16 0)
(3 1.15391e-15 0)
(3 1.12256e-15 0)
(3 9.41928e-16 0)
(1.95034 0.889901 0)
(2.70246 0.218471 0)
(3 -2.18196e-16 0)
(3 -1.10128e-15 0)
(3 -1.21147e-15 0)
(3 -9.47302e-16 0)
(3 -8.38446e-16 0)
(3 -4.35987e-16 0)
(3 -3.44121e-16 0)
(3 -6.86421e-16 0)
(3 -9.67891e-16 0)
(3 -8.37919e-16 0)
(3 -5.22185e-16 0)
(3 -4.49776e-16 0)
(3 1.42898e-16 0)
(3 1.97777e-16 0)
(3 5.92191e-16 0)
(3 5.59563e-16 0)
(3 7.32085e-16 0)
(3 9.5988e-16 0)
(2.10906 0.642681 0)
(2.99117 0.000300603 0)
(3 -6.53864e-16 0)
(3 -1.2504e-15 0)
(3 -1.9431e-15 0)
(3 -2.68484e-15 0)
(3 -1.4289e-15 0)
(3 -9.07646e-16 0)
(3 -6.03339e-16 0)
(3 -6.09784e-16 0)
(3 -8.85886e-16 0)
(3 -1.62827e-15 0)
(3 -1.61798e-15 0)
(3 -1.45692e-15 0)
(3 -1.32724e-15 0)
(3 -1.74736e-15 0)
(3 -2.12312e-15 0)
(3 -2.05124e-15 0)
(3 -1.65494e-15 0)
(3 -1.50292e-15 0)
(1.99632 0.374906 0)
(2.99994 -6.30174e-06 0)
(3 -6.64778e-16 0)
(3 -8.53959e-16 0)
(3 -4.45073e-16 0)
(3 -4.97026e-16 0)
(3 2.20111e-16 0)
(3 5.14105e-16 0)
(3 6.81594e-16 0)
(3 7.16394e-16 0)
(3 4.55877e-16 0)
(3 1.77906e-16 0)
(3 8.56283e-17 0)
(3 1.61372e-16 0)
(3 4.30876e-16 0)
(3 7.49049e-16 0)
(3 5.93464e-16 0)
(3 6.82327e-16 0)
(3 9.54629e-16 0)
(3 1.27488e-15 0)
(1.99628 -0.374504 0)
(2.99994 7.56758e-06 0)
(3 -1.03186e-15 0)
(3 -7.83862e-16 0)
(3 9.68973e-17 0)
(3 5.9424e-16 0)
(3 3.02988e-16 0)
(3 2.46831e-16 0)
(3 3.73467e-16 0)
(3 3.94067e-16 0)
(3 5.32174e-16 0)
(3 6.15798e-16 0)
(3 7.44254e-16 0)
(3 7.17667e-16 0)
(3 6.59756e-16 0)
(3 1.07072e-15 0)
(3 1.27777e-15 0)
(3 1.46239e-15 0)
(3 1.3805e-15 0)
(3 1.30392e-15 0)
(2.10932 -0.645498 0)
(2.99114 -0.000260806 0)
(3 -9.06162e-16 0)
(3 -4.0254e-16 0)
(3 -5.99846e-16 0)
(3 -6.5784e-16 0)
(3 -8.9434e-16 0)
(3 -9.82629e-16 0)
(3 -8.71332e-16 0)
(3 -8.77629e-16 0)
(3 -8.71745e-16 0)
(3 -6.8215e-16 0)
(3 -4.38268e-16 0)
(3 -2.7628e-16 0)
(3 -2.84003e-16 0)
(3 6.26039e-17 0)
(3 2.40649e-16 0)
(3 -2.00783e-16 0)
(3 -7.15928e-16 0)
(3 -1.00237e-15 0)
(1.94797 -0.885036 0)
(2.7046 -0.215619 0)
(3 -9.82508e-16 0)
(3 -1.511e-15 0)
(3 -2.02614e-15 0)
(3 -2.12899e-15 0)
(3 -2.33738e-15 0)
(3 -2.28179e-15 0)
(3 -2.09634e-15 0)
(3 -2.32561e-15 0)
(3 -2.48407e-15 0)
(3 -2.19401e-15 0)
(3 -1.55759e-15 0)
(3 -1.102e-15 0)
(3 -1.47986e-15 0)
(3 -1.70272e-15 0)
(3 -1.62353e-15 0)
(3 -1.114e-15 0)
(3 -3.77442e-16 0)
(3 -3.22416e-17 0)
(1.80813 -1.01498 0)
(2.41563 -0.464071 0)
(3 -8.62848e-16 0)
(3 -1.06542e-15 0)
(3 -3.44568e-16 0)
(3 -7.0393e-17 0)
(3 6.1511e-16 0)
(3 5.21626e-16 0)
(3 2.50488e-16 0)
(3 -1.3467e-16 0)
(3 2.07982e-16 0)
(3 4.51064e-16 0)
(3 6.47731e-16 0)
(3 1.38922e-15 0)
(3 2.05619e-15 0)
(3 2.43166e-15 0)
(3 2.80105e-15 0)
(3 3.00926e-15 0)
(3 3.24645e-15 0)
(3 3.54427e-15 0)
(1.73705 -1.10071 0)
(2.21742 -0.658049 0)
(3 -1.40857e-16 0)
(3 -9.35955e-17 0)
(3 -3.17844e-16 0)
(3 -5.00875e-16 0)
(3 -2.73763e-16 0)
(3 -3.55321e-16 0)
(3 -7.23727e-17 0)
(3 2.79602e-16 0)
(3 8.52036e-16 0)
(3 1.08195e-15 0)
(3 1.33585e-15 0)
(3 1.43925e-15 0)
(3 1.62297e-15 0)
(3 2.26897e-15 0)
(3 2.64582e-15 0)
(3 3.26507e-15 0)
(3 3.33003e-15 0)
(3 3.37471e-15 0)
(1.73226 -1.15941 0)
(2.07425 -0.818481 0)
(3 5.79391e-16 0)
(3 -8.30264e-16 0)
(3 -8.81599e-16 0)
(3 -9.53776e-16 0)
(3 -6.01245e-16 0)
(3 -3.25354e-16 0)
(3 8.84919e-16 0)
(3 1.37816e-15 0)
(3 1.42042e-15 0)
(3 1.9042e-15 0)
(3 2.59399e-15 0)
(3 3.78032e-15 0)
(3 4.49263e-15 0)
(3 4.02684e-15 0)
(3 2.08191e-15 0)
(3 2.77326e-15 0)
(3 2.81462e-15 0)
(3 2.31156e-15 0)
(1.68314 -1.19823 0)
(1.90148 -0.971255 0)
(2.99914 -0.000333185 0)
(3 -2.1519e-16 0)
(3 -8.76491e-16 0)
(3 -7.03302e-16 0)
(3 -1.73035e-16 0)
(3 5.06113e-16 0)
(3 1.28306e-15 0)
(3 2.13063e-15 0)
(3 1.95769e-15 0)
(3 2.32078e-15 0)
(3 2.86957e-15 0)
(3 3.19528e-15 0)
(3 3.54375e-15 0)
(3 2.76531e-15 0)
(3 1.59236e-15 0)
(3 1.0622e-15 0)
(3 1.12636e-15 0)
(3 1.07025e-15 0)
(1.65052 -1.24968 0)
(1.83669 -1.09664 0)
(2.8739 -0.0916136 0)
(3 2.82191e-15 0)
(3 -5.64937e-16 0)
(3 -3.5179e-16 0)
(3 4.40265e-16 0)
(3 6.09827e-16 0)
(3 1.52646e-15 0)
(3 2.33468e-15 0)
(3 3.22194e-15 0)
(3 3.64052e-15 0)
(3 3.23896e-15 0)
(3 1.95855e-15 0)
(3 1.40967e-15 0)
(3 9.22093e-16 0)
(3 3.22387e-16 0)
(3 5.12806e-16 0)
(3 5.05284e-16 0)
(3 1.93557e-16 0)
(1.63085 -1.26361 0)
(1.61306 -1.25487 0)
(2.62337 -0.31577 0)
(3 -3.99423e-16 0)
(3 -1.90451e-16 0)
(3 2.32091e-16 0)
(3 3.48956e-17 0)
(3 -5.25864e-16 0)
(3 5.60992e-16 0)
(3 9.82635e-16 0)
(3 2.41715e-15 0)
(3 1.85341e-15 0)
(3 9.64802e-16 0)
(3 6.51243e-16 0)
(3 8.02745e-16 0)
(3 3.46373e-16 0)
(3 2.14796e-16 0)
(3 4.13498e-16 0)
(3 -1.12539e-16 0)
(3 -9.5663e-16 0)
(1.61643 -1.27901 0)
(1.572 -1.31242 0)
(2.4279 -0.539256 0)
(3 -1.38937e-15 0)
(3 2.68626e-14 0)
(3 6.09928e-16 0)
(3 3.86923e-16 0)
(3 1.62162e-17 0)
(3 1.7135e-15 0)
(3 2.57124e-15 0)
(3 2.53617e-15 0)
(3 1.71509e-15 0)
(3 7.7953e-16 0)
(3 5.98647e-16 0)
(3 -8.72075e-17 0)
(3 -3.52209e-16 0)
(3 -7.0343e-16 0)
(3 -1.11405e-15 0)
(3 -1.50692e-15 0)
(3 -2.0905e-15 0)
(1.60202 -1.29413 0)
(1.48026 -1.3954 0)
(2.12541 -0.857926 0)
(3.01076 0.00873504 0)
(3 -1.95581e-11 0)
(3 2.05173e-15 0)
(3 5.92281e-16 0)
(3 5.30095e-16 0)
(3 2.27533e-15 0)
(3 2.74697e-15 0)
(3 2.28012e-15 0)
(3 1.38777e-15 0)
(3 4.8187e-16 0)
(3 2.82446e-16 0)
(3 -9.62261e-16 0)
(3 -7.22054e-16 0)
(3 -5.62347e-16 0)
(3 -9.97331e-16 0)
(3 -8.31421e-16 0)
(3 -8.9839e-16 0)
(1.58844 -1.30151 0)
(1.47753 -1.33588 0)
(2.02221 -1.02607 0)
(2.90594 -0.1016 0)
(3 1.83317e-12 0)
(3 5.09646e-16 0)
(3 1.62206e-15 0)
(3 4.61148e-16 0)
(3 1.79516e-15 0)
(3 1.69263e-15 0)
(3 1.21049e-15 0)
(3 8.03926e-16 0)
(3 2.6815e-16 0)
(3 -1.99222e-17 0)
(3 -8.56075e-16 0)
(3 -5.33e-17 0)
(3 4.46449e-16 0)
(3 -1.75439e-17 0)
(3 -7.87742e-16 0)
(3 -1.39581e-15 0)
(1.5905 -1.32595 0)
(1.50245 -1.32542 0)
(1.72996 -1.19385 0)
(2.38719 -0.557793 0)
(3 1.87139e-12 0)
(3 -1.03366e-15 0)
(3 -1.8331e-15 0)
(3 2.17001e-14 0)
(3 -1.53229e-14 0)
(3 1.12538e-15 0)
(3 7.59462e-16 0)
(3 3.02042e-16 0)
(3 2.50391e-16 0)
(3 -3.64667e-16 0)
(3 -8.74554e-16 0)
(3 -1.22239e-16 0)
(3 1.9082e-16 0)
(3 -7.54478e-16 0)
(3 -1.68331e-15 0)
(3 -1.55337e-15 0)
(1.58843 -1.30293 0)
(1.55688 -1.29958 0)
(1.67705 -1.22455 0)
(2.18004 -0.820479 0)
(3.02374 0.0222485 0)
(3 1.39549e-12 0)
(3 1.89607e-11 0)
(3 -2.54563e-11 0)
(3 3.6242e-12 0)
(3 3.44271e-15 0)
(3 -4.55941e-16 0)
(3 6.86583e-16 0)
(3 4.57368e-16 0)
(3 -5.3112e-16 0)
(3 -8.35098e-16 0)
(3 -5.21318e-16 0)
(3 5.60161e-17 0)
(3 -1.2906e-16 0)
(3 -1.38132e-15 0)
(3 -3.96487e-16 0)
(1.58829 -1.28942 0)
(1.58667 -1.28782 0)
(1.63808 -1.25711 0)
(1.77869 -1.14157 0)
(2.67678 -0.267577 0)
(3 5.7823e-10 0)
(3 -1.37526e-08 0)
(3 1.24041e-08 0)
(3 -5.31498e-10 0)
(3 -3.00893e-12 0)
(3 9.04639e-14 0)
(3 -3.39346e-16 0)
(3 1.95743e-16 0)
(3 -6.30043e-16 0)
(3 -7.82047e-16 0)
(3 -2.44443e-17 0)
(3 1.23659e-15 0)
(3 4.95152e-16 0)
(3 -1.21576e-16 0)
(3 -4.39664e-18 0)
(1.58537 -1.27235 0)
(1.59794 -1.27433 0)
(1.63172 -1.26485 0)
(1.65869 -1.25205 0)
(2.30621 -0.66626 0)
(3.02125 0.0176368 0)
(2.99974 -0.000150546 0)
(3 4.13875e-06 0)
(3 -8.14503e-08 0)
(3 8.60103e-10 0)
(3 -1.38034e-13 0)
(3 -1.40571e-16 0)
(3 -3.8434e-16 0)
(3 -1.0848e-15 0)
(3 -5.18966e-16 0)
(3 7.62626e-16 0)
(3 1.42523e-15 0)
(3 2.23027e-16 0)
(3 6.57494e-16 0)
(3 7.12744e-16 0)
(1.58315 -1.25511 0)
(1.60371 -1.26 0)
(1.62475 -1.25787 0)
(1.62415 -1.27896 0)
(1.91912 -1.0476 0)
(2.78434 -0.19313 0)
(3.00419 0.00120943 0)
(2.99992 -7.08117e-05 0)
(3 8.05317e-07 0)
(3 -8.0822e-10 0)
(3 6.21798e-15 0)
(3 2.59291e-16 0)
(3 -4.57484e-16 0)
(3 -1.07087e-15 0)
(3 -3.87494e-16 0)
(3 9.56166e-16 0)
(3 3.60449e-16 0)
(3 1.79735e-15 0)
(3 1.34677e-15 0)
(3 1.21018e-15 0)
(1.5851 -1.24615 0)
(1.60358 -1.25408 0)
(1.61348 -1.25864 0)
(1.60222 -1.28411 0)
(1.7154 -1.2084 0)
(2.18565 -0.79826 0)
(2.99452 0.00309797 0)
(3.0003 0.000617469 0)
(3 -6.44735e-07 0)
(3 -6.1182e-11 0)
(3 4.3429e-14 0)
(3 -1.30025e-16 0)
(3 -3.68153e-16 0)
(3 -8.65074e-16 0)
(3 -5.92329e-17 0)
(3 1.02204e-15 0)
(3 -1.28227e-15 0)
(3 2.20286e-15 0)
(3 2.14971e-15 0)
(3 2.2252e-15 0)
(1.58326 -1.25035 0)
(1.59443 -1.2569 0)
(1.60193 -1.27023 0)
(1.60343 -1.27936 0)
(1.64232 -1.2613 0)
(1.74009 -1.19855 0)
(2.2863 -0.715169 0)
(2.99973 -0.0112737 0)
(3 -4.01295e-08 0)
(3 -1.09618e-10 0)
(3 3.83999e-15 0)
(3 1.37349e-15 0)
(3 4.8905e-15 0)
(3 -5.55168e-15 0)
(3 1.53274e-15 0)
(3 1.34601e-15 0)
(3 7.74101e-16 0)
(3 2.45207e-15 0)
(3 2.39867e-15 0)
(3 2.40366e-15 0)
(1.58204 -1.25757 0)
(1.58642 -1.26415 0)
(1.59173 -1.27099 0)
(1.5988 -1.2686 0)
(1.61483 -1.2588 0)
(1.60761 -1.26542 0)
(1.88804 -1.17278 0)
(2.98055 -0.364889 0)
(3.32881 0.582272 0)
(3 -1.72236e-11 0)
(3 -4.38805e-11 0)
(3 -2.11191e-15 0)
(3 -5.41245e-12 0)
(3 5.22078e-12 0)
(3 -1.00655e-14 0)
(3 -8.17496e-15 0)
(3 -1.91007e-15 0)
(3 1.49019e-15 0)
(3 2.32456e-15 0)
(3 2.7524e-15 0)
(1.16725 -0.764965 0)
(1.82841 -1.15924 0)
(1.84788 -1.1532 0)
(1.7323 -1.20847 0)
(1.71194 -1.20274 0)
(1.66303 -1.24394 0)
(1.66082 -1.21798 0)
(1.72834 -1.16936 0)
(1.75839 -1.23618 0)
(1.79205 -1.14576 0)
(2.28211 -0.736815 0)
(2.86719 -0.203133 0)
(3.09787 0.0296686 0)
(3.02037 0.0123985 0)
(3.00458 0.00545814 0)
(3.00185 0.00301721 0)
(3.00006 0.000593735 0)
(2.99998 2.24306e-05 0)
(2.99999 -1.44842e-05 0)
(3 -5.97359e-06 0)
(1.00181 -0.0486751 0)
(1.92899 -0.736154 0)
(2.10447 -0.814192 0)
(2.01758 -0.920883 0)
(1.95644 -0.988557 0)
(1.85801 -1.09488 0)
(1.79059 -1.13688 0)
(1.76227 -1.14677 0)
(1.75994 -1.16298 0)
(1.73708 -1.20546 0)
(1.72113 -1.19532 0)
(1.87135 -1.06442 0)
(2.10236 -0.880318 0)
(2.50682 -0.5726 0)
(2.98813 -0.134102 0)
(3.07266 0.0289691 0)
(3.008 0.00756698 0)
(3.00291 0.00381756 0)
(3.00123 0.00219752 0)
(3.00008 0.000483229 0)
(0.995176 0.132857 0)
(1.91618 -0.663844 0)
(2.29237 -0.231108 0)
(2.22021 -0.595268 0)
(2.19349 -0.602881 0)
(2.14163 -0.731985 0)
(2.0397 -0.8847 0)
(1.95429 -0.981263 0)
(1.89982 -1.04065 0)
(1.84712 -1.13141 0)
(1.79227 -1.15816 0)
(1.79284 -1.15064 0)
(1.81062 -1.12977 0)
(1.85016 -1.08639 0)
(2.043 -0.948291 0)
(2.26358 -0.82364 0)
(2.66717 -0.497954 0)
(3.03631 -0.0892862 0)
(3.05566 0.0244421 0)
(3.00416 0.00477234 0)
(1.1728 0.567776 0)
(1.46215 0.798765 0)
(2.22503 -0.133916 0)
(2.34604 0.184791 0)
(2.34929 -0.0765967 0)
(2.35187 -0.294207 0)
(2.26497 -0.522682 0)
(2.20839 -0.629138 0)
(2.13494 -0.742738 0)
(2.08544 -0.88749 0)
(1.97917 -0.999513 0)
(1.92274 -1.05313 0)
(1.8865 -1.07526 0)
(1.86951 -1.08672 0)
(1.87072 -1.05466 0)
(1.89653 -1.04615 0)
(1.96089 -1.01854 0)
(2.16114 -0.901289 0)
(2.37716 -0.79166 0)
(2.77513 -0.44451 0)
(1.10613 1.43383 0)
(1.50318 1.67947 0)
(2.09263 0.653969 0)
(2.50742 0.479543 0)
(2.42365 -0.249205 0)
(2.43165 0.197808 0)
(2.45113 -0.00342394 0)
(2.40053 -0.264747 0)
(2.3423 -0.408371 0)
(2.31219 -0.557671 0)
(2.23044 -0.71499 0)
(2.14397 -0.839332 0)
(2.07578 -0.915242 0)
(2.01305 -0.980389 0)
(1.97388 -0.987281 0)
(1.95193 -0.99532 0)
(1.9523 -1.01358 0)
(1.96828 -0.99392 0)
(1.99392 -0.994075 0)
(2.06779 -0.979677 0)
(1.30296 1.77378 0)
(1.47347 1.92954 0)
(1.8388 1.43138 0)
(2.15093 1.03279 0)
(2.56024 0.900787 0)
(2.49921 0.23788 0)
(2.55117 0.0748588 0)
(2.52981 -0.156175 0)
(2.50747 -0.194365 0)
(2.4677 -0.36313 0)
(2.4168 -0.513096 0)
(2.33266 -0.653531 0)
(2.26661 -0.735444 0)
(2.20118 -0.806626 0)
(2.16146 -0.813681 0)
(2.12893 -0.81812 0)
(2.0851 -0.855041 0)
(2.06845 -0.875545 0)
(2.03167 -0.928767 0)
(2.05554 -0.958283 0)
(1.49396 1.89355 0)
(1.56761 2.08202 0)
(1.8506 1.76338 0)
(2.0332 1.58402 0)
(2.26517 1.57097 0)
(2.39015 0.735235 0)
(2.47609 0.728212 0)
(2.57908 0.480059 0)
(2.5421 0.136069 0)
(2.5497 0.0498184 0)
(2.53594 -0.120469 0)
(2.49454 -0.258827 0)
(2.44937 -0.360784 0)
(2.407 -0.439039 0)
(2.35528 -0.511884 0)
(2.33249 -0.546374 0)
(2.25867 -0.640121 0)
(2.20004 -0.72437 0)
(2.15483 -0.792693 0)
(2.13712 -0.799965 0)
(1.63995 1.97999 0)
(1.83789 2.45494 0)
(1.87017 1.9341 0)
(1.88328 1.90942 0)
(2.10611 1.70722 0)
(2.26541 1.37023 0)
(2.32447 1.19207 0)
(2.42145 0.992892 0)
(2.47249 0.715915 0)
(2.50261 0.590864 0)
(2.55587 0.393557 0)
(2.55041 0.173754 0)
(2.5549 0.00594074 0)
(2.53844 -0.155164 0)
(2.48897 -0.330622 0)
(2.46765 -0.415553 0)
(2.38746 -0.554719 0)
(2.35111 -0.550421 0)
(2.31268 -0.578162 0)
(2.32757 -0.523468 0)
(1.61348 1.79544 0)
(1.8745 2.31648 0)
(2.03924 2.20356 0)
(2.0106 2.11886 0)
(2.18517 1.78831 0)
(2.21309 1.62414 0)
(2.3668 1.29276 0)
(2.44732 1.11965 0)
(2.48915 1.01409 0)
(2.55451 0.76255 0)
(2.64933 0.569283 0)
(2.64454 0.278712 0)
(2.66107 0.0962801 0)
(2.63567 -0.0871546 0)
(2.60021 -0.223777 0)
(2.56756 -0.274527 0)
(2.53019 -0.301476 0)
(2.52818 -0.217679 0)
(2.45512 -0.318144 0)
(2.47488 -0.28544 0)
(1.40907 1.38195 0)
(1.75753 2.10247 0)
(2.0857 2.37001 0)
(2.1718 2.44405 0)
(2.40489 1.92304 0)
(2.4225 1.79142 0)
(2.58225 1.33492 0)
(2.65721 1.22255 0)
(2.76069 1.11544 0)
(2.75866 0.692664 0)
(2.77975 0.570173 0)
(2.74607 0.350167 0)
(2.73331 0.295944 0)
(2.71688 0.19257 0)
(2.69519 0.138996 0)
(2.65999 0.108019 0)
(2.63765 0.1027 0)
(2.62232 0.0507366 0)
(2.55762 -0.132667 0)
(2.57263 -0.132343 0)
(1.31981 1.20251 0)
(1.55642 1.80666 0)
(1.86892 2.19453 0)
(1.96003 2.3408 0)
(2.43759 2.01401 0)
(2.53178 1.91063 0)
(2.55248 1.52036 0)
(2.5948 1.33212 0)
(2.64438 1.21125 0)
(2.69096 1.11112 0)
(2.69327 1.05161 0)
(2.69771 0.866895 0)
(2.66865 0.773462 0)
(2.68818 0.688902 0)
(2.67707 0.546915 0)
(2.6843 0.450905 0)
(2.70258 0.330918 0)
(2.68626 0.142086 0)
(2.65195 -0.0111902 0)
(2.61508 -0.0462734 0)
(1.28599 1.12009 0)
(1.43806 1.60275 0)
(1.70031 2.02685 0)
(1.71698 2.19809 0)
(2.02396 2.09276 0)
(2.22134 2.02259 0)
(2.22203 1.72656 0)
(2.31028 1.51268 0)
(2.36215 1.54073 0)
(2.39287 1.52785 0)
(2.46624 1.33238 0)
(2.53986 1.21519 0)
(2.5765 1.01364 0)
(2.67854 0.931179 0)
(2.69482 0.686797 0)
(2.74875 0.542397 0)
(2.75477 0.352279 0)
(2.74569 0.177305 0)
(2.7017 0.213718 0)
(2.67126 0.193317 0)
(1.33719 1.14572 0)
(1.42985 1.49222 0)
(1.53628 1.9733 0)
(1.60572 2.1891 0)
(1.71803 2.20522 0)
(1.88196 2.09054 0)
(2.03271 1.97041 0)
(2.14322 1.68177 0)
(2.15534 1.64541 0)
(2.28005 1.61883 0)
(2.40571 1.38218 0)
(2.56486 1.30854 0)
(2.62065 1.0437 0)
(2.74168 0.943337 0)
(2.75736 0.685318 0)
(2.76756 0.61839 0)
(2.76477 0.528218 0)
(2.75354 0.473656 0)
(2.72495 0.610823 0)
(2.69309 0.492237 0)
(1.44089 1.26338 0)
(1.50252 1.44104 0)
(1.54262 1.9386 0)
(1.55756 2.19689 0)
(1.6237 2.20742 0)
(1.81443 2.08424 0)
(1.93607 2.02696 0)
(2.08125 1.71359 0)
(2.16307 1.67597 0)
(2.364 1.62236 0)
(2.49258 1.42185 0)
(2.64215 1.35928 0)
(2.70815 1.15399 0)
(2.72503 1.13197 0)
(2.75403 1.01052 0)