/*--------------------------------*- C++ -*----------------------------------*\
  =========                 |
  \\      /  F ield         | OpenFOAM: The Open Source CFD Toolbox
   \\    /   O peration     | Website:  https://openfoam.org
    \\  /    A nd           | Version:  7
     \\/     M anipulation  |
\*---------------------------------------------------------------------------*/
FoamFile
{
    version     2.0;
    format      ascii;
    class       volScalarField;
    location    "2.3";
    object      p;
}
// * * * * * * * * * * * * * * * * * * * * * * * * * * * * * * * * * * * * * //

dimensions      [1 -1 -2 0 0 0 0];

internalField   nonuniform List<scalar> 
3700
(
0.137287
0.217252
0.288967
0.365451
0.395445
0.404108
0.401229
0.398767
0.402501
0.414565
0.422351
0.441192
0.455034
0.469697
0.491121
0.498243
0.510364
0.508335
0.51605
0.521893
0.0701872
0.0834624
0.115672
0.13348
0.133846
0.129589
0.127112
0.123566
0.11766
0.123722
0.147514
0.171671
0.179694
0.175079
0.17833
0.188457
0.200072
0.195937
0.197149
0.201623
0.0580883
0.0637652
0.0737746
0.0711256
0.0576607
0.04657
0.0468551
0.0538366
0.061445
0.0687754
0.0807667
0.0889378
0.0956522
0.0997724
0.101042
0.102259
0.103483
0.105607
0.112438
0.130419
0.0597188
0.0637343
0.0659226
0.0570821
0.0466406
0.0447266
0.0462685
0.0540821
0.0597088
0.0687077
0.085358
0.0986734
0.115338
0.131033
0.140613
0.151026
0.148562
0.145967
0.146139
0.163912
0.0540739
0.0580238
0.0592092
0.0524
0.0519444
0.0525948
0.0591465
0.0689236
0.0694933
0.0774564
0.0857267
0.0988461
0.119792
0.143336
0.162776
0.183
0.194203
0.201595
0.199304
0.20762
0.0480491
0.0578156
0.0598776
0.0560683
0.0595658
0.0656137
0.077683
0.0894855
0.0996523
0.117311
0.112529
0.117029
0.126867
0.150432
0.176991
0.204961
0.233162
0.260799
0.282404
0.306081
0.0464831
0.0580258
0.0594409
0.058719
0.0620054
0.0681808
0.0820387
0.09918
0.126838
0.154838
0.163743
0.175102
0.181358
0.194824
0.206934
0.230956
0.266751
0.313183
0.354404
0.421727
0.0478444
0.0569624
0.0558735
0.0557873
0.0602788
0.0656035
0.0794185
0.0983992
0.139988
0.17698
0.208843
0.233499
0.258686
0.285935
0.304364
0.325875
0.345449
0.387377
0.441776
0.552406
0.0524479
0.0533955
0.0486961
0.0529177
0.0603722
0.0698211
0.0802349
0.0965078
0.141202
0.186472
0.235562
0.276632
0.330063
0.373743
0.415878
0.456433
0.492224
0.532239
0.584357
0.731624
0.0593456
0.0488265
0.0453707
0.0596059
0.0781631
0.0980699
0.110557
0.132736
0.17045
0.201347
0.256414
0.314617
0.393184
0.458359
0.530531
0.604541
0.675729
0.737922
0.818019
0.956137
0.062137
0.0438173
0.0493453
0.0732149
0.0966639
0.126902
0.161672
0.219433
0.276426
0.319817
0.373993
0.430907
0.50392
0.578903
0.665904
0.777075
0.897267
1.00257
1.16577
1.12794
0.0630874
0.0412824
0.0543721
0.0742127
0.0978884
0.132596
0.196784
0.288347
0.374779
0.486904
0.576483
0.664546
0.750721
0.832879
0.915915
1.03187
1.18903
1.33848
1.56267
1.51786
0.0595106
0.0370495
0.0464817
0.0560416
0.083052
0.119308
0.207631
0.319307
0.44937
0.641045
0.785261
0.928473
1.05962
1.18224
1.31785
1.47901
1.65294
1.83007
2.09955
2.09484
0.0437079
0.0276888
0.0350625
0.0490852
0.0806483
0.121908
0.241459
0.39765
0.637145
0.883762
1.10141
1.29507
1.47909
1.65366
1.87652
2.11237
2.34626
2.5868
2.81272
3.00955
0.0289488
0.0209142
0.026473
0.0468207
0.110647
0.320767
0.596014
0.873081
1.21055
1.50545
1.74385
1.95181
2.16321
2.38867
2.69044
2.97974
3.26007
3.50863
3.66295
3.78914
0.0147757
0.0220947
0.0241828
0.1044
0.367046
0.780225
1.14715
1.55875
1.9959
2.37238
2.64093
2.89132
3.15012
3.4366
3.76833
3.9878
4.10953
4.14325
4.04879
3.91714
0.00822654
0.0265516
0.110712
0.412136
0.94248
1.48162
1.98751
2.54368
3.145
3.52458
3.7564
3.98766
4.1875
4.34784
4.46678
4.39947
4.19167
3.66678
2.80953
1.89754
0.0259092
0.162036
0.562922
1.2286
2.106
2.88285
3.55709
4.22429
4.76572
4.83645
4.74504
4.72625
4.68169
4.51603
4.01005
3.05984
2.09448
1.33794
1.02
0.992912
0.305091
0.868945
1.96063
3.17714
4.21898
4.89339
5.44268
5.883
5.73363
5.27973
4.85164
4.31448
3.39132
2.31982
1.42213
1.0287
0.989284
0.994869
0.997296
0.999432
2.31116
3.63326
4.87728
5.71113
6.27824
6.484
6.57632
6.23385
4.52171
3.19448
2.36312
1.56064
1.0805
0.987529
0.99293
0.996308
0.999167
0.999974
1.00002
1.00001
6.94126
6.89917
6.84369
6.92431
7.07387
6.84062
5.98472
2.27565
0.653144
1
1
1
1
1
1
1
1
1
1
1
6.91723
6.87237
6.75795
6.67727
6.80834
5.83545
2.61017
1.01663
1
1
1
1
1
1
1
1
1
1
1
1
6.81848
6.85949
6.83191
6.62341
6.22967
3.3457
1.04517
0.99912
1
1
1
1
1
1
1
1
1
1
1
1
6.67682
6.8516
6.84422
6.62056
4.73053
1.42211
0.993622
1.00012
0.999999
1
1
1
1
1
1
1
1
1
1
1
6.52998
6.8016
6.81084
6.1209
2.71703
0.975307
1.00036
0.999994
1
1
1
1
1
1
1
1
1
1
1
1
6.43264
6.75196
6.75303
4.95696
1.5046
1
1
1
1
1
1
1
1
1
1
1
1
1
1
1
6.39071
6.70632
6.72886
3.60595
0.972383
1
1
1
1
1
1
1
1
1
1
1
1
1
1
1
6.54146
6.64853
6.01831
2.04424
1
1
1
1
1
1
1
1
1
1
1
1
1
1
1
1
6.99973
6.71176
4.87923
1.16094
1
1
1
1
1
1
1
1
1
1
1
1
1
1
1
1
7.25038
6.34671
3.45398
0.988005
1
1
1
1
1
1
1
1
1
1
1
1
1
1
1
1
7.42813
6.00506
2.28281
1
1
1
1
1
1
1
1
1
1
1
1
1
1
1
1
1
7.48274
5.36979
1.62091
1
1
1
1
1
1
1
1
1
1
1
1
1
1
1
1
1
7.52378
4.77589
1.17317
1
1
1
1
1
1
1
1
1
1
1
1
1
1
1
1
1
7.38236
4.01434
1.01546
1
1
1
1
1
1
1
1
1
1
1
1
1
1
1
1
1
7.23455
3.20456
1
1
1
1
1
1
1
1
1
1
1
1
1
1
1
1
1
1
6.94336
2.49217
1
1
1
1
1
1
1
1
1
1
1
1
1
1
1
1
1
1
6.6569
1.83975
1
1
1
1
1
1
1
1
1
1
1
1
1
1
1
1
1
1
6.26718
1.36632
1
1
1
1
1
1
1
1
1
1
1
1
1
1
1
1
1
1
5.80487
1.00606
1
1
1
1
1
1
1
1
1
1
1
1
1
1
1
1
1
1
4.63086
1.00011
1
1
1
1
1
1
1
1
1
1
1
1
1
1
1
1
1
1
4.63089
1.00011
1
1
1
1
1
1
1
1
1
1
1
1
1
1
1
1
1
1
5.80455
1.00607
1
1
1
1
1
1
1
1
1
1
1
1
1
1
1
1
1
1
6.26747
1.36638
1
1
1
1
1
1
1
1
1
1
1
1
1
1
1
1
1
1
6.6563
1.83973
1
1
1
1
1
1
1
1
1
1
1
1
1
1
1
1
1
1
6.94433
2.49162
1
1
1
1
1
1
1
1
1
1
1
1
1
1
1
1
1
1
7.23412
3.2047
1
1
1
1
1
1
1
1
1
1
1
1
1
1
1
1
1
1
7.38207
4.01438
1.01541
1
1
1
1
1
1
1
1
1
1
1
1
1
1
1
1
1
7.52392
4.77593
1.17314
1
1
1
1
1
1
1
1
1
1
1
1
1
1
1
1
1
7.48296
5.36963
1.62093
1
1
1
1
1
1
1
1
1
1
1
1
1
1
1
1
1
7.42848
6.00517
2.2825
1
1
1
1
1
1
1
1
1
1
1
1
1
1
1
1
1
7.25057
6.34634
3.45382
0.988009
1
1
1
1
1
1
1
1
1
1
1
1
1
1
1
1
7.00034
6.71236
4.87891
1.16053
1
1
1
1
1
1
1
1
1
1
1
1
1
1
1
1
6.54227
6.64885
6.01816
2.04411
1
1
1
1
1
1
1
1
1
1
1
1
1
1
1
1
6.39035
6.70574
6.72898
3.60675
0.972364
1
1
1
1
1
1
1
1
1
1
1
1
1
1
1
6.4323
6.75175
6.7531
4.95791
1.50493
1
1
1
1
1
1
1
1
1
1
1
1
1
1
1
6.52996
6.80157
6.81018
6.12085
2.71813
0.975298
1.00036
0.999994
1
1
1
1
1
1
1
1
1
1
1
1
6.67624
6.85136
6.84404
6.62002
4.7314
1.42182
0.993623
1.00012
0.999999
1
1
1
1
1
1
1
1
1
1
1
6.81797
6.85969
6.83192
6.62241
6.22979
3.3447
1.04538
0.999117
1
1
1
1
1
1
1
1
1
1
1
1
6.91774
6.87303
6.75777
6.67633
6.80844
5.8384
2.60999
1.01645
1
1
1
1
1
1
1
1
1
1
1
1
6.94154
6.8993
6.84348
6.92366
7.07341
6.84174
5.98554
2.2786
0.6527
1
1
1
1
1
1
1
1
1
1
1
2.31243
3.63327
4.86827
5.7013
6.28013
6.49399
6.57444
6.23077
4.51692
3.18973
2.35874
1.55792
1.07981
0.987488
0.992921
0.996304
0.999167
0.999974
1.00002
1.00001
0.303168
0.872925
2.00482
3.2038
4.20957
4.8802
5.44081
5.88556
5.73628
5.28232
4.85473
4.31621
3.39196
2.31998
1.42232
1.02879
0.989269
0.994859
0.997291
0.999431
0.0247578
0.152133
0.504142
1.19846
2.11637
2.89606
3.55849
4.21937
4.76553
4.84127
4.75293
4.73108
4.68407
4.51671
4.01127
3.06078
2.09536
1.33868
1.02021
0.992907
0.00974836
0.0322442
0.142107
0.414546
0.929574
1.47018
1.98164
2.5428
3.14754
3.52731
3.76177
3.99283
4.19048
4.34887
4.4661
4.3987
4.19107
3.66696
2.81025
1.89827
0.0144123
0.0218271
0.0340445
0.112399
0.370973
0.775023
1.13809
1.54624
1.98603
2.36677
2.64014
2.89281
3.15138
3.43652
3.76707
3.98577
4.1078
4.1423
4.04812
3.91699
0.0260029
0.0218775
0.0283519
0.0468996
0.112203
0.332022
0.595336
0.867284
1.20189
1.49694
1.73836
1.94898
2.16165
2.38726
2.68884
2.97791
3.25813
3.50727
3.66223
3.78909
0.0411406
0.0263377
0.0303907
0.0494591
0.0819951
0.130575
0.252476
0.40747
0.639435
0.882136
1.09939
1.29398
1.4786
1.65341
1.87617
2.11193
2.34542
2.58594
2.81205
3.00913
0.0543523
0.035735
0.0448065
0.0615272
0.0861078
0.125891
0.217617
0.324712
0.454477
0.644235
0.787249
0.929402
1.05996
1.18246
1.31797
1.47901
1.65285
1.82978
2.09936
2.09484
0.0551764
0.0439917
0.0572006
0.0777622
0.102704
0.137729
0.200427
0.290291
0.377283
0.488726
0.577458
0.665031
0.751141
0.833388
0.916505
1.03255
1.18972
1.33899
1.56281
1.5178
0.0527601
0.0473233
0.0543379
0.07351
0.0995777
0.129887
0.160986
0.219227
0.275458
0.319226
0.373924
0.431499
0.505113
0.580251
0.66733
0.778327
0.898021
1.00287
1.16561
1.12775
0.0482816
0.0514237
0.0530532
0.0586619
0.0788657
0.102175
0.106201
0.130691
0.168122
0.200956
0.257286
0.315572
0.3941
0.459263
0.531355
0.60512
0.675982
0.737828
0.817898
0.956027
0.0411702
0.0559867
0.0567543
0.0545571
0.0584189
0.0730263
0.0790559
0.0949277
0.140148
0.186002
0.235295
0.276519
0.330028
0.373759
0.415828
0.45622
0.491739
0.531691
0.583871
0.731214
0.037371
0.0564595
0.0606861
0.058085
0.0569507
0.0657604
0.078265
0.0968629
0.139101
0.175776
0.207741
0.232537
0.257733
0.284964
0.303305
0.324823
0.344506
0.38677
0.441423
0.552278
0.0382536
0.0560548
0.0616334
0.0595368
0.0574515
0.0677379
0.0810794
0.0968511
0.125626
0.152324
0.162215
0.174134
0.180351
0.193823
0.20605
0.230205
0.266271
0.312915
0.354275
0.421755
0.0436796
0.0570932
0.0594368
0.0549182
0.0551361
0.0647823
0.0768711
0.0859514
0.0980345
0.115449
0.111975
0.117086
0.126596
0.149831
0.176467
0.204628
0.232983
0.260649
0.28228
0.306175
0.0521374
0.0599833
0.0590006
0.051471
0.048391
0.0528649
0.0603768
0.0653555
0.0688893
0.0775374
0.0859682
0.0988184
0.119631
0.14312
0.162557
0.182737
0.193968
0.201416
0.199281
0.207854
0.0592938
0.0664324
0.0665784
0.0582414
0.0465211
0.0446519
0.0473696
0.0539447
0.0600017
0.0690404
0.085598
0.0987906
0.11541
0.131074
0.140627
0.150904
0.148456
0.14607
0.146388
0.164586
0.0595497
0.0668196
0.0758825
0.0728467
0.0575553
0.0461018
0.0473019
0.054285
0.0618802
0.0693752
0.081298
0.0894244
0.0960337
0.0999824
0.101238
0.102273
0.103364
0.105677
0.112873
0.130981
0.0740805
0.0918021
0.119857
0.148357
0.150969
0.131541
0.109769
0.118533
0.138113
0.14946
0.159105
0.173343
0.192636
0.211076
0.208975
0.18859
0.174072
0.179088
0.190444
0.195203
0.138755
0.235501
0.293183
0.374039
0.407639
0.402836
0.393238
0.394539
0.418981
0.434256
0.429458
0.447028
0.469652
0.484314
0.492617
0.485835
0.485501
0.501248
0.516266
0.519741
0.561913
0.646247
0.711225
0.759442
0.828496
0.890585
0.887851
0.873717
0.849856
0.834505
0.825727
0.834682
0.85774
0.85904
0.854698
0.836272
0.792733
0.778528
0.784814
0.814323
0.284655
0.410456
0.538056
0.654782
0.753646
0.848346
0.869586
0.878103
0.877537
0.859449
0.837299
0.836183
0.848397
0.848803
0.845044
0.832148
0.798904
0.790142
0.805359
0.840431
0.140634
0.157062
0.227445
0.349324
0.508735
0.686683
0.787439
0.842351
0.893135
0.8685
0.845122
0.836934
0.834704
0.829877
0.824357
0.820453
0.804527
0.802831
0.823405
0.863602
0.191435
0.220361
0.237611
0.233982
0.243762
0.315397
0.516107
0.711077
0.826903
0.8489
0.858613
0.845838
0.82588
0.811576
0.804667
0.80685
0.798654
0.804768
0.832917
0.880249
0.232699
0.268415
0.282262
0.285163
0.276739
0.277156
0.296647
0.385835
0.58125
0.775247
0.824671
0.823331
0.81254
0.789239
0.784812
0.786725
0.788966
0.799916
0.82669
0.881796
0.303175
0.326037
0.351421
0.33818
0.315838
0.311914
0.320452
0.325111
0.35131
0.472371
0.64507
0.775186
0.808085
0.778284
0.770585
0.772459
0.777015
0.786005
0.810876
0.873524
0.394682
0.409038
0.408549
0.391486
0.365207
0.359972
0.366437
0.365347
0.357994
0.365138
0.404075
0.534156
0.748494
0.783849
0.78078
0.769694
0.762366
0.765937
0.790364
0.860649
0.521545
0.498151
0.486522
0.470604
0.43
0.401181
0.40022
0.398562
0.387455
0.37528
0.376563
0.38742
0.494786
0.705549
0.793258
0.778622
0.762739
0.757304
0.775566
0.848632
0.678907
0.612164
0.559217
0.541992
0.49996
0.463399
0.451038
0.444564
0.426085
0.406359
0.391542
0.388036
0.397098
0.510929
0.742856
0.779267
0.777488
0.764097
0.772659
0.837293
0.876505
0.747872
0.652868
0.631866
0.585262
0.53487
0.502018
0.481472
0.451031
0.425283
0.423126
0.406071
0.405938
0.413533
0.544759
0.733042
0.776261
0.76253
0.775832
0.829604
1.27686
0.97595
0.729958
0.672349
0.664059
0.650198
0.629485
0.575152
0.513952
0.479627
0.469089
0.457386
0.435864
0.412691
0.422143
0.505066
0.649159
0.731326
0.75754
0.820471
2.02528
1.53195
1.14722
0.909006
0.801589
0.778612
0.762045
0.701019
0.615375
0.568886
0.531986
0.493823
0.459439
0.441388
0.426781
0.419334
0.442497
0.535576
0.641336
0.775183
2.50139
2.16235
1.73735
1.36333
1.09189
0.889295
0.815234
0.766317
0.72488
0.700812
0.665012
0.588711
0.523086
0.494764
0.466486
0.431003
0.434759
0.446418
0.471911
0.582176
2.36429
2.34846
2.23704
1.92329
1.59199
1.27739
1.04016
0.925207
0.878341
0.829506
0.772017
0.693186
0.615673
0.563224
0.521443
0.47801
0.455295
0.457512
0.474135
0.542071
1.68076
2.14749
2.22391
2.19221
2.05965
1.79808
1.48137
1.24074
1.07901
0.930178
0.827087
0.783827
0.741515
0.686484
0.618315
0.545188
0.508157
0.505325
0.505342
0.555116
1.1093
1.4364
1.84927
2.11011
2.11045
2.07516
1.9309
1.69213
1.45217
1.20456
1.0246
0.950374
0.863049
0.782027
0.734428
0.675978
0.612716
0.582071
0.562935
0.580722
1.00453
1.04432
1.20483
1.54567
1.85889
2.02036
2.01691
1.9738
1.83434
1.61579
1.3806
1.18882
1.01119
0.853684
0.812151
0.766805
0.702096
0.658569
0.656518
0.67167
1.00009
1.00114
1.01022
1.07853
1.26872
1.56751
1.83176
1.93582
1.92425
1.87331
1.73674
1.5363
1.34659
1.15345
0.997831
0.893305
0.808824
0.769403
0.773637
0.800441
1
1.00001
1.00014
1.00253
1.01873
1.10075
1.29352
1.55883
1.77425
1.83612
1.81417
1.75157
1.64243
1.48971
1.31292
1.16863
1.05983
0.960342
0.915343
0.926556
1
1
1
1.00003
1.00033
1.0039
1.02498
1.11024
1.29356
1.50926
1.68146
1.71004
1.67885
1.61953
1.53366
1.43492
1.33164
1.23037
1.15626
1.11323
1
1
1
1
1
1.00004
1.00055
1.00455
1.02859
1.10326
1.24966
1.41778
1.53955
1.56074
1.5334
1.4793
1.41612
1.34807
1.28804
1.20589
1
1
1
1
1
1
1
1.00006
1.00065
1.00437
1.02353
1.07464
1.17496
1.28431
1.36162
1.38304
1.36624
1.3294
1.28171
1.19747
1
1
1
1
1
1
1
1
1.00001
1.00006
1.00048
1.00284
1.01303
1.03875
1.08459
1.1319
1.16703
1.17003
1.15851
1.11166
1
1
1
1
1
1
1
1
1
1
1
1.00003
1.00022
1.00106
1.00395
1.01021
1.01926
1.02554
1.02584
1.01923
1
1
1
1
1
1
1
1
1
1
1
1
1
1.00001
1.00004
1.00016
1.00042
1.00074
1.00083
1.00065
1.61464
2.46226
2.58169
2.0848
1.31008
1.03698
1.00188
1.00005
1
1
1
1
1
1
1
2.34663
2.81317
2.52469
1.53915
1.04806
1.00081
1
1
1
1
1
1
1
1
1
2.93043
2.86734
1.97833
1.1529
1.00529
1.00005
1
1
1
1
1
1
1
1
1
3.25345
2.55918
1.36596
1.01938
1.00019
1
1
1
1
1
1
1
1
1
1
3.32386
1.68235
1.04666
1.00048
1
1
1
1
1
1
1
1
1
1
1
2.06636
1.073
1.0005
0.999999
1
1
1
1
1
1
1
1
1
1
1
1.10215
1.00054
0.999997
1
1
1
1
1
1
1
1
1
1
1
1
0.998151
0.999865
0.999996
1
1
1
1
1
1
1
1
1
1
1
1
0.999966
1
1
1
1
1
1
1
1
1
1
1
1
1
1
1
1
1
1
1
1
1
1
1
1
1
1
1
1
1
1
1
1
1
1
1
1
1
1
1
1
1
1
1
1
1
1
1
1
1
1
1
1
1
1
1
1
1
1
1
1
1
1
1
1
1
1
1
1
1
1
1
1
1
1
1
1
1
1
1
1
1
1
1
1
1
1
1
1
1
1
1
1
1
1
1
1
1
1
1
1
1
1
1
1
1
1
1
1
1
1
1
1
1
1
1
1
1
1
1
1
1
1
1
1
1
1
1
1
1
1
1
1
1
1
1
1
1
1
1
1
1
1
1
1
1
1
1
1
1
1
1
1
1
1
1
1
1
1
1
1
1
1
1
1
1
1
1
1
1
1
1
1
1
1
1
1
1
1
1
1
1
1
1
1
1
1
1
1
1
1
1
1
1
1
1
1
1
1
1
1
1
1
1
1
1
1
1
1
1
1
1
1
1
1
1
1
1
1
1
1
1
1
1
1
1
1
1
1
1
1
1
1
1
1
1
1
1
1
1
1
1
1
1
1
1
1
1
1
1
1
1
1
1
1
1
1
1
1
1
1
1
1
1
1
1
1
1
1
1
1
1
1
1
1
1
1
1
1
1
1
1
1
1
1
1
1
1
1
1
1
1
1
1
1
1
1
1
1
1
1
1
1
1
1
1
1
1
1
1
1
1
1
1
1
1
1
1
1
1
1
1
1
1
1
1
1
1
1
1
1
1
1
1
1
1
1
1
1
1
1
1
1
1
1
1
1
1
1
1
1
1
1
1
1
1
1
1
1
1
1
1
1
1
1
1
1
1
1
1
1
1
1
1
1
1
1
1
1
1
1
1
1
1
1
1
1
1
1
1
1
1
1
1
1
1
1
1
1
1
1
1
1
1
1
1
1
1
1
1
1
1
1
1
1
1
1
1
1
1
1
1
1
1
1
1
1
1
1
1
1
1
1
1
1
1
1
1
1
1
1
1
1
1
1
1
1
1
1
1
1
1
1
1
1
1
1
1
1
1
1
1
1
1
1
1
1
1
1
1
1
1
1
1
1
1
1
1
1
1
1
1
1
1
1
1
1
1
1
1
1
1
1
1
1
1
1
1
1
1
1
1
1
1
1
1
1
1
1
1
1
1
1
1
1
1
1
1
1
1
1
1
1
1
1
1
1
1
1
1
1
1
1
1
1
1
1
1
1
1
1
1
1
1
1
1
1
1
1
1
1
1
1
1
1
1
1
1
1
1
1
1
1
1
1
1
1
1
1
1
1
1
1
1
1
1
1
1
1
1
1
1
1
1
1
1
1
1
1
1
1
1
1
1
1
1
1
1
1
1
1
1
1
1
1
1
1
1
1
1
1
1
1
1
1
1
1
1
1
1
1
1
1
1
1
1
1
1
1
1
1
1
1
1
1
1
1
1
1
1
1
1
1
1
1
1
1
1
1
1
1
1
1
1
1
1
1
1
1
1
1
1
1
1
1
1
1
1
1
1
1
1
1
1
1
1
1
1
1
1
1
1
1
1
1
1
1
1
1
1
1
1
1
1
1
1
1
1
1
1
1
1
1
1
1
1
1
1
1
1
1
1
1
1
1
1
1
1
1
1
1
1
1
1
1
1
1
1
1
1
1
1
1
1
1
1
1
1
1
1
1
1
1
1
1
1
1
1
1
1
1
1
1
1
1
1
1
1
1
1
1
1
1
1
1
1
1
1
1
1
1
1
1
1
1
1
1
1
1
1
1
1
1
1
1
1
1
1
1
1
1
1
1
1
1
1
1
1
1
1
1
1
1
1
1
1
1
1
1
1
1
1
1
1
1
1
1
1
1
1
1
1
1
1
1
1
1
1
1
1
1
1
1
1
1
1
1
1
1
1
1
1
1
1
1
0.999966
1
1
1
1
1
1
1
1
1
1
1
1
1
1
0.99815
0.999865
0.999996
1
1
1
1
1
1
1
1
1
1
1
1
1.10227
1.00054
0.999997
1
1
1
1
1
1
1
1
1
1
1
1
2.06659
1.07303
1.0005
0.999999
1
1
1
1
1
1
1
1
1
1
1
3.32401
1.68238
1.04666
1.00048
1
1
1
1
1
1
1
1
1
1
1
3.25358
2.55933
1.36595
1.01937
1.00019
1
1
1
1
1
1
1
1
1
1
2.93052
2.86748
1.9784
1.15291
1.00529
1.00005
1
1
1
1
1
1
1
1
1
2.34664
2.81325
2.52472
1.53913
1.04806
1.00081
1
1
1
1
1
1
1
1
1
1.61473
2.46231
2.58171
2.08476
1.31006
1.03697
1.00188
1.00005
1
1
1
1
1
1
1
1.27622
2.02475
2.50157
2.36435
1.68071
1.10929
1.00452
1.00009
1
1
1
1
1
1
1
0.977267
1.53138
2.16171
2.34842
2.14741
1.43637
1.04432
1.00114
1.00001
1
1
1
1
1
1
0.730615
1.14831
1.73722
2.23699
2.22395
1.84925
1.20484
1.01022
1.00014
1
1
1
1
1
1
0.671201
0.910915
1.36366
1.92318
2.19227
2.11016
1.5457
1.07854
1.00253
1.00003
1
1
1
1
1
0.663019
0.801019
1.09168
1.59181
2.05976
2.11046
1.85897
1.26877
1.01874
1.00033
1
1
1
1
1
0.649688
0.777973
0.89028
1.27834
1.79767
2.07513
2.02037
1.56762
1.10079
1.0039
1.00004
1
1
1
1
0.628993
0.761433
0.814922
1.04049
1.48168
1.93091
2.01691
1.83175
1.29358
1.02499
1.00055
1
1
1
1
0.575842
0.70054
0.765458
0.924794
1.24077
1.69224
1.97392
1.9359
1.55882
1.11023
1.00455
1.00006
1
1
1
0.515003
0.615547
0.724167
0.87792
1.07899
1.45219
1.83432
1.92431
1.77425
1.29349
1.02858
1.00065
1.00001
1
1
0.479997
0.569369
0.700719
0.829482
0.930463
1.20462
1.61571
1.87339
1.83618
1.50923
1.10323
1.00437
1.00006
1
1
0.469255
0.532509
0.665254
0.771898
0.82661
1.02488
1.38089
1.73684
1.81424
1.68149
1.24965
1.02353
1.00048
1
1
0.457183
0.493791
0.589446
0.693227
0.783412
0.950654
1.18916
1.53646
1.75165
1.71008
1.41779
1.07464
1.00284
1.00003
1
0.435128
0.458605
0.524039
0.616722
0.741385
0.862761
1.01185
1.34688
1.64249
1.67886
1.53956
1.17497
1.01303
1.00022
1
0.411842
0.440458
0.494435
0.563686
0.687003
0.781785
0.853118
1.15362
1.48972
1.61952
1.56073
1.28432
1.03875
1.00106
1.00001
0.421779
0.426036
0.465278
0.520939
0.619658
0.734578
0.811338
0.998073
1.31282
1.53363
1.53338
1.36162
1.0846
1.00395
1.00004
0.504862
0.419004
0.429917
0.47666
0.546196
0.677194
0.766493
0.893283
1.16851
1.43488
1.47929
1.38304
1.1319
1.01021
1.00016
0.648946
0.442503
0.434368
0.454415
0.507648
0.614625
0.702266
0.807558
1.05962
1.33155
1.41611
1.36624
1.16702
1.01926
1.00042
0.735748
0.536051
0.446639
0.456595
0.504015
0.583508
0.659418
0.767784
0.960319
1.23037
1.34807
1.3294
1.17003
1.02553
1.00074
0.763129
0.64203
0.472337
0.473176
0.503128
0.563885
0.657742
0.772192
0.915339
1.15629
1.28805
1.28171
1.15851
1.02584
1.00083
0.821974
0.778076
0.583243
0.542018
0.55296
0.581253
0.673088
0.799596
0.926453
1.1131
1.20585
1.19745
1.11166
1.01923
1.00065
0.876862
0.748514
0.651566
0.630456
0.585382
0.535021
0.502689
0.481908
0.45127
0.42545
0.423419
0.405851
0.404931
0.41212
0.543452
0.735666
0.777356
0.764375
0.777397
0.827998
0.679079
0.6124
0.558007
0.541499
0.500866
0.462973
0.451429
0.444612
0.425924
0.406313
0.391773
0.38743
0.396372
0.506828
0.740004
0.783397
0.779655
0.76409
0.772607
0.835265
0.521368
0.498754
0.486195
0.470451
0.43052
0.400843
0.400319
0.398424
0.386909
0.375339
0.376819
0.387426
0.494953
0.707181
0.793764
0.782058
0.764803
0.756833
0.774147
0.846843
0.394817
0.409479
0.408588
0.391298
0.365222
0.359946
0.366589
0.365418
0.357897
0.364849
0.402783
0.533582
0.748402
0.79001
0.783938
0.770105
0.761049
0.762379
0.785515
0.858879
0.303333
0.326414
0.351375
0.338137
0.315834
0.311749
0.3204
0.325165
0.350347
0.468866
0.643481
0.77568
0.809137
0.781156
0.770397
0.769431
0.771298
0.781733
0.80773
0.870842
0.233157
0.268307
0.282173
0.285321
0.27688
0.277194
0.296271
0.386645
0.577555
0.771258
0.824593
0.823551
0.812953
0.789605
0.78383
0.786852
0.78515
0.797715
0.826776
0.881498
0.191923
0.220182
0.2376
0.233958
0.243647
0.314688
0.514026
0.713755
0.827208
0.84661
0.85646
0.844939
0.825704
0.812326
0.803742
0.804101
0.799753
0.806912
0.837406
0.884931
0.140869
0.157707
0.229215
0.351098
0.507881
0.685624
0.787679
0.843192
0.893466
0.868137
0.846761
0.840361
0.837331
0.831086
0.824827
0.820635
0.807853
0.808161
0.830621
0.870449
0.278476
0.411364
0.539743
0.654935
0.755927
0.850925
0.869891
0.87348
0.876521
0.858934
0.836998
0.834418
0.844791
0.845517
0.842839
0.833071
0.8041
0.797645
0.813206
0.846801
0.56151
0.6467
0.711556
0.759203
0.829921
0.893808
0.893634
0.880933
0.864063
0.846743
0.83318
0.836683
0.859035
0.860973
0.856405
0.836637
0.793582
0.779817
0.791351
0.825516
)
;

boundaryField
{
    inlet
    {
        type            fixedValue;
        value           uniform 1;
    }
    outlet
    {
        type            zeroGradient;
    }
    airfoil
    {
        type            zeroGradient;
    }
    top
    {
        type            symmetryPlane;
    }
    bottom
    {
        type            symmetryPlane;
    }
    defaultFaces
    {
        type            empty;
    }
}


// ************************************************************************* //
