/*--------------------------------*- C++ -*----------------------------------*\
  =========                 |
  \\      /  F ield         | OpenFOAM: The Open Source CFD Toolbox
   \\    /   O peration     | Website:  https://openfoam.org
    \\  /    A nd           | Version:  7
     \\/     M anipulation  |
\*---------------------------------------------------------------------------*/
FoamFile
{
    version     2.0;
    format      ascii;
    class       volScalarField;
    location    "2.3";
    object      rho;
}
// * * * * * * * * * * * * * * * * * * * * * * * * * * * * * * * * * * * * * //

dimensions      [1 -3 0 0 0 0 0];

internalField   nonuniform List<scalar> 
3700
(
0.191146
0.301995
0.401115
0.506864
0.548306
0.560109
0.556111
0.552769
0.558041
0.574709
0.585164
0.610886
0.630026
0.650396
0.680042
0.689844
0.706652
0.703958
0.714806
0.723053
0.098141
0.116626
0.161367
0.186083
0.186525
0.180413
0.176933
0.17211
0.164127
0.172573
0.205535
0.238969
0.250152
0.24388
0.248429
0.262424
0.278525
0.272882
0.274733
0.281092
0.0813135
0.0892372
0.103207
0.0995228
0.0807583
0.0652822
0.0656811
0.075437
0.0860751
0.0963088
0.113057
0.124481
0.13387
0.139635
0.141429
0.143153
0.144879
0.147852
0.157392
0.182516
0.0836126
0.0892179
0.0922729
0.0799464
0.0653788
0.0627108
0.064868
0.0757911
0.0836593
0.0962288
0.119484
0.138092
0.161376
0.183295
0.196692
0.211258
0.207848
0.204282
0.204557
0.229359
0.0757414
0.0812483
0.0829048
0.0734128
0.0727956
0.073711
0.0828752
0.0965515
0.0973582
0.108478
0.120021
0.138348
0.167608
0.200486
0.227635
0.255884
0.271536
0.28188
0.278729
0.290377
0.0673238
0.0809563
0.0838261
0.0784948
0.0833848
0.0918433
0.108713
0.125219
0.13945
0.164138
0.157489
0.163779
0.177518
0.210427
0.247508
0.286553
0.325905
0.36447
0.394638
0.427664
0.0651301
0.0812311
0.0831823
0.0821651
0.0867621
0.0953979
0.11476
0.138704
0.177322
0.216435
0.22891
0.244807
0.253572
0.272398
0.289342
0.322884
0.372805
0.437531
0.495017
0.588854
0.0670103
0.0797203
0.0781877
0.0780691
0.0843516
0.0917991
0.111102
0.137604
0.195639
0.247275
0.291752
0.326202
0.361357
0.399398
0.425138
0.455182
0.482522
0.540991
0.616794
0.770885
0.0734017
0.0747292
0.0681844
0.07409
0.0845054
0.0977085
0.11226
0.134981
0.197347
0.260519
0.329004
0.386313
0.460801
0.521731
0.580481
0.637038
0.686954
0.742725
0.815349
1.02034
0.0830133
0.0683724
0.0635688
0.0834652
0.109408
0.137211
0.154668
0.185607
0.238213
0.281315
0.358133
0.439295
0.548771
0.639606
0.74015
0.84324
0.942402
1.029
1.14045
1.33255
0.0869224
0.0614015
0.0691454
0.102501
0.135244
0.177448
0.225977
0.306504
0.385966
0.446413
0.521947
0.601282
0.703034
0.807505
0.928651
1.08337
1.25059
1.39707
1.62388
1.57135
0.0882735
0.0578768
0.0761821
0.103887
0.136946
0.185374
0.274886
0.402488
0.522889
0.678971
0.803745
0.926356
1.04636
1.16078
1.27638
1.43772
1.65622
1.86388
2.17518
2.11295
0.0832906
0.0519652
0.0651694
0.0785124
0.116229
0.166818
0.289945
0.445579
0.626671
0.893345
1.09407
1.29334
1.47583
1.64642
1.83493
2.05886
2.3004
2.54635
2.92032
2.91375
0.0612137
0.0388656
0.0492019
0.0687892
0.112853
0.170296
0.33689
0.554559
0.887828
1.23088
1.53358
1.80287
2.05869
2.30125
2.61066
2.93792
3.2623
3.59592
3.90939
4.18265
0.04059
0.0293785
0.0371611
0.0655989
0.15459
0.446999
0.830055
1.21536
1.68441
2.0943
2.42565
2.71462
3.00825
3.32113
3.73964
4.14064
4.52916
4.87386
5.08843
5.26401
0.0207613
0.0310321
0.0339302
0.1459
0.511441
1.08585
1.59583
2.16759
2.77465
3.29743
3.67024
4.01759
4.37639
4.77333
5.2331
5.53727
5.7064
5.75362
5.62385
5.44347
0.0115864
0.0372972
0.154724
0.574235
1.31099
2.05991
2.76239
3.53427
4.36858
4.89509
5.21637
5.5366
5.81311
6.03543
6.20054
6.10775
5.82213
5.09869
3.91293
2.64912
0.0364784
0.226579
0.784244
1.70859
2.92594
4.00355
4.93856
5.86361
6.61428
6.7119
6.58502
6.55892
6.49718
6.26876
5.57119
4.25735
2.92176
1.8712
1.42792
1.39011
0.426635
1.21016
2.72492
4.41102
5.85453
6.78911
7.55026
8.16111
7.95424
7.32522
6.73216
5.99001
4.71376
3.23267
1.98809
1.44004
1.38505
1.39284
1.39623
1.39921
3.21329
5.0444
6.76647
7.92035
8.70565
8.9916
9.11998
8.64729
6.27768
4.4386
3.28955
2.17986
1.51226
1.3826
1.39014
1.39485
1.39884
1.39997
1.40003
1.40002
9.62186
9.56371
9.48714
9.59904
9.80698
9.48682
8.3063
3.17204
0.915756
1.40001
1.40001
1.40001
1.40001
1.40001
1.40001
1.40001
1.40001
1.40001
1.40001
1.40001
9.58888
9.52689
9.36887
9.25811
9.44119
8.099
3.63616
1.4231
1.40001
1.40001
1.40001
1.40001
1.40001
1.40001
1.40001
1.40001
1.40001
1.40001
1.40001
1.40001
9.45241
9.50915
9.47131
9.18427
8.64276
4.65481
1.4627
1.39878
1.40001
1.40001
1.40001
1.40001
1.40001
1.40001
1.40001
1.40001
1.40001
1.40001
1.40001
1.40001
9.25648
9.49821
9.4884
9.18119
6.57097
1.98634
1.39113
1.40017
1.4
1.40001
1.40001
1.40001
1.40001
1.40001
1.40001
1.40001
1.40001
1.40001
1.40001
1.40001
9.05338
9.429
9.44222
8.49084
3.78231
1.36554
1.40051
1.4
1.40001
1.40001
1.40001
1.40001
1.40001
1.40001
1.40001
1.40001
1.40001
1.40001
1.40001
1.40001
8.91873
9.3604
9.3624
6.8821
2.10033
1.40001
1.40001
1.40001
1.40001
1.40001
1.40001
1.40001
1.40001
1.40001
1.40001
1.40001
1.40001
1.40001
1.40001
1.40001
8.86071
9.29748
9.32958
5.01295
1.36144
1.40001
1.40001
1.40001
1.40001
1.40001
1.40001
1.40001
1.40001
1.40001
1.40001
1.40001
1.40001
1.40001
1.40001
1.40001
9.06892
9.21811
8.34934
2.84861
1.40001
1.40001
1.40001
1.40001
1.40001
1.40001
1.40001
1.40001
1.40001
1.40001
1.40001
1.40001
1.40001
1.40001
1.40001
1.40001
9.70234
9.3062
6.77562
1.62333
1.40001
1.40001
1.40001
1.40001
1.40001
1.40001
1.40001
1.40001
1.40001
1.40001
1.40001
1.40001
1.40001
1.40001
1.40001
1.40001
10.0486
8.80274
4.80299
1.38326
1.40001
1.40001
1.40001
1.40001
1.40001
1.40001
1.40001
1.40001
1.40001
1.40001
1.40001
1.40001
1.40001
1.40001
1.40001
1.40001
10.2939
8.33163
3.18003
1.40001
1.40001
1.40001
1.40001
1.40001
1.40001
1.40001
1.40001
1.40001
1.40001
1.40001
1.40001
1.40001
1.40001
1.40001
1.40001
1.40001
10.3691
7.45413
2.26195
1.40001
1.40001
1.40001
1.40001
1.40001
1.40001
1.40001
1.40001
1.40001
1.40001
1.40001
1.40001
1.40001
1.40001
1.40001
1.40001
1.40001
10.4256
6.63311
1.6405
1.40001
1.40001
1.40001
1.40001
1.40001
1.40001
1.40001
1.40001
1.40001
1.40001
1.40001
1.40001
1.40001
1.40001
1.40001
1.40001
1.40001
10.2301
5.5789
1.4215
1.40001
1.40001
1.40001
1.40001
1.40001
1.40001
1.40001
1.40001
1.40001
1.40001
1.40001
1.40001
1.40001
1.40001
1.40001
1.40001
1.40001
10.0273
4.45673
1.40001
1.40001
1.40001
1.40001
1.40001
1.40001
1.40001
1.40001
1.40001
1.40001
1.40001
1.40001
1.40001
1.40001
1.40001
1.40001
1.40001
1.40001
9.62624
3.46943
1.40001
1.40001
1.40001
1.40001
1.40001
1.40001
1.40001
1.40001
1.40001
1.40001
1.40001
1.40001
1.40001
1.40001
1.40001
1.40001
1.40001
1.40001
9.23221
2.56499
1.40001
1.40001
1.40001
1.40001
1.40001
1.40001
1.40001
1.40001
1.40001
1.40001
1.40001
1.40001
1.40001
1.40001
1.40001
1.40001
1.40001
1.40001
8.69484
1.90831
1.40001
1.40001
1.40001
1.40001
1.40001
1.40001
1.40001
1.40001
1.40001
1.40001
1.40001
1.40001
1.40001
1.40001
1.40001
1.40001
1.40001
1.40001
8.05651
1.40842
1.40001
1.40001
1.40001
1.40001
1.40001
1.40001
1.40001
1.40001
1.40001
1.40001
1.40001
1.40001
1.40001
1.40001
1.40001
1.40001
1.40001
1.40001
6.43123
1.40016
1.40001
1.40001
1.40001
1.40001
1.40001
1.40001
1.40001
1.40001
1.40001
1.40001
1.40001
1.40001
1.40001
1.40001
1.40001
1.40001
1.40001
1.40001
6.43126
1.40016
1.40001
1.40001
1.40001
1.40001
1.40001
1.40001
1.40001
1.40001
1.40001
1.40001
1.40001
1.40001
1.40001
1.40001
1.40001
1.40001
1.40001
1.40001
8.05607
1.40843
1.40001
1.40001
1.40001
1.40001
1.40001
1.40001
1.40001
1.40001
1.40001
1.40001
1.40001
1.40001
1.40001
1.40001
1.40001
1.40001
1.40001
1.40001
8.69524
1.90838
1.40001
1.40001
1.40001
1.40001
1.40001
1.40001
1.40001
1.40001
1.40001
1.40001
1.40001
1.40001
1.40001
1.40001
1.40001
1.40001
1.40001
1.40001
9.23138
2.56497
1.40001
1.40001
1.40001
1.40001
1.40001
1.40001
1.40001
1.40001
1.40001
1.40001
1.40001
1.40001
1.40001
1.40001
1.40001
1.40001
1.40001
1.40001
9.62759
3.46866
1.40001
1.40001
1.40001
1.40001
1.40001
1.40001
1.40001
1.40001
1.40001
1.40001
1.40001
1.40001
1.40001
1.40001
1.40001
1.40001
1.40001
1.40001
10.0267
4.45692
1.40001
1.40001
1.40001
1.40001
1.40001
1.40001
1.40001
1.40001
1.40001
1.40001
1.40001
1.40001
1.40001
1.40001
1.40001
1.40001
1.40001
1.40001
10.2297
5.57895
1.42143
1.40001
1.40001
1.40001
1.40001
1.40001
1.40001
1.40001
1.40001
1.40001
1.40001
1.40001
1.40001
1.40001
1.40001
1.40001
1.40001
1.40001
10.4258
6.63317
1.64045
1.40001
1.40001
1.40001
1.40001
1.40001
1.40001
1.40001
1.40001
1.40001
1.40001
1.40001
1.40001
1.40001
1.40001
1.40001
1.40001
1.40001
10.3694
7.45391
2.26198
1.40001
1.40001
1.40001
1.40001
1.40001
1.40001
1.40001
1.40001
1.40001
1.40001
1.40001
1.40001
1.40001
1.40001
1.40001
1.40001
1.40001
10.2944
8.33179
3.1796
1.40001
1.40001
1.40001
1.40001
1.40001
1.40001
1.40001
1.40001
1.40001
1.40001
1.40001
1.40001
1.40001
1.40001
1.40001
1.40001
1.40001
10.0489
8.80224
4.80277
1.38327
1.40001
1.40001
1.40001
1.40001
1.40001
1.40001
1.40001
1.40001
1.40001
1.40001
1.40001
1.40001
1.40001
1.40001
1.40001
1.40001
9.70318
9.30702
6.77519
1.62277
1.40001
1.40001
1.40001
1.40001
1.40001
1.40001
1.40001
1.40001
1.40001
1.40001
1.40001
1.40001
1.40001
1.40001
1.40001
1.40001
9.07004
9.21856
8.34913
2.84843
1.40001
1.40001
1.40001
1.40001
1.40001
1.40001
1.40001
1.40001
1.40001
1.40001
1.40001
1.40001
1.40001
1.40001
1.40001
1.40001
8.86022
9.29668
9.32975
5.01406
1.36142
1.40001
1.40001
1.40001
1.40001
1.40001
1.40001
1.40001
1.40001
1.40001
1.40001
1.40001
1.40001
1.40001
1.40001
1.40001
8.91826
9.36012
9.3625
6.88341
2.10079
1.40001
1.40001
1.40001
1.40001
1.40001
1.40001
1.40001
1.40001
1.40001
1.40001
1.40001
1.40001
1.40001
1.40001
1.40001
9.05335
9.42897
9.4413
8.49077
3.78382
1.36553
1.40051
1.4
1.40001
1.40001
1.40001
1.40001
1.40001
1.40001
1.40001
1.40001
1.40001
1.40001
1.40001
1.40001
9.25568
9.49788
9.48814
9.18045
6.57216
1.98593
1.39113
1.40017
1.4
1.40001
1.40001
1.40001
1.40001
1.40001
1.40001
1.40001
1.40001
1.40001
1.40001
1.40001
9.4517
9.50942
9.47133
9.18288
8.64292
4.65341
1.46299
1.39878
1.40001
1.40001
1.40001
1.40001
1.40001
1.40001
1.40001
1.40001
1.40001
1.40001
1.40001
1.40001
9.58959
9.5278
9.36861
9.25681
9.44133
8.10306
3.63591
1.42285
1.40001
1.40001
1.40001
1.40001
1.40001
1.40001
1.40001
1.40001
1.40001
1.40001
1.40001
1.40001
9.62224
9.5639
9.48686
9.59814
9.80635
9.48841
8.3075
3.17614
0.915136
1.40001
1.40001
1.40001
1.40001
1.40001
1.40001
1.40001
1.40001
1.40001
1.40001
1.40001
3.21507
5.04441
6.754
7.90678
8.70826
9.00542
9.11734
8.64299
6.27106
4.43205
3.28352
2.17609
1.51129
1.38255
1.39013
1.39485
1.39884
1.39997
1.40003
1.40002
0.423956
1.21573
2.78613
4.44791
5.84151
6.77088
7.54765
8.16463
7.9579
7.32879
6.73643
5.99241
4.71464
3.2329
1.98836
1.44016
1.38503
1.39283
1.39622
1.39921
0.034858
0.212752
0.702497
1.66674
2.94026
4.02185
4.94049
5.85679
6.61401
6.71856
6.59593
6.5656
6.50047
6.2697
5.57288
4.25866
2.92297
1.87222
1.42821
1.39011
0.0137302
0.0452657
0.198589
0.577685
1.29313
2.04407
2.75427
3.53304
4.37211
4.89886
5.22379
5.54376
5.81724
6.03685
6.19958
6.10667
5.82129
5.09894
3.91392
2.65014
0.0202684
0.0306781
0.0477536
0.157079
0.516913
1.07862
1.58325
2.15023
2.76095
3.28963
3.66913
4.01966
4.37814
4.77322
5.23136
5.53446
5.704
5.7523
5.62291
5.44325
0.0364987
0.0307516
0.0398148
0.0657109
0.15676
0.462715
0.829162
1.20734
1.67241
2.08248
2.41804
2.71071
3.0061
3.31919
3.73743
4.13811
4.52647
4.87197
5.08744
5.26394
0.0576472
0.0369988
0.0426698
0.0693052
0.114752
0.182419
0.352295
0.568261
0.891028
1.22863
1.53079
1.80135
2.05801
2.30091
2.61018
2.93732
3.26113
3.59472
3.90847
4.18207
0.076072
0.0501447
0.0628192
0.0861658
0.120506
0.176007
0.303863
0.453104
0.633776
0.897786
1.09684
1.29464
1.47631
1.64673
1.8351
2.05887
2.30028
2.54594
2.92005
2.91375
0.0771714
0.0616643
0.0801199
0.108838
0.143665
0.192523
0.279953
0.405184
0.52637
0.68151
0.805108
0.927041
1.04696
1.1615
1.27721
1.43867
1.65717
1.8646
2.17537
2.11287
0.0737447
0.0662669
0.0760999
0.102906
0.139301
0.181601
0.225007
0.306206
0.384615
0.44559
0.521853
0.602111
0.704705
0.809394
0.930647
1.08512
1.25164
1.39749
1.62366
1.57108
0.0674824
0.0719352
0.0742768
0.0821353
0.110372
0.142927
0.148577
0.18274
0.23496
0.280766
0.359346
0.440632
0.550062
0.640878
0.741307
0.844051
0.942754
1.02887
1.14028
1.3324
0.0575919
0.07829
0.0794064
0.0763747
0.081767
0.102168
0.110604
0.13277
0.195873
0.259864
0.32864
0.386168
0.460768
0.521766
0.580419
0.636746
0.68628
0.741964
0.814672
1.01977
0.0523346
0.0789747
0.0848933
0.0812788
0.0797009
0.092
0.109482
0.135456
0.194404
0.245605
0.290232
0.324877
0.360044
0.398056
0.423668
0.453722
0.481211
0.540147
0.616302
0.770706
0.0535922
0.0784541
0.0862385
0.0833137
0.0804034
0.0947669
0.113415
0.135455
0.175641
0.212945
0.226796
0.243473
0.252178
0.27101
0.288111
0.321838
0.372135
0.437156
0.494836
0.58889
0.0611877
0.0799203
0.083215
0.0769044
0.0772025
0.0906787
0.107578
0.120293
0.137204
0.161556
0.156728
0.163866
0.177142
0.209587
0.246776
0.286087
0.325653
0.364258
0.394463
0.427792
0.0730113
0.083963
0.08261
0.0721149
0.0678281
0.0740904
0.0846005
0.0915742
0.09652
0.108597
0.120361
0.13831
0.167383
0.200183
0.227329
0.255514
0.271206
0.281628
0.278695
0.2907
0.0829965
0.0929645
0.0931773
0.0815598
0.0652109
0.0626087
0.0664119
0.0756026
0.0840728
0.096697
0.11982
0.138255
0.161475
0.183351
0.19671
0.211084
0.207695
0.204423
0.2049
0.230297
0.0833326
0.0934786
0.106132
0.101918
0.080611
0.0646301
0.0663089
0.0760678
0.0866852
0.0971477
0.113798
0.12516
0.134401
0.139926
0.1417
0.143169
0.14471
0.147946
0.157998
0.1833
0.103536
0.128194
0.167181
0.206655
0.210153
0.183149
0.152975
0.165171
0.192287
0.208096
0.221632
0.241445
0.26813
0.293576
0.29067
0.262495
0.242625
0.249654
0.265487
0.272214
0.193157
0.327247
0.407026
0.518661
0.564987
0.558342
0.545137
0.546969
0.58061
0.601574
0.594965
0.619175
0.650204
0.670365
0.681874
0.672629
0.672435
0.694396
0.715279
0.720169
0.778513
0.895538
0.985846
1.05293
1.14892
1.23515
1.23153
1.21218
1.17942
1.15844
1.14655
1.15918
1.19125
1.19305
1.18705
1.1618
1.10257
1.08512
1.09624
1.13953
0.396246
0.571033
0.748142
0.910006
1.04711
1.17837
1.20767
1.21949
1.21877
1.19385
1.16334
1.162
1.17898
1.17945
1.17408
1.15633
1.11114
1.10098
1.12439
1.17568
0.196822
0.219783
0.317921
0.487565
0.70928
0.956534
1.09616
1.1721
1.24238
1.20815
1.17571
1.16446
1.16136
1.15446
1.14629
1.14076
1.11912
1.11816
1.14857
1.2073
0.267785
0.308205
0.332321
0.32728
0.340916
0.440742
0.720115
0.991235
1.1521
1.18234
1.1958
1.17813
1.1504
1.1303
1.12008
1.12268
1.11143
1.12069
1.16112
1.22976
0.325381
0.375249
0.394615
0.398695
0.386997
0.387575
0.414732
0.538977
0.810995
1.0806
1.14935
1.14752
1.13258
1.10004
1.09339
1.09553
1.09863
1.11418
1.15231
1.23157
0.423687
0.455618
0.491049
0.472617
0.441487
0.436025
0.44794
0.454443
0.490962
0.65953
0.899834
1.08078
1.12668
1.08515
1.07414
1.07636
1.08266
1.09532
1.13054
1.22
0.551253
0.571307
0.570654
0.546914
0.510279
0.502985
0.512017
0.510523
0.500333
0.510305
0.564563
0.745645
1.04389
1.09298
1.08853
1.07299
1.06282
1.06796
1.10246
1.20222
0.727969
0.695448
0.679268
0.657105
0.600529
0.560374
0.559081
0.556818
0.541403
0.524499
0.5263
0.541448
0.690963
0.984205
1.10606
1.08572
1.06373
1.05641
1.08232
1.18574
0.947017
0.854141
0.780449
0.756478
0.697961
0.64704
0.629864
0.620916
0.595255
0.567834
0.547231
0.542362
0.555009
0.713558
1.03615
1.08689
1.08452
1.06618
1.07862
1.17019
1.2218
1.04289
0.910755
0.881578
0.816758
0.746608
0.700882
0.67234
0.630028
0.594227
0.591272
0.567545
0.567395
0.578023
0.760742
1.02271
1.08305
1.06425
1.08332
1.15971
1.77808
1.36007
1.01809
0.938016
0.926539
0.90727
0.87846
0.802868
0.717721
0.669987
0.655371
0.63912
0.609187
0.576913
0.59015
0.705689
0.906419
1.02123
1.05826
1.1473
2.81805
2.13301
1.59842
1.26732
1.11808
1.0862
1.06319
0.978315
0.859112
0.794414
0.743087
0.689997
0.642151
0.617061
0.596768
0.586488
0.618889
0.748845
0.896775
1.08446
3.4808
3.00967
2.41917
1.89946
1.52213
1.24048
1.13752
1.06949
1.0118
0.978332
0.928566
0.822353
0.730982
0.691606
0.652296
0.602898
0.608298
0.624787
0.660799
0.815353
3.29394
3.26997
3.11501
2.67882
2.21822
1.78084
1.45087
1.291
1.22583
1.15791
1.07795
0.968196
0.860233
0.787226
0.729107
0.668652
0.637113
0.640469
0.664106
0.759551
2.3472
2.99521
3.09967
3.05438
2.86991
2.50604
2.06548
1.73074
1.50572
1.29858
1.15508
1.09486
1.03595
0.959347
0.864443
0.762571
0.711096
0.70744
0.707905
0.777925
1.55236
2.00806
2.58244
2.94431
2.94323
2.89322
2.69236
2.36001
2.02604
1.68134
1.43076
1.32744
1.20584
1.09302
1.02677
0.945399
0.857328
0.814847
0.788587
0.813859
1.40632
1.46183
1.68566
2.16062
2.59642
2.82034
2.81438
2.75371
2.5594
2.25501
1.92747
1.6604
1.41291
1.19343
1.13566
1.0726
0.982482
0.921962
0.91955
0.941085
1.40013
1.40159
1.41427
1.50957
1.77483
2.19127
2.55911
2.70341
2.68635
2.61512
2.42476
2.14547
1.88116
1.61203
1.39518
1.24958
1.13187
1.07709
1.08339
1.12111
1.40001
1.40002
1.4002
1.40354
1.42615
1.54058
1.80947
2.17932
2.47929
2.56505
2.53393
2.44657
2.29443
2.08159
1.83522
1.63418
1.48262
1.34397
1.28143
1.29731
1.40001
1.40001
1.40001
1.40004
1.40047
1.40545
1.43487
1.55383
1.80955
2.11028
2.35026
2.38968
2.34609
2.26333
2.14366
2.00608
1.86219
1.72109
1.61784
1.55794
1.40001
1.40001
1.40001
1.40001
1.40001
1.40007
1.40077
1.40635
1.4399
1.5441
1.74834
1.98278
2.15252
2.18195
2.14379
2.06838
1.98035
1.88553
1.80186
1.6873
1.40001
1.40001
1.40001
1.40001
1.40001
1.40001
1.40001
1.40008
1.40092
1.4061
1.43285
1.50416
1.64413
1.79666
1.9045
1.9344
1.91097
1.85959
1.79308
1.67556
1.40001
1.40001
1.40001
1.40001
1.40001
1.40001
1.40001
1.40001
1.40001
1.40008
1.40068
1.40397
1.41819
1.45408
1.51805
1.58407
1.63309
1.63729
1.62121
1.55584
1.40001
1.40001
1.40001
1.40001
1.40001
1.40001
1.40001
1.40001
1.40001
1.40001
1.40001
1.40005
1.40031
1.40149
1.40551
1.41425
1.42689
1.43565
1.43607
1.42685
1.40001
1.40001
1.40001
1.40001
1.40001
1.40001
1.40001
1.40001
1.40001
1.40001
1.40001
1.40001
1.40001
1.40002
1.40007
1.40023
1.4006
1.40103
1.40117
1.40092
2.24708
3.42481
3.59248
2.90664
1.83151
1.45152
1.40262
1.40007
1.40001
1.40001
1.40001
1.40001
1.40001
1.40001
1.40001
3.26335
3.91251
3.51637
2.15015
1.46697
1.40113
1.40001
1.4
1.40001
1.40001
1.40001
1.40001
1.40001
1.40001
1.40001
4.07394
3.98896
2.75939
1.61287
1.40737
1.40008
1.40001
1.40001
1.40001
1.40001
1.40001
1.40001
1.40001
1.40001
1.40001
4.52235
3.56442
1.90917
1.42701
1.40027
1.40001
1.40001
1.40001
1.40001
1.40001
1.40001
1.40001
1.40001
1.40001
1.40001
4.62331
2.34863
1.46497
1.40068
1.40001
1.40001
1.40001
1.40001
1.40001
1.40001
1.40001
1.40001
1.40001
1.40001
1.40001
2.88159
1.50164
1.40071
1.4
1.4
1.40001
1.40001
1.40001
1.40001
1.40001
1.40001
1.40001
1.40001
1.40001
1.40001
1.54235
1.40076
1.4
1.4
1.40001
1.40001
1.40001
1.40001
1.40001
1.40001
1.40001
1.40001
1.40001
1.40001
1.40001
1.39742
1.39982
1.4
1.40001
1.40001
1.40001
1.40001
1.40001
1.40001
1.40001
1.40001
1.40001
1.40001
1.40001
1.40001
1.39996
1.40001
1.40001
1.40001
1.40001
1.40001
1.40001
1.40001
1.40001
1.40001
1.40001
1.40001
1.40001
1.40001
1.40001
1.40001
1.40001
1.40001
1.40001
1.40001
1.40001
1.40001
1.40001
1.40001
1.40001
1.40001
1.40001
1.40001
1.40001
1.40001
1.40001
1.40001
1.40001
1.40001
1.40001
1.40001
1.40001
1.40001
1.40001
1.40001
1.40001
1.40001
1.40001
1.40001
1.40001
1.40001
1.40001
1.40001
1.40001
1.40001
1.40001
1.40001
1.40001
1.40001
1.40001
1.40001
1.40001
1.40001
1.40001
1.40001
1.40001
1.40001
1.40001
1.40001
1.40001
1.40001
1.40001
1.40001
1.40001
1.40001
1.40001
1.40001
1.40001
1.40001
1.40001
1.40001
1.40001
1.40001
1.40001
1.40001
1.40001
1.40001
1.40001
1.40001
1.40001
1.40001
1.40001
1.40001
1.40001
1.40001
1.40001
1.40001
1.40001
1.40001
1.40001
1.40001
1.40001
1.40001
1.40001
1.40001
1.40001
1.40001
1.40001
1.40001
1.40001
1.40001
1.40001
1.40001
1.40001
1.40001
1.40001
1.40001
1.40001
1.40001
1.40001
1.40001
1.40001
1.40001
1.40001
1.40001
1.40001
1.40001
1.40001
1.40001
1.40001
1.40001
1.40001
1.40001
1.40001
1.40001
1.40001
1.40001
1.40001
1.40001
1.40001
1.40001
1.40001
1.40001
1.40001
1.40001
1.40001
1.40001
1.40001
1.40001
1.40001
1.40001
1.40001
1.40001
1.40001
1.40001
1.40001
1.40001
1.40001
1.40001
1.40001
1.40001
1.40001
1.40001
1.40001
1.40001
1.40001
1.40001
1.40001
1.40001
1.40001
1.40001
1.40001
1.40001
1.40001
1.40001
1.40001
1.40001
1.40001
1.40001
1.40001
1.40001
1.40001
1.40001
1.40001
1.40001
1.40001
1.40001
1.40001
1.40001
1.40001
1.40001
1.40001
1.40001
1.40001
1.40001
1.40001
1.40001
1.40001
1.40001
1.40001
1.40001
1.40001
1.40001
1.40001
1.40001
1.40001
1.40001
1.40001
1.40001
1.40001
1.40001
1.40001
1.40001
1.40001
1.40001
1.40001
1.40001
1.40001
1.40001
1.40001
1.40001
1.40001
1.40001
1.40001
1.40001
1.40001
1.40001
1.40001
1.40001
1.40001
1.40001
1.40001
1.40001
1.40001
1.40001
1.40001
1.40001
1.40001
1.40001
1.40001
1.40001
1.40001
1.40001
1.40001
1.40001
1.40001
1.40001
1.40001
1.40001
1.40001
1.40001
1.40001
1.40001
1.40001
1.40001
1.40001
1.40001
1.40001
1.40001
1.40001
1.40001
1.40001
1.40001
1.40001
1.40001
1.40001
1.40001
1.40001
1.40001
1.40001
1.40001
1.40001
1.40001
1.40001
1.40001
1.40001
1.40001
1.40001
1.40001
1.40001
1.40001
1.40001
1.40001
1.40001
1.40001
1.40001
1.40001
1.40001
1.40001
1.40001
1.40001
1.40001
1.40001
1.40001
1.40001
1.40001
1.40001
1.40001
1.40001
1.40001
1.40001
1.40001
1.40001
1.40001
1.40001
1.40001
1.40001
1.40001
1.40001
1.40001
1.40001
1.40001
1.40001
1.40001
1.40001
1.40001
1.40001
1.40001
1.40001
1.40001
1.40001
1.40001
1.40001
1.40001
1.40001
1.40001
1.40001
1.40001
1.40001
1.40001
1.40001
1.40001
1.40001
1.40001
1.40001
1.40001
1.40001
1.40001
1.40001
1.40001
1.40001
1.40001
1.40001
1.40001
1.40001
1.40001
1.40001
1.40001
1.40001
1.40001
1.40001
1.40001
1.40001
1.40001
1.40001
1.40001
1.40001
1.40001
1.40001
1.40001
1.40001
1.40001
1.40001
1.40001
1.40001
1.40001
1.40001
1.40001
1.40001
1.40001
1.40001
1.40001
1.40001
1.40001
1.40001
1.40001
1.40001
1.40001
1.40001
1.40001
1.40001
1.40001
1.40001
1.40001
1.40001
1.40001
1.40001
1.40001
1.40001
1.40001
1.40001
1.40001
1.40001
1.40001
1.40001
1.40001
1.40001
1.40001
1.40001
1.40001
1.40001
1.40001
1.40001
1.40001
1.40001
1.40001
1.40001
1.40001
1.40001
1.40001
1.40001
1.40001
1.40001
1.40001
1.40001
1.40001
1.40001
1.40001
1.40001
1.40001
1.40001
1.40001
1.40001
1.40001
1.40001
1.40001
1.40001
1.40001
1.40001
1.40001
1.40001
1.40001
1.40001
1.40001
1.40001
1.40001
1.40001
1.40001
1.40001
1.40001
1.40001
1.40001
1.40001
1.40001
1.40001
1.40001
1.40001
1.40001
1.40001
1.40001
1.40001
1.40001
1.40001
1.40001
1.40001
1.40001
1.40001
1.40001
1.40001
1.40001
1.40001
1.40001
1.40001
1.40001
1.40001
1.40001
1.40001
1.40001
1.40001
1.40001
1.40001
1.40001
1.40001
1.40001
1.40001
1.40001
1.40001
1.40001
1.40001
1.40001
1.40001
1.40001
1.40001
1.40001
1.40001
1.40001
1.40001
1.40001
1.40001
1.40001
1.40001
1.40001
1.40001
1.40001
1.40001
1.40001
1.40001
1.40001
1.40001
1.40001
1.40001
1.40001
1.40001
1.40001
1.40001
1.40001
1.40001
1.40001
1.40001
1.40001
1.40001
1.40001
1.40001
1.40001
1.40001
1.40001
1.40001
1.40001
1.40001
1.40001
1.40001
1.40001
1.40001
1.40001
1.40001
1.40001
1.40001
1.40001
1.40001
1.40001
1.40001
1.40001
1.40001
1.40001
1.40001
1.40001
1.40001
1.40001
1.40001
1.40001
1.40001
1.40001
1.40001
1.40001
1.40001
1.40001
1.40001
1.40001
1.40001
1.40001
1.40001
1.40001
1.40001
1.40001
1.40001
1.40001
1.40001
1.40001
1.40001
1.40001
1.40001
1.40001
1.40001
1.40001
1.40001
1.40001
1.40001
1.40001
1.40001
1.40001
1.40001
1.40001
1.40001
1.40001
1.40001
1.40001
1.40001
1.40001
1.40001
1.40001
1.40001
1.40001
1.40001
1.40001
1.40001
1.40001
1.40001
1.40001
1.40001
1.40001
1.40001
1.40001
1.40001
1.40001
1.40001
1.40001
1.40001
1.40001
1.40001
1.40001
1.40001
1.40001
1.40001
1.40001
1.40001
1.40001
1.40001
1.40001
1.40001
1.40001
1.40001
1.40001
1.40001
1.40001
1.40001
1.40001
1.40001
1.40001
1.40001
1.40001
1.40001
1.40001
1.40001
1.40001
1.40001
1.40001
1.40001
1.40001
1.40001
1.40001
1.40001
1.40001
1.40001
1.40001
1.40001
1.40001
1.40001
1.40001
1.40001
1.40001
1.40001
1.40001
1.40001
1.40001
1.40001
1.40001
1.40001
1.40001
1.40001
1.40001
1.40001
1.40001
1.40001
1.40001
1.40001
1.40001
1.40001
1.40001
1.40001
1.40001
1.40001
1.40001
1.40001
1.40001
1.40001
1.40001
1.40001
1.40001
1.40001
1.40001
1.40001
1.40001
1.40001
1.40001
1.40001
1.40001
1.40001
1.40001
1.40001
1.40001
1.40001
1.40001
1.40001
1.40001
1.40001
1.40001
1.40001
1.40001
1.40001
1.40001
1.40001
1.40001
1.40001
1.40001
1.40001
1.40001
1.40001
1.40001
1.40001
1.40001
1.40001
1.40001
1.40001
1.40001
1.40001
1.40001
1.40001
1.40001
1.40001
1.40001
1.40001
1.40001
1.40001
1.40001
1.40001
1.40001
1.40001
1.40001
1.40001
1.40001
1.40001
1.40001
1.40001
1.40001
1.40001
1.40001
1.40001
1.40001
1.40001
1.40001
1.40001
1.40001
1.40001
1.40001
1.40001
1.40001
1.40001
1.40001
1.40001
1.40001
1.40001
1.40001
1.40001
1.40001
1.40001
1.40001
1.40001
1.40001
1.40001
1.40001
1.40001
1.40001
1.40001
1.40001
1.40001
1.40001
1.40001
1.40001
1.40001
1.40001
1.40001
1.40001
1.40001
1.40001
1.40001
1.40001
1.40001
1.40001
1.40001
1.40001
1.40001
1.40001
1.40001
1.40001
1.40001
1.40001
1.40001
1.40001
1.40001
1.40001
1.40001
1.40001
1.40001
1.40001
1.40001
1.40001
1.40001
1.40001
1.40001
1.40001
1.40001
1.40001
1.40001
1.40001
1.40001
1.40001
1.40001
1.40001
1.40001
1.40001
1.40001
1.40001
1.40001
1.40001
1.40001
1.40001
1.40001
1.40001
1.40001
1.40001
1.40001
1.40001
1.40001
1.40001
1.40001
1.40001
1.40001
1.40001
1.40001
1.40001
1.40001
1.40001
1.40001
1.40001
1.40001
1.40001
1.40001
1.40001
1.40001
1.40001
1.40001
1.40001
1.40001
1.40001
1.40001
1.40001
1.40001
1.40001
1.40001
1.40001
1.40001
1.40001
1.40001
1.40001
1.40001
1.40001
1.40001
1.40001
1.40001
1.40001
1.39996
1.40001
1.40001
1.40001
1.40001
1.40001
1.40001
1.40001
1.40001
1.40001
1.40001
1.40001
1.40001
1.40001
1.40001
1.39742
1.39982
1.4
1.40001
1.40001
1.40001
1.40001
1.40001
1.40001
1.40001
1.40001
1.40001
1.40001
1.40001
1.40001
1.54252
1.40076
1.4
1.4
1.40001
1.40001
1.40001
1.40001
1.40001
1.40001
1.40001
1.40001
1.40001
1.40001
1.40001
2.8819
1.50168
1.40071
1.4
1.4
1.40001
1.40001
1.40001
1.40001
1.40001
1.40001
1.40001
1.40001
1.40001
1.40001
4.62352
2.34868
1.46498
1.40068
1.40001
1.40001
1.40001
1.40001
1.40001
1.40001
1.40001
1.40001
1.40001
1.40001
1.40001
4.52254
3.56463
1.90915
1.42698
1.40027
1.40001
1.40001
1.40001
1.40001
1.40001
1.40001
1.40001
1.40001
1.40001
1.40001
4.07407
3.98915
2.75948
1.61288
1.40737
1.40008
1.40001
1.40001
1.40001
1.40001
1.40001
1.40001
1.40001
1.40001
1.40001
3.26337
3.91263
3.51642
2.15012
1.46697
1.40113
1.40001
1.4
1.40001
1.40001
1.40001
1.40001
1.40001
1.40001
1.40001
2.24722
3.42488
3.59251
2.90658
1.83148
1.45151
1.40262
1.40007
1.40001
1.40001
1.40001
1.40001
1.40001
1.40001
1.40001
1.77719
2.81731
3.48104
3.29403
2.34713
1.55234
1.40632
1.40013
1.40001
1.40001
1.40001
1.40001
1.40001
1.40001
1.40001
1.3619
2.13222
3.00879
3.26992
2.99509
2.00801
1.46184
1.40159
1.40002
1.40001
1.40001
1.40001
1.40001
1.40001
1.40001
1.019
1.59994
2.41898
3.11494
3.09973
2.58241
1.68568
1.41427
1.4002
1.40001
1.40001
1.40001
1.40001
1.40001
1.40001
0.936417
1.26998
1.89991
2.67866
3.05447
2.94437
2.16066
1.50958
1.40354
1.40004
1.40001
1.40001
1.40001
1.40001
1.40001
0.92509
1.11728
1.52184
2.21798
2.87007
2.94325
2.59653
1.77489
1.42615
1.40047
1.40001
1.40001
1.40001
1.40001
1.40001
0.906561
1.08531
1.24185
1.78217
2.50546
2.89316
2.82036
2.19143
1.54064
1.40545
1.40007
1.40001
1.40001
1.40001
1.40001
0.877776
1.06234
1.13708
1.45133
2.06592
2.69237
2.81437
2.55909
1.80956
1.43488
1.40077
1.40001
1.40001
1.40001
1.40001
0.803829
0.977649
1.06829
1.29043
1.73078
2.36016
2.75388
2.70352
2.17931
1.55381
1.40635
1.40008
1.40001
1.40001
1.40001
0.719186
0.859352
1.01081
1.22524
1.50569
2.02607
2.55937
2.68644
2.4793
1.80946
1.43988
1.40092
1.40001
1.40001
1.40001
0.670502
0.795088
0.978203
1.15788
1.29898
1.68142
2.2549
2.61523
2.56513
2.11023
1.54405
1.4061
1.40008
1.40001
1.40001
0.655601
0.743816
0.928904
1.07778
1.15441
1.43115
1.92789
2.42491
2.53402
2.3503
1.74832
1.43284
1.40068
1.40001
1.40001
0.638837
0.689952
0.823376
0.968254
1.09428
1.32783
1.66087
2.14569
2.44668
2.38973
1.98279
1.50416
1.40397
1.40005
1.40001
0.60816
0.640988
0.73231
0.861695
1.03576
1.20544
1.41382
1.88156
2.29451
2.34611
2.15254
1.64414
1.41819
1.40031
1.40001
0.575731
0.615763
0.691146
0.787869
0.960071
1.09268
1.19264
1.61227
2.0816
2.26332
2.18194
1.79667
1.45408
1.40149
1.40002
0.589642
0.59573
0.650611
0.728402
0.866315
1.02698
1.13453
1.39552
1.83509
2.14361
2.14377
1.90451
1.51806
1.40551
1.40007
0.705408
0.586031
0.601382
0.666766
0.763977
0.947095
1.07216
1.24955
1.63403
2.00604
2.06837
1.93439
1.58407
1.41425
1.40023
0.906118
0.618897
0.607754
0.635885
0.710383
0.859992
0.982719
1.13011
1.48232
1.86207
1.98034
1.91096
1.63308
1.42689
1.4006
1.02738
0.749508
0.625099
0.639191
0.705611
0.816854
0.923148
1.07482
1.34394
1.72109
1.88553
1.85958
1.63728
1.43564
1.40103
1.06604
0.897741
0.661396
0.662769
0.704816
0.789916
0.92126
1.08137
1.28142
1.61788
1.80187
1.79307
1.62121
1.43606
1.40117
1.14939
1.0885
0.816842
0.759478
0.774909
0.814603
0.943067
1.11993
1.29717
1.55776
1.68724
1.67553
1.55583
1.42685
1.40092
1.2223
1.04379
0.908944
0.879616
0.816925
0.746818
0.701819
0.672947
0.63036
0.59446
0.591681
0.567237
0.565992
0.576056
0.758917
1.02636
1.08457
1.06681
1.0855
1.15748
0.947255
0.85447
0.778765
0.755791
0.699222
0.646445
0.630411
0.620983
0.59503
0.567769
0.547553
0.541518
0.553999
0.707854
1.03217
1.09263
1.08753
1.06617
1.07855
1.16737
0.727722
0.696286
0.678812
0.656891
0.601253
0.559903
0.559218
0.556626
0.540641
0.52458
0.526658
0.541459
0.691194
0.986485
1.10676
1.0905
1.06659
1.05575
1.08034
1.18324
0.551441
0.571922
0.570709
0.546652
0.5103
0.50295
0.512229
0.510623
0.500199
0.509902
0.562763
0.744846
1.04375
1.10156
1.09293
1.07356