/*--------------------------------*- C++ -*----------------------------------*\
  =========                 |
  \\      /  F ield         | OpenFOAM: The Open Source CFD Toolbox
   \\    /   O peration     | Website:  https://openfoam.org
    \\  /    A nd           | Version:  7
     \\/     M anipulation  |
\*---------------------------------------------------------------------------*/
FoamFile
{
    version     2.0;
    format      ascii;
    class       volScalarField;
    location    "2.3";
    object      T;
}
// * * * * * * * * * * * * * * * * * * * * * * * * * * * * * * * * * * * * * //

dimensions      [0 0 0 1 0 0 0];

internalField   nonuniform List<scalar> 
3700
(
100.553
100.715
100.858
100.941
100.97
101.008
101.009
100.996
100.979
100.989
101.047
101.111
101.115
101.104
101.107
101.116
101.112
101.096
101.073
101.051
100.124
100.19
100.356
100.424
100.461
100.561
100.579
100.513
100.364
100.37
100.479
100.574
100.568
100.505
100.497
100.54
100.566
100.524
100.465
100.42
100.013
100.039
100.075
100.054
99.9592
99.8714
99.8726
99.9132
99.9398
99.9763
100.015
100.026
100.033
100.034
100.021
100.008
99.998
99.9987
100.013
100.039
99.9928
100.012
100.021
99.9611
99.875
99.8513
99.8583
99.9
99.9202
99.9608
100.015
100.037
100.061
100.083
100.085
100.085
100.067
100.035
100.019
100.052
99.9502
99.9819
99.986
99.9284
99.8995
99.8942
99.9157
99.9397
99.9309
99.9641
99.9976
100.027
100.061
100.093
100.11
100.124
100.128
100.126
100.107
100.101
99.9185
99.9824
100.003
100.001
100.009
100.018
100.04
100.049
100.045
100.06
100.033
100.038
100.055
100.085
100.113
100.137
100.16
100.178
100.185
100.199
99.9178
100.006
100.042
100.051
100.053
100.058
100.082
100.107
100.142
100.157
100.145
100.138
100.13
100.131
100.127
100.141
100.174
100.212
100.232
100.266
99.9582
100.034
100.045
100.043
100.046
100.05
100.076
100.113
100.176
100.201
100.216
100.214
100.223
100.228
100.229
100.23
100.23
100.247
100.275
100.322
100.035
100.033
99.9858
99.9934
100.019
100.042
100.061
100.097
100.171
100.208
100.238
100.252
100.28
100.29
100.302
100.309
100.315
100.325
100.338
100.386
100.085
99.9779
99.9219
99.98
100.019
100.064
100.072
100.121
100.176
100.203
100.237
100.267
100.308
100.328
100.351
100.37
100.384
100.398
100.419
100.454
100.08
99.9069
99.9108
99.9997
100.064
100.121
100.161
100.23
100.267
100.299
100.315
100.331
100.349
100.367
100.39
100.419
100.447
100.467
100.505
100.495
100.056
99.8598
99.92
100.011
100.072
100.141
100.223
100.298
100.345
100.397
100.415
100.433
100.444
100.453
100.463
100.48
100.509
100.536
100.578
100.571
100.029
99.8159
99.8545
99.9313
100.038
100.128
100.255
100.326
100.391
100.461
100.484
100.504
100.518
100.53
100.549
100.571
100.597
100.619
100.653
100.653
99.9633
99.7395
99.7677
99.8986
100.049
100.221
100.342
100.388
100.471
100.519
100.547
100.568
100.585
100.603
100.631
100.661
100.689
100.712
100.727
100.735
99.8483
99.6646
99.7341
99.9243
100.205
100.465
100.526
100.572
100.615
100.637
100.649
100.66
100.673
100.693
100.722
100.749
100.772
100.785
100.781
100.775
99.6373
99.6795
99.7814
100.178
100.474
100.596
100.638
100.677
100.707
100.725
100.738
100.753
100.772
100.795
100.814
100.825
100.823
100.816
100.791
100.745
99.403
99.6654
100.177
100.48
100.647
100.697
100.729
100.761
100.788
100.804
100.817
100.833
100.85
100.855
100.854
100.844
100.794
100.683
100.522
100.281
99.4368
100.12
100.491
100.67
100.768
100.811
100.838
100.86
100.873
100.881
100.882
100.882
100.881
100.857
100.77
100.621
100.36
100.103
100.006
99.9978
100.116
100.526
100.733
100.838
100.889
100.908
100.921
100.921
100.916
100.907
100.894
100.839
100.724
100.467
100.145
100.01
99.9966
99.9985
99.9992
99.9998
100.695
100.836
100.913
100.95
100.964
100.957
100.953
100.927
100.84
100.759
100.572
100.231
100.03
99.9958
99.9978
99.9989
99.9998
100
100
100
100.997
100.995
100.991
100.99
100.984
100.95
100.871
100.438
99.8524
100
100
100
100
100
100
100
100
100
100
100
100.994
100.992
100.985
100.973
100.959
100.872
100.498
100.013
100
100
100
100
100
100
100
100
100
100
100
100
100.989
100.99
100.986
100.964
100.912
100.627
100.038
99.9993
100
100
100
100
100
100
100
100
100
100
100
100
100.984
100.99
100.986
100.954
100.788
100.233
99.9965
100
100
100
100
100
100
100
100
100
100
100
100
100
100.979
100.989
100.985
100.924
100.57
99.9921
100
100
100
100
100
100
100
100
100
100
100
100
100
100
100.975
100.987
100.981
100.838
100.291
100
100
100
100
100
100
100
100
100
100
100
100
100
100
100
100.974
100.983
100.974
100.706
99.9925
100
100
100
100
100
100
100
100
100
100
100
100
100
100
100
100.983
100.975
100.914
100.469
100
100
100
100
100
100
100
100
100
100
100
100
100
100
100
100
101.003
100.97
100.816
100.122
100
100
100
100
100
100
100
100
100
100
100
100
100
100
100
100
101.015
100.939
100.679
99.9965
100
100
100
100
100
100
100
100
100
100
100
100
100
100
100
100
101.025
100.906
100.501
100
100
100
100
100
100
100
100
100
100
100
100
100
100
100
100
100
101.03
100.853
100.324
100
100
100
100
100
100
100
100
100
100
100
100
100
100
100
100
100
101.034
100.801
100.119
100
100
100
100
100
100
100
100
100
100
100
100
100
100
100
100
100
101.028
100.739
100.011
100
100
100
100
100
100
100
100
100
100
100
100
100
100
100
100
100
101.009
100.666
100
100
100
100
100
100
100
100
100
100
100
100
100
100
100
100
100
100
100.982
100.566
100
100
100
100
100
100
100
100
100
100
100
100
100
100
100
100
100
100
100.948
100.416
100
100
100
100
100
100
100
100
100
100
100
100
100
100
100
100
100
100
100.911
100.238
100
100
100
100
100
100
100
100
100
100
100
100
100
100
100
100
100
100
100.873
100.005
100
100
100
100
100
100
100
100
100
100
100
100
100
100
100
100
100
100
100.809
100
100
100
100
100
100
100
100
100
100
100
100
100
100
100
100
100
100
100
100.809
100
100
100
100
100
100
100
100
100
100
100
100
100
100
100
100
100
100
100
100.873
100.005
100
100
100
100
100
100
100
100
100
100
100
100
100
100
100
100
100
100
100.911
100.238
100
100
100
100
100
100
100
100
100
100
100
100
100
100
100
100
100
100
100.948
100.416
100
100
100
100
100
100
100
100
100
100
100
100
100
100
100
100
100
100
100.982
100.566
100
100
100
100
100
100
100
100
100
100
100
100
100
100
100
100
100
100
101.009
100.666
100
100
100
100
100
100
100
100
100
100
100
100
100
100
100
100
100
100
101.028
100.739
100.011
100
100
100
100
100
100
100
100
100
100
100
100
100
100
100
100
100
101.034
100.801
100.119
100
100
100
100
100
100
100
100
100
100
100
100
100
100
100
100
100
101.03
100.853
100.324
100
100
100
100
100
100
100
100
100
100
100
100
100
100
100
100
100
101.025
100.906
100.5
100
100
100
100
100
100
100
100
100
100
100
100
100
100
100
100
100
101.015
100.939
100.679
99.9965
100
100
100
100
100
100
100
100
100
100
100
100
100
100
100
100
101.003
100.97
100.816
100.122
100
100
100
100
100
100
100
100
100
100
100
100
100
100
100
100
100.983
100.975
100.914
100.468
100
100
100
100
100
100
100
100
100
100
100
100
100
100
100
100
100.974
100.983
100.974
100.706
99.9924
100
100
100
100
100
100
100
100
100
100
100
100
100
100
100
100.975
100.987
100.981
100.838
100.291
100
100
100
100
100
100
100
100
100
100
100
100
100
100
100
100.979
100.989
100.985
100.924
100.57
99.9921
100
100
100
100
100
100
100
100
100
100
100
100
100
100
100.984
100.99
100.986
100.954
100.789
100.233
99.9965
100
100
100
100
100
100
100
100
100
100
100
100
100
100.989
100.99
100.986
100.964
100.912
100.627
100.038
99.9993
100
100
100
100
100
100
100
100
100
100
100
100
100.994
100.992
100.985
100.973
100.959
100.873
100.498
100.013
100
100
100
100
100
100
100
100
100
100
100
100
100.997
100.995
100.991
100.99
100.984
100.949
100.87
100.438
99.8522
100
100
100
100
100
100
100
100
100
100
100
100.695
100.836
100.912
100.949
100.964
100.957
100.953
100.927
100.84
100.758
100.57
100.23
100.029
99.9958
99.9978
99.9989
99.9998
100
100
100
100.113
100.524
100.741
100.842
100.889
100.907
100.921
100.921
100.916
100.907
100.894
100.84
100.724
100.467
100.145
100.01
99.9966
99.9985
99.9992
99.9998
99.4348
100.11
100.47
100.667
100.771
100.812
100.838
100.86
100.873
100.882
100.882
100.882
100.881
100.857
100.77
100.621
100.361
100.103
100.006
99.9978
99.3997
99.7268
100.182
100.464
100.64
100.694
100.727
100.761
100.788
100.804
100.817
100.834
100.85
100.855
100.854
100.844
100.794
100.683
100.522
100.281
99.5507
99.6088
99.8092
100.178
100.474
100.595
100.637
100.675
100.706
100.725
100.738
100.754
100.772
100.794
100.814
100.825
100.823
100.816
100.791
100.745
99.741
99.6002
99.6936
99.9222
100.207
100.458
100.52
100.569
100.613
100.636
100.648
100.659
100.673
100.693
100.721
100.749
100.772
100.785
100.781
100.775
99.9129
99.6597
99.7124
99.9104
100.036
100.212
100.333
100.387
100.47
100.518
100.547
100.567
100.585
100.603
100.631
100.66
100.689
100.712
100.727
100.735
100.028
99.7697
99.8569
99.9683
100.037
100.137
100.264
100.33
100.393
100.462
100.484
100.504
100.518
100.53
100.548
100.571
100.596
100.619
100.653
100.653
100.098
99.8772
99.9517
100.027
100.084
100.155
100.23
100.302
100.347
100.397
100.414
100.432
100.443
100.452
100.462
100.48
100.509
100.536
100.578
100.571
100.162
99.9787
99.9651
100.008
100.078
100.133
100.167
100.233
100.267
100.298
100.315
100.33
100.348
100.366
100.389
100.418
100.447
100.467
100.505
100.495
100.166
100.081
99.9974
99.9898
100.036
100.084
100.071
100.125
100.175
100.204
100.238
100.266
100.305
100.326
100.35
100.37
100.384
100.398
100.419
100.454
100.081
100.117
100.063
100.007
100.024
100.068
100.068
100.098
100.171
100.207
100.235
100.248
100.276
100.287
100.3
100.308
100.314
100.324
100.337
100.385
99.9712
100.087
100.08
100.05
100.038
100.071
100.082
100.112
100.174
100.196
100.209
100.208
100.218
100.225
100.227
100.228
100.228
100.247
100.275
100.323
99.931
100.029
100.056
100.046
100.036
100.07
100.085
100.102
100.135
100.145
100.135
100.13
100.124
100.126
100.125
100.14
100.173
100.212
100.233
100.266
99.9412
100.013
99.9962
99.9757
99.9848
100.019
100.039
100.033
100.032
100.045
100.024
100.033
100.053
100.084
100.113
100.137
100.161
100.179
100.185
100.2
99.9745
100.017
99.9893
99.9235
99.8815
99.8929
99.9141
99.9169
99.9227
99.9589
99.9958
100.026
100.06
100.093
100.111
100.125
100.129
100.127
100.108
100.102
100.018
100.044
100.035
99.9737
99.8756
99.847
99.858
99.8945
99.9167
99.9585
100.015
100.038
100.061
100.084
100.086
100.086
100.069
100.037
100.021
100.054
100.045
100.074
100.098
100.066
99.9588
99.8649
99.8704
99.9099
99.9393
99.9773
100.017
100.028
100.034
100.036
100.023
100.009
99.9999
100.001
100.016
100.041
100.171
100.257
100.37
100.506
100.573
100.551
100.459
100.47
100.557
100.552
100.503
100.512
100.582
100.658
100.653
100.584
100.443
100.429
100.428
100.394
100.569
100.75
100.843
100.963
101.011
101.008
100.99
100.985
101.028
101.062
101.055
101.077
101.125
101.145
101.143
101.121
101.081
101.059
101.048
101.037
101.049
101.029
101.001
100.977
100.956
100.945
100.931
100.909
100.88
100.852
100.826
100.809
100.805
100.806
100.803
100.774
100.659
100.445
100.228
100.046
100.573
100.632
100.687
100.735
100.764
100.791
100.808
100.809
100.803
100.786
100.764
100.745
100.745
100.752
100.766
100.75
100.66
100.475
100.277
100.079
100.034
100.048
100.158
100.306
100.416
100.504
100.571
100.614
100.645
100.642
100.635
100.623
100.623
100.639
100.682
100.691
100.646
100.52
100.366
100.145
100.084
100.098
100.101
100.09
100.103
100.185
100.338
100.431
100.483
100.518
100.523
100.514
100.508
100.523
100.577
100.616
100.602
100.535
100.428
100.211
100.122
100.142
100.14
100.134
100.113
100.115
100.139
100.221
100.34
100.439
100.452
100.449
100.44
100.445
100.489
100.537
100.539
100.512
100.439
100.24
100.179
100.183
100.192
100.177
100.156
100.15
100.155
100.157
100.178
100.272
100.363
100.415
100.412
100.411
100.436
100.472
100.477
100.464
100.415
100.241
100.237
100.236
100.231
100.214
100.198
100.194
100.194
100.189
100.172
100.174
100.203
100.292
100.384
100.403
100.419
100.428
100.423
100.407
100.368
100.224
100.302
100.283
100.275
100.265
100.245
100.229
100.22
100.21
100.191
100.171
100.169
100.174
100.252
100.362
100.408
100.401
100.386
100.361
100.322
100.198
100.365
100.339
100.315
100.306
100.285
100.266
100.253
100.238
100.213
100.189
100.17
100.164
100.168
100.245
100.372
100.376
100.366
100.334
100.288
100.173
100.435
100.396
100.358
100.345
100.32
100.296
100.278
100.256
100.225
100.197
100.187
100.169
100.162
100.16
100.253
100.347
100.343
100.31
100.263
100.15
100.536
100.461
100.379
100.349
100.34
100.332
100.321
100.292
100.253
100.223
100.207
100.191
100.168
100.149
100.144
100.199
100.265
100.258
100.218
100.119
100.616
100.55
100.481
100.418
100.371
100.356
100.346
100.318
100.281
100.255
100.228
100.197
100.166
100.143
100.122
100.099
100.098
100.129
100.123
100.073
100.608
100.586
100.543
100.485
100.428
100.366
100.335
100.314
100.3
100.287
100.264
100.224
100.183
100.154
100.121
100.084
100.06
100.032
99.9817
99.9627
100.488
100.547
100.541
100.515
100.476
100.422
100.369
100.332
100.314
100.294
100.267
100.234
100.199
100.164
100.125
100.084
100.047
100.008
99.9526
99.9146
100.25
100.377
100.446
100.482
100.474
100.45
100.409
100.364
100.326
100.283
100.246
100.229
100.21
100.181
100.139
100.091
100.046
100.002
99.9401
99.9024
100.043
100.145
100.254
100.335
100.388
100.416
100.405
100.381
100.345
100.3
100.258
100.233
100.202
100.167
100.139
100.103
100.056
100.007
99.9397
99.8962
100.002
100.015
100.065
100.154
100.233
100.29
100.331
100.349
100.339
100.315
100.278
100.238
100.196
100.145
100.119
100.087
100.046
100.004
99.9542
99.9209
100
100
100.003
100.025
100.078
100.148
100.21
100.25
100.283
100.288
100.276
100.25
100.217
100.174
100.128
100.084
100.043
100.008
99.9732
99.9562
100
100
100
100.001
100.006
100.031
100.081
100.14
100.188
100.216
100.234
100.231
100.217
100.193
100.157
100.116
100.078
100.038
100.004
99.9901
100
100
100
100
100
100.001
100.008
100.033
100.079
100.127
100.161
100.184
100.184
100.178
100.162
100.14
100.113
100.083
100.057
100.037
100
100
100
100
100
100
100
100.001
100.009
100.031
100.068
100.107
100.132
100.142
100.138
100.128
100.112
100.094
100.078
100.057
100
100
100
100
100
100
100
100
100
100.001
100.007
100.022
100.05
100.077
100.093
100.096
100.093
100.085
100.074
100.054
100
100
100
100
100
100
100
100
100
100
100
100.001
100.004
100.012
100.025
100.038
100.046
100.047
100.044
100.032
100
100
100
100
100
100
100
100
100
100
100
100
100
100
100.001
100.003
100.006
100.008
100.008
100.006
100
100
100
100
100
100
100
100
100
100
100
100
100
100
100
100
100
100
100
100
100.597
100.653
100.609
100.416
100.142
100.017
100.001
100
100
100
100
100
100
100
100
100.672
100.663
100.518
100.217
100.022
100
100
100
100
100
100
100
100
100
100
100.704
100.635
100.373
100.074
100.002
100
100
100
100
100
100
100
100
100
100
100.719
100.518
100.167
100.009
100
100
100
100
100
100
100
100
100
100
100
100.651
100.284
100.024
100
100
100
100
100
100
100
100
100
100
100
100
100.393
100.038
100
100
100
100
100
100
100
100
100
100
100
100
100
100.043
100
100
100
100
100
100
100
100
100
100
100
100
100
100
99.9995
100
100
100
100
100
100
100
100
100
100
100
100
100
100
100
100
100
100
100
100
100
100
100
100
100
100
100
100
100
100
100
100
100
100
100
100
100
100
100
100
100
100
100
100
100
100
100
100
100
100
100
100
100
100
100
100
100
100
100
100
100
100
100
100
100
100
100
100
100
100
100
100
100
100
100
100
100
100
100
100
100
100
100
100
100
100
100
100
100
100
100
100
100
100
100
100
100
100
100
100
100
100
100
100
100
100
100
100
100
100
100
100
100
100
100
100
100
100
100
100
100
100
100
100
100
100
100
100
100
100
100
100
100
100
100
100
100
100
100
100
100
100
100
100
100
100
100
100
100
100
100
100
100
100
100
100
100
100
100
100
100
100
100
100
100
100
100
100
100
100
100
100
100
100
100
100
100
100
100
100
100
100
100
100
100
100
100
100
100
100
100
100
100
100
100
100
100
100
100
100
100
100
100
100
100
100
100
100
100
100
100
100
100
100
100
100
100
100
100
100
100
100
100
100
100
100
100
100
100
100
100
100
100
100
100
100
100
100
100
100
100
100
100
100
100
100
100
100
100
100
100
100
100
100
100
100
100
100
100
100
100
100
100
100
100
100
100
100
100
100
100
100
100
100
100
100
100
100
100
100
100
100
100
100
100
100
100
100
100
100
100
100
100
100
100
100
100
100
100
100
100
100
100
100
100
100
100
100
100
100
100
100
100
100
100
100
100
100
100
100
100
100
100
100
100
100
100
100
100
100
100
100
100
100
100
100
100
100
100
100
100
100
100
100
100
100
100
100
100
100
100
100
100
100
100
100
100
100
100
100
100
100
100
100
100
100
100
100
100
100
100
100
100
100
100
100
100
100
100
100
100
100
100
100
100
100
100
100
100
100
100
100
100
100
100
100
100
100
100
100
100
100
100
100
100
100
100
100
100
100
100
100
100
100
100
100
100
100
100
100
100
100
100
100
100
100
100
100
100
100
100
100
100
100
100
100
100
100
100
100
100
100
100
100
100
100
100
100
100
100
100
100
100
100
100
100
100
100
100
100
100
100
100
100
100
100
100
100
100
100
100
100
100
100
100
100
100
100
100
100
100
100
100
100
100
100
100
100
100
100
100
100
100
100
100
100
100
100
100
100
100
100
100
100
100
100
100
100
100
100
100
100
100
100
100
100
100
100
100
100
100
100
100
100
100
100
100
100
100
100
100
100
100
100
100
100
100
100
100
100
100
100
100
100
100
100
100
100
100
100
100
100
100
100
100
100
100
100
100
100
100
100
100
100
100
100
100
100
100
100
100
100
100
100
100
100
100
100
100
100
100
100
100
100
100
100
100
100
100
100
100
100
100
100
100
100
100
100
100
100
100
100
100
100
100
100
100
100
100
100
100
100
100
100
100
100
100
100
100
100
100
100
100
100
100
100
100
100
100
100
100
100
100
100
100
100
100
100
100
100
100
100
100
100
100
100
100
100
100
100
100
100
100
100
100
100
100
100
100
100
100
100
100
100
100
100
100
100
100
100
100
100
100
100
100
100
100
100
100
100
100
100
100
100
100
100
100
100
100
100
100
100
100
100
100
100
100
100
100
100
100
100
100
100
100
100
100
100
100
100
100
100
100
100
100
100
100
100
100
100
100
100
100
100
100
100
100
100
100
100
100
100
100
100
100
100
100
100
100
100
100
100
100
100
100
100
100
100
100
100
100
100
100
100
100
100
100
100
100
100
100
100
100
100
100
100
100
100
100
100
100
100
100
100
100
100
100
100
100
100
100
100
100
100
100
100
100
100
100
100
100
100
100
100
100
100
100
100
100
100
100
100
100
100
100
100
100
100
100
100
100
100
100
100
100
100
100
100
100
100
100
100
100
100
100
100
100
100
100
100
100
100
100
100
100
100
100
100
100
100
100
100
100
100
100
100
100
100
100
100
100
100
100
100
100
100
100
100
100
100
100
100
100
100
100
100
100
100
100
100
100
100
100
100
99.9995
100
100
100
100
100
100
100
100
100
100
100
100
100
100
100.043
100
100
100
100
100
100
100
100
100
100
100
100
100
100
100.393
100.038
100
100
100
100
100
100
100
100
100
100
100
100
100
100.651
100.284
100.024
100
100
100
100
100
100
100
100
100
100
100
100
100.719
100.518
100.167
100.009
100
100
100
100
100
100
100
100
100
100
100
100.704
100.635
100.373
100.074
100.002
100
100
100
100
100
100
100
100
100
100
100.672
100.663
100.518
100.217
100.022
100
100
100
100
100
100
100
100
100
100
100.597
100.653
100.609
100.416
100.142
100.017
100.001
100
100
100
100
100
100
100
100
100.536
100.616
100.608
100.488
100.25
100.043
100.002
100
100
100
100
100
100
100
100
100.461
100.55
100.586
100.547
100.377
100.145
100.015
100
100
100
100
100
100
100
100
100.379
100.481
100.543
100.541
100.446
100.254
100.065
100.003
100
100
100
100
100
100
100
100.349
100.418
100.485
100.515
100.482
100.335
100.154
100.025
100.001
100
100
100
100
100
100
100.339
100.371
100.428
100.476
100.474
100.388
100.233
100.078
100.006
100
100
100
100
100
100
100.332
100.356
100.366
100.422
100.45
100.416
100.29
100.148
100.031
100.001
100
100
100
100
100
100.321
100.345
100.335
100.369
100.409
100.405
100.331
100.21
100.081
100.008
100
100
100
100
100
100.293
100.318
100.314
100.332
100.364
100.381
100.349
100.25
100.14
100.033
100.001
100
100
100
100
100.253
100.281
100.299
100.314
100.326
100.346
100.339
100.283
100.188
100.079
100.009
100
100
100
100
100.223
100.256
100.287
100.294
100.283
100.3
100.315
100.288
100.216
100.127
100.031
100.001
100
100
100
100.207
100.229
100.264
100.267
100.246
100.258
100.278
100.276
100.234
100.161
100.068
100.007
100
100
100
100.191
100.197
100.225
100.234
100.228
100.233
100.239
100.25
100.231
100.184
100.107
100.022
100.001
100
100
100.168
100.166
100.184
100.199
100.21
100.202
100.196
100.217
100.217
100.184
100.132
100.05
100.004
100
100
100.148
100.143
100.154
100.164
100.181
100.167
100.145
100.174
100.193
100.178
100.142
100.077
100.012
100
100
100.144
100.121
100.12
100.125
100.14
100.139
100.119
100.128
100.157
100.162
100.138
100.093
100.025
100.001
100
100.199
100.098
100.084
100.084
100.092
100.103
100.087
100.084
100.116
100.14
100.128
100.096
100.038
100.003
100
100.266
100.099
100.06
100.047
100.046
100.056
100.046
100.042
100.077
100.113
100.112
100.093
100.046
100.006
100
100.26
100.129
100.032
100.007
100.002
100.007
100.004
100.007
100.038
100.083
100.094
100.085
100.047
100.008
100
100.22
100.123
99.9816
99.9517
99.9384
99.9399
99.9547
99.9728
100.004
100.057
100.078
100.074
100.044
100.008
100
100.12
100.075
99.9635
99.9145
99.9016
99.8962
99.9215
99.956
99.99
100.037
100.057
100.054
100.032
100.006
100
100.435
100.396
100.358
100.344
100.32
100.296
100.278
100.257
100.225
100.197
100.187
100.168
100.161
100.159
100.253
100.348
100.344
100.311
100.263
100.149
100.365
100.339
100.314
100.306
100.285
100.266
100.253
100.238
100.213
100.189
100.17
100.164
100.167
100.241
100.372
100.378
100.367
100.334
100.288
100.172
100.302
100.283
100.274
100.265
100.246
100.228
100.22
100.21
100.191
100.171
100.169
100.174
100.252
100.362
100.408
100.402
100.388
100.361
100.321
100.198
100.237
100.236
100.231
100.213
100.198
100.194
100.195
100.189
100.172
100.174
100.202
100.291
100.385
100.404
100.42
100.427
100.423
100.406
100.367
100.225
100.18
100.184
100.192
100.177
100.156
100.15
100.155
100.157
100.177
100.269
100.362
100.416
100.413
100.411
100.436
100.471
100.475
100.463
100.414
100.241
100.123
100.142
100.14
100.134
100.114
100.115
100.138
100.222
100.338
100.435
100.452
100.449
100.44
100.445
100.488
100.537
100.537
100.511
100.438
100.241
100.085
100.097
100.101
100.09
100.103
100.184
100.336
100.433
100.483
100.515
100.523
100.514
100.508
100.523
100.577
100.615
100.601
100.535
100.428
100.213
100.034
100.05
100.162
100.308
100.414
100.504
100.571
100.615
100.645
100.641
100.636
100.627
100.627
100.643
100.683
100.691
100.646
100.52
100.368
100.148
100.56
100.633
100.693
100.738
100.765
100.791
100.809
100.81
100.805
100.787
100.767
100.752
100.751
100.757
100.767
100.751
100.66
100.476
100.281
100.082
101.044
101.03
101.005
100.979
100.956
100.945
100.934
100.914
100.888
100.859
100.831
100.813
100.81
100.81
100.806
100.774
100.658
100.445
100.231
100.051
)
;

boundaryField
{
    inlet
    {
        type            fixedValue;
        value           uniform 100;
    }
    outlet
    {
        type            inletOutlet;
        inletValue      uniform 100;
        value           nonuniform List<scalar> 
50
(
100.119
100.073
99.9623
99.9145
99.9024
99.8961
99.9209
99.9563
99.9902
100.037
100.057
100.054
100.032
100.006
100
100.045
100.078
100.144
100.21
100.239
100.24
100.223
100.197
100.172
100.149
100.148
100.171
100.197
100.224
100.241
100.24
100.212
100.147
100.082
100.05
100.119
100.074
99.963
99.9145
99.9016
99.8962
99.9214
99.9561
99.9902
100.037
100.057
100.054
100.032
100.006
100
)
;
    }
    airfoil
    {
        type            zeroGradient;
    }
    top
    {
        type            symmetryPlane;
    }
    bottom
    {
        type            symmetryPlane;
    }
    defaultFaces
    {
        type            empty;
    }
}


// ************************************************************************* //
