/*--------------------------------*- C++ -*----------------------------------*\
  =========                 |
  \\      /  F ield         | OpenFOAM: The Open Source CFD Toolbox
   \\    /   O peration     | Website:  https://openfoam.org
    \\  /    A nd           | Version:  7
     \\/     M anipulation  |
\*---------------------------------------------------------------------------*/
FoamFile
{
    version     2.0;
    format      ascii;
    class       volScalarField;
    location    "6.5";
    object      p;
}
// * * * * * * * * * * * * * * * * * * * * * * * * * * * * * * * * * * * * * //

dimensions      [1 -1 -2 0 0 0 0];

internalField   nonuniform List<scalar> 
3700
(
0.148121
0.234705
0.282366
0.338281
0.384203
0.393791
0.397612
0.403255
0.429032
0.44398
0.446355
0.437981
0.434375
0.456749
0.491643
0.500255
0.517505
0.52292
0.518728
0.528332
0.0915337
0.106047
0.120493
0.132513
0.133376
0.12816
0.122296
0.126261
0.13922
0.148469
0.161876
0.168273
0.164281
0.164564
0.171899
0.187974
0.203689
0.199349
0.194896
0.200348
0.0729464
0.0804563
0.0815659
0.0735345
0.0590941
0.0473747
0.0465545
0.0487188
0.0575266
0.0668118
0.0800088
0.0892512
0.0966978
0.101206
0.102611
0.104049
0.105551
0.107761
0.114062
0.130736
0.0632784
0.0729597
0.0762353
0.0669157
0.0481671
0.0462659
0.0458044
0.0488388
0.0558052
0.0661081
0.082771
0.0969233
0.115041
0.1323
0.14206
0.153164
0.151539
0.148831
0.148532
0.164444
0.0575522
0.0664453
0.0628416
0.0515326
0.0479177
0.0553108
0.0595591
0.0632207
0.0651676
0.0756643
0.0835679
0.0960831
0.118043
0.142965
0.162834
0.184033
0.195968
0.203238
0.201872
0.209494
0.0525225
0.0608176
0.0551958
0.0476854
0.0560026
0.0700766
0.0821448
0.0882059
0.0976367
0.118082
0.111462
0.115031
0.12327
0.146299
0.174296
0.202986
0.232067
0.260126
0.282299
0.307695
0.0471446
0.0556266
0.0533446
0.0497268
0.0562512
0.0742014
0.088087
0.104794
0.130895
0.158416
0.163831
0.17349
0.176026
0.187304
0.198694
0.22277
0.260765
0.309741
0.351308
0.420711
0.0432548
0.0534065
0.0552419
0.052925
0.053918
0.0720678
0.0845635
0.107217
0.149666
0.182922
0.213162
0.235866
0.259164
0.283728
0.299753
0.31986
0.339449
0.381488
0.436413
0.549434
0.04282
0.0532176
0.0542176
0.0525577
0.0564648
0.0732764
0.0816833
0.102403
0.151742
0.196413
0.24425
0.282116
0.334199
0.376504
0.41769
0.456997
0.492191
0.530878
0.581813
0.728375
0.0493475
0.050621
0.050262
0.0575686
0.074922
0.0969478
0.100246
0.121866
0.159438
0.205107
0.266124
0.322696
0.399356
0.46278
0.533392
0.606222
0.67614
0.73787
0.81637
0.953351
0.0588874
0.0436278
0.0470799
0.0725121
0.103735
0.130048
0.155847
0.208896
0.25938
0.309924
0.369437
0.434469
0.510116
0.584586
0.669163
0.777795
0.896678
1.00235
1.1667
1.12695
0.0595403
0.0382547
0.0492491
0.0833272
0.117409
0.144252
0.201622
0.293507
0.380785
0.48628
0.575296
0.66598
0.754057
0.838112
0.920548
1.03496
1.1902
1.33812
1.56258
1.51889
0.0584839
0.0376451
0.0501483
0.0742637
0.107385
0.135825
0.224613
0.336682
0.469227
0.645178
0.782986
0.922952
1.0561
1.18292
1.32132
1.48245
1.65363
1.82625
2.09293
2.08927
0.0489724
0.0335249
0.0426698
0.0551484
0.0894096
0.133708
0.254161
0.406822
0.628387
0.868615
1.08168
1.27558
1.46492
1.64634
1.87471
2.11189
2.34415
2.58038
2.80312
3.00254
0.0314914
0.0219771
0.0332784
0.0536698
0.0999877
0.282621
0.561461
0.84968
1.19046
1.48537
1.72493
1.93654
2.15413
2.38635
2.69245
2.98125
3.25651
3.49881
3.65039
3.78084
0.0160982
0.0213977
0.027884
0.101328
0.331953
0.757854
1.14705
1.56948
2.02027
2.39018
2.64443
2.89089
3.15366
3.44866
3.78091
3.99423
4.10397
4.13181
4.03632
3.9062
0.0092829
0.0243468
0.102181
0.406721
0.946854
1.49824
2.00755
2.56693
3.16297
3.54352
3.75998
3.98485
4.18885
4.36391
4.47772
4.40589
4.19023
3.65727
2.7974
1.8902
0.0254731
0.150415
0.560291
1.22861
2.11385
2.87332
3.53846
4.22173
4.77513
4.84397
4.74256
4.73367
4.69157
4.52893
4.02394
3.06836
2.09413
1.33451
1.01897
0.992919
0.308644
0.874921
1.96721
3.1873
4.21717
4.85718
5.41949
5.8903
5.75384
5.30472
4.86705
4.3223
3.40068
2.3286
1.42608
1.02926
0.989368
0.994912
0.997311
0.999437
2.30993
3.63374
4.86657
5.71012
6.27377
6.44589
6.57787
6.23041
4.53375
3.20472
2.37083
1.56799
1.08406
0.987521
0.993126
0.996412
0.999186
0.999974
1.00002
1.00001
6.93867
6.89266
6.83409
6.92893
7.07055
6.79354
5.98172
2.2327
0.667095
1
1
1
1
1
1
1
1
1
1
1
6.91837
6.86739
6.75168
6.70886
6.82973
5.77556
2.66773
1.02258
1
1
1
1
1
1
1
1
1
1
1
1
6.81595
6.85501
6.8204
6.65391
6.2351
3.46143
1.06281
0.998648
1
1
1
1
1
1
1
1
1
1
1
1
6.65896
6.81614
6.83083
6.67155
4.71877
1.4206
0.99305
1.00013
0.999999
1
1
1
1
1
1
1
1
1
1
1
6.5169
6.75021
6.78272
6.14144
2.6275
0.97655
1.00035
0.999994
1
1
1
1
1
1
1
1
1
1
1
1
6.44793
6.72694
6.70288
4.91718
1.48109
1
1
1
1
1
1
1
1
1
1
1
1
1
1
1
6.41723
6.78556
6.71816
3.59009
0.981339
1
1
1
1
1
1
1
1
1
1
1
1
1
1
1
6.52924
6.70552
6.07928
2.00933
0.999986
1
1
1
1
1
1
1
1
1
1
1
1
1
1
1
6.95483
6.59825
4.85439
1.22531
1
1
1
1
1
1
1
1
1
1
1
1
1
1
1
1
7.28122
6.40765
3.44205
0.987613
1
1
1
1
1
1
1
1
1
1
1
1
1
1
1
1
7.45894
5.9921
2.28168
1
1
1
1
1
1
1
1
1
1
1
1
1
1
1
1
1
7.51791
5.35801
1.59799
1
1
1
1
1
1
1
1
1
1
1
1
1
1
1
1
1
7.54907
4.74474
1.16037
1
1
1
1
1
1
1
1
1
1
1
1
1
1
1
1
1
7.34135
4.02512
1.01132
1
1
1
1
1
1
1
1
1
1
1
1
1
1
1
1
1
7.16016
3.27888
1
1
1
1
1
1
1
1
1
1
1
1
1
1
1
1
1
1
7.05448
2.48387
1
1
1
1
1
1
1
1
1
1
1
1
1
1
1
1
1
1
6.62117
1.84528
1
1
1
1
1
1
1
1
1
1
1
1
1
1
1
1
1
1
6.31059
1.36108
1
1
1
1
1
1
1
1
1
1
1
1
1
1
1
1
1
1
5.75567
1.00574
1
1
1
1
1
1
1
1
1
1
1
1
1
1
1
1
1
1
4.63857
1.00009
1
1
1
1
1
1
1
1
1
1
1
1
1
1
1
1
1
1
4.63449
1.00009
1
1
1
1
1
1
1
1
1
1
1
1
1
1
1
1
1
1
5.75005
1.00601
1
1
1
1
1
1
1
1
1
1
1
1
1
1
1
1
1
1
6.324
1.36842
1
1
1
1
1
1
1
1
1
1
1
1
1
1
1
1
1
1
6.61002
1.85365
1
1
1
1
1
1
1
1
1
1
1
1
1
1
1
1
1
1
7.03854
2.47517
1
1
1
1
1
1
1
1
1
1
1
1
1
1
1
1
1
1
7.17509
3.26109
1
1
1
1
1
1
1
1
1
1
1
1
1
1
1
1
1
1
7.34085
4.03248
1.01583
1
1
1
1
1
1
1
1
1
1
1
1
1
1
1
1
1
7.544
4.75349
1.16543
1
1
1
1
1
1
1
1
1
1
1
1
1
1
1
1
1
7.51457
5.36449
1.60007
1
1
1
1
1
1
1
1
1
1
1
1
1
1
1
1
1
7.45523
5.97941
2.28725
1
1
1
1
1
1
1
1
1
1
1
1
1
1
1
1
1
7.28708
6.41754
3.43033
0.987688
1
1
1
1
1
1
1
1
1
1
1
1
1
1
1
1
6.95688
6.59872
4.85763
1.22631
1
1
1
1
1
1
1
1
1
1
1
1
1
1
1
1
6.51681
6.67595
6.04929
2.01178
0.999993
1
1
1
1
1
1
1
1
1
1
1
1
1
1
1
6.42697
6.80034
6.73897
3.57719
0.976156
1
1
1
1
1
1
1
1
1
1
1
1
1
1
1
6.46055
6.75056
6.72787
4.92418
1.49319
1
1
1
1
1
1
1
1
1
1
1
1
1
1
1
6.52579
6.74998
6.7794
6.10977
2.63836
0.976548
1.00035
0.999994
1
1
1
1
1
1
1
1
1
1
1
1
6.65461
6.79893
6.82154
6.67664
4.71319
1.40774
0.993322
1.00013
0.999999
1
1
1
1
1
1
1
1
1
1
1
6.81214
6.85358
6.82573
6.67366
6.23983
3.44495
1.05683
0.998722
1
1
1
1
1
1
1
1
1
1
1
1
6.93383
6.87015
6.76387
6.7204
6.79623
5.77081
2.68611
1.02617
1
1
1
1
1
1
1
1
1
1
1
1
6.93733
6.89085
6.83749
6.92757
7.06409
6.78759
5.9826
2.251
0.665282
1
1
1
1
1
1
1
1
1
1
1
2.3068
3.63413
4.86615
5.70156
6.26896
6.45036
6.57822
6.22938
4.52719
3.19793
2.36573
1.56477
1.08316
0.987463
0.993044
0.996413
0.999194
0.999974
1.00002
1.00001
0.309441
0.868094
1.9715
3.20248
4.22253
4.84359
5.41514
5.89116
5.75468
5.3064
4.87171
4.32745
3.40431
2.33124
1.42825
1.02996
0.989399
0.994922
0.997315
0.999437
0.0257447
0.148914
0.540408
1.19971
2.10246
2.88675
3.54074
4.20855
4.77466
4.85281
4.75753
4.73342
4.68996
4.52652
4.02179
3.0673
2.09428
1.33482
1.01904
0.992933
0.00949702
0.0253692
0.109871
0.419206
0.957344
1.48425
1.99827
2.56754
3.16872
3.54725
3.76332
3.98711
4.19105
4.36226
4.47451
4.403
4.18815
3.65592
2.79676
1.88977
0.0145348
0.0214603
0.0319511
0.116285
0.350068
0.766701
1.15345
1.56246
2.01081
2.38151
2.64112
2.89283
3.15654
3.44951
3.77778
3.98864
4.10124
4.13164
4.0367
3.90712
0.0253058
0.0214752
0.0321814
0.0492546
0.10166
0.301796
0.565454
0.846336
1.18065
1.47647
1.7194
1.93475
2.15495
2.38731
2.69074
2.97701
3.25229
3.49758
3.65182
3.78261
0.0389825
0.0277995
0.0347137
0.0519698
0.0911304
0.144545
0.261225
0.416883
0.632985
0.871183
1.0843
1.2792
1.46979
1.65038
1.87604
2.11057
2.34192
2.57909
2.80458
3.00582
0.0518523
0.0331682
0.046761
0.0734907
0.110452
0.145541
0.235668
0.339551
0.473272
0.646707
0.786967
0.927417
1.06077
1.18641
1.32308
1.48205
1.65199
1.82532
2.09304
2.09065
0.0554051
0.0345427
0.0485337
0.0801287
0.116117
0.148957
0.207332
0.288422
0.379091
0.485922
0.576212
0.667576
0.755151
0.838608
0.92003
1.03372
1.18882
1.33746
1.56382
1.52003
0.0565646
0.0376776
0.0437488
0.0681103
0.100671
0.127109
0.154559
0.203018
0.255619
0.308302
0.365456
0.431106
0.508275
0.584543
0.670113
0.779088
0.897703
1.00255
1.16665
1.12686
0.0556076
0.0466867
0.0444782
0.0519471
0.0713851
0.0966807
0.101316
0.122195
0.155771
0.197981
0.261311
0.321057
0.400073
0.464265
0.534756
0.607486
0.676603
0.7376
0.814361
0.951108
0.0491349
0.0534587
0.0524728
0.0515399
0.0567302
0.0789541
0.0834685
0.101163
0.143957
0.192333
0.243261
0.28189
0.334573
0.376997
0.417568
0.455819
0.489878
0.528276
0.578845
0.726767
0.0472858
0.057414
0.056549
0.0541742
0.0591228
0.0762771
0.0841847
0.105268
0.145972
0.181596
0.213716
0.236178
0.258242
0.28135
0.295632
0.314921
0.335031
0.37912
0.4361
0.550331
0.0480688
0.0571259
0.0567753
0.0549073
0.0588642
0.073831
0.0852672
0.102975
0.131571
0.15886
0.163339
0.173304
0.1728
0.181882
0.19424
0.220979
0.260528
0.310406
0.352859
0.422413
0.0550654
0.0585399
0.0564299
0.0515145
0.0556934
0.0656742
0.0772167
0.0868873
0.0988384
0.117701
0.111185
0.114707
0.122039
0.145051
0.174643
0.204036
0.233169
0.260936
0.283706
0.309596
0.0652575
0.065871
0.0626718
0.0529302
0.047825
0.0528512
0.0601328
0.0613483
0.0672979
0.0773655
0.0853597
0.0970062
0.118412
0.144377
0.164387
0.184476
0.196417
0.203659
0.20274
0.209732
0.0674927
0.0730974
0.0768225
0.0692068
0.0514198
0.0463849
0.049015
0.0530279
0.0599363
0.070203
0.0850654
0.0983668
0.116942
0.134443
0.143101
0.15191
0.150859
0.148825
0.148407
0.163936
0.0697596
0.0766818
0.081037
0.0758232
0.0638243
0.0497647
0.0498259
0.053963
0.061189
0.0699442
0.0831523
0.092072
0.0983383
0.101379
0.101669
0.102127
0.103421
0.106227
0.113908
0.13056
0.0837065
0.101151
0.122756
0.127481
0.127657
0.11816
0.100618
0.093651
0.0930657
0.10532
0.135536
0.170677
0.201866
0.227303
0.222246
0.195683
0.179022
0.184912
0.205643
0.207442
0.143818
0.235026
0.290358
0.338254
0.382772
0.383382
0.378382
0.383033
0.390596
0.415188
0.444155
0.452108
0.460871
0.480673
0.497265
0.48824
0.494741
0.517974
0.532764
0.529134
0.561181
0.653013
0.710622
0.771105
0.812806
0.868374
0.8868
0.883866
0.868608
0.868055
0.887629
0.936879
0.971824
0.966859
0.939305
0.929503
0.938249
0.96866
0.981902
0.969338
0.281383
0.414234
0.55455
0.663697
0.743395
0.834228
0.869891
0.895379
0.885573
0.88763
0.902168
0.933918
0.961284
0.964596
0.948671
0.937372
0.943664
0.966404
0.97578
0.969761
0.139659
0.156828
0.239116
0.354606
0.518837
0.683121
0.78532
0.861385
0.890372
0.904489
0.9183
0.926387
0.938055
0.951363
0.953243
0.953558
0.957402
0.962208
0.960586
0.961333
0.191809
0.214919
0.231296
0.23707
0.252656
0.32184
0.512702
0.725159
0.82914
0.904097
0.938144
0.917936
0.914856
0.930066
0.952867
0.960905
0.964244
0.961665
0.953682
0.957559
0.233259
0.262
0.288293
0.293807
0.284104
0.277966
0.293372
0.384017
0.615656
0.832149
0.901138
0.892842
0.889924
0.911986
0.950495
0.970988
0.971111
0.957278
0.946083
0.954937
0.30151
0.326786
0.347313
0.338615
0.315622
0.310478
0.313933
0.323
0.37
0.531999
0.753334
0.867926
0.864448
0.896689
0.939904
0.966422
0.966349
0.95172
0.945013
0.95648
0.393876
0.400084
0.413083
0.405131
0.377982
0.36103
0.361442
0.36675
0.370362
0.380212
0.467642
0.693661
0.840566
0.893365
0.920267
0.958799
0.956827
0.939806
0.943572
0.959788
0.509718
0.493836
0.486273
0.473406
0.438767
0.401685
0.389807
0.395167
0.394281
0.387666
0.393026
0.44993
0.656322
0.831919
0.903149
0.950952
0.938569
0.932051
0.950038
0.962003
0.668318
0.60213
0.552771
0.539298
0.510337
0.461471
0.430659
0.424967
0.424807
0.41931
0.414018
0.416828
0.454259
0.625094
0.846892
0.939809
0.910268
0.924845
0.960157
0.962439
0.874586
0.735913
0.637543
0.620019
0.597556
0.54266
0.492354
0.470896
0.460284
0.449645
0.441663
0.436765
0.436907
0.462087
0.609752
0.827306
0.872146
0.934518
0.971299
0.959856
1.27963
0.982405
0.738002
0.649149
0.665589
0.661446
0.617393
0.571876
0.53728
0.497142
0.483093
0.48129
0.474762
0.474006
0.482309
0.563238
0.748396
0.892505
0.939277
0.950432
2.02001
1.53834
1.18287
0.856625
0.806266
0.805845
0.749634
0.671875
0.610241
0.559078
0.536733
0.538566
0.530977
0.510204
0.486187
0.490804
0.53173
0.647946
0.793771
0.912284
2.5033
2.15682
1.74626
1.34602
1.04782
0.939451
0.839617
0.75905
0.718841
0.666788
0.651529
0.638884
0.611432
0.575126
0.550248
0.527095
0.530852
0.539065
0.578466
0.749766
2.3663
2.34748
2.2326
1.95139
1.55872
1.2604
1.07602
0.944592
0.896415
0.828418
0.764123
0.714795
0.661932
0.61338
0.593665
0.582002
0.565159
0.551478
0.545266
0.581499
1.68058
2.14621
2.22616
2.19924
2.06172
1.76502
1.49332
1.23618
1.07288
0.957349
0.850177
0.797254
0.753518
0.70001
0.690844
0.677544
0.651783
0.617865
0.569988
0.572653
1.10947
1.43972
1.84869
2.1142
2.11292
2.06917
1.93174
1.69292
1.42866
1.23958
1.06845
0.973295
0.925427
0.858111
0.800428
0.74661
0.69219
0.653437
0.631728
0.611289
1.00457
1.04459
1.20521
1.54672
1.86549
2.01685
2.01198
1.97149
1.83049
1.62864
1.41008
1.20462
1.07525
0.974945
0.886225
0.82874
0.773785
0.733527
0.728449
0.699491
1.00009
1.0011
1.01049
1.0783
1.26955
1.57125
1.82077
1.93721
1.93086
1.88841
1.77413
1.58271
1.37995
1.21675
1.07776
1.00448
0.948931
0.887038
0.83041
0.758169
1
1.00001
1.00015
1.00252
1.01871
1.10144
1.29043
1.55826
1.76672
1.85732
1.85292
1.81682
1.71525
1.55627
1.37831
1.2185
1.10296
1.00416
0.923262
0.829739
1
1
1
1.00003
1.00032
1.00395
1.02473
1.10779
1.2862
1.52118
1.70528
1.78806
1.78361
1.75563
1.67864
1.5385
1.38022
1.23045
1.12546
0.999517
1
1
1
1
1
1.00005
1.0005
1.00463
1.02653
1.10592
1.2651
1.47464
1.63757
1.72615
1.72362
1.70366
1.64421
1.5294
1.39748
1.19614
1
1
1
1
1
1
1
1.00006
1.00058
1.00489
1.02504
1.09538
1.23296
1.42662
1.5695
1.66707
1.66632
1.65425
1.61748
1.46517
1
1
1
1
1
1
1
1
1.00001
1.00007
1.00056
1.00439
1.0218
1.07992
1.19881
1.37229
1.5119
1.59875
1.6141
1.59173
1
1
1
1
1
1
1
1
1
1
1.00001
1.00006
1.0005
1.00333
1.01849
1.06255
1.16436
1.31507
1.44463
1.54893
1
1
1
1
1
1
1
1
1
1
1
1
1
1.00004
1.00042
1.00249
1.01412
1.05169
1.13662
1.38769
1.61359
2.46704
2.58386
2.08464
1.3094
1.03677
1.00187
1.00005
1
1
1
1
1
1
1
2.34717
2.81554
2.52672
1.53978
1.04808
1.00081
1
1
1
1
1
1
1
1
1
2.92892
2.86899
1.98094
1.15305
1.00526
1.00005
1
1
1
1
1
1
1
1
1
3.25235
2.55945
1.36612
1.01934
1.00019
1
1
1
1
1
1
1
1
1
1
3.32143
1.6848
1.04718
1.0005
1
1
1
1
1
1
1
1
1
1
1
2.0655
1.07347
1.00051
0.999999
1
1
1
1
1
1
1
1
1
1
1
1.10142
1.00054
0.999997
1
1
1
1
1
1
1
1
1
1
1
1
0.998146
0.999864
0.999996
1
1
1
1
1
1
1
1
1
1
1
1
0.999966
1
1
1
1
1
1
1
1
1
1
1
1
1
1
1
1
1
1
1
1
1
1
1
1
1
1
1
1
1
1
1
1
1
1
1
1
1
1
1
1
1
1
1
1
1
1
1
1
1
1
1
1
1
1
1
1
1
1
1
1
1
1
1
1
1
1
1
1
1
1
1
1
1
1
1
1
1
1
1
1
1
1
1
1
1
1
1
1
1
1
1
1
1
1
1
1
1
1
1
1
1
1
1
1
1
1
1
1
1
1
1
1
1
1
1
1
1
1
1
1
1
1
1
1
1
1
1
1
1
1
1
1
1
1
1
1
1
1
1
1
1
1
1
1
1
1
1
1
1
1
1
1
1
1
1
1
1
1
1
1
1
1
1
1
1
1
1
1
1
1
1
1
1
1
1
1
1
1
1
1
1
1
1
1
1
1
1
1
1
1
1
1
1
1
1
1
1
1
1
1
1
1
1
1
1
1
1
1
1
1
1
1
1
1
1
1
1
1
1
1
1
1
1
1
1
1
1
1
1
1
1
1
1
1
1
1
1
1
1
1
1
1
1
1
1
1
1
1
1
1
1
1
1
1
1
1
1
1
1
1
1
1
1
1
1
1
1
1
1
1
1
1
1
1
1
1
1
1
1
1
1
1
1
1
1
1
1
1
1
1
1
1
1
1
1
1
1
1
1
1
1
1
1
1
1
1
1
1
1
1
1
1
1
1
1
1
1
1
1
1
1
1
1
1
1
1
1
1
1
1
1
1
1
1
1
1
1
1
1
1
1
1
1
1
1
1
1
1
1
1
1
1
1
1
1
1
1
1
1
1
1
1
1
1
1
1
1
1
1
1
1
1
1
1
1
1
1
1
1
1
1
1
1
1
1
1
1
1
1
1
1
1
1
1
1
1
1
1
1
1
1
1
1
1
1
1
1
1
1
1
1
1
1
1
1
1
1
1
1
1
1
1
1
1
1
1
1
1
1
1
1
1
1
1
1
1
1
1
1
1
1
1
1
1
1
1
1
1
1
1
1
1
1
1
1
1
1
1
1
1
1
1
1
1
1
1
1
1
1
1
1
1
1
1
1
1
1
1
1
1
1
1
1
1
1
1
1
1
1
1
1
1
1
1
1
1
1
1
1
1
1
1
1
1
1
1
1
1
1
1
1
1
1
1
1
1
1
1
1
1
1
1
1
1
1
1
1
1
1
1
1
1
1
1
1
1
1
1
1
1
1
1
1
1
1
1
1
1
1
1
1
1
1
1
1
1
1
1
1
1
1
1
1
1
1
1
1
1
1
1
1
1
1
1
1
1
1
1
1
1
1
1
1
1
1
1
1
1
1
1
1
1
1
1
1
1
1
1
1
1
1
1
1
1
1
1
1
1
1
1
1
1
1
1
1
1
1
1
1
1
1
1
1
1
1
1
1
1
1
1
1
1
1
1
1
1
1
1
1
1
1
1
1
1
1
1
1
1
1
1
1
1
1
1
1
1
1
1
1
1
1
1
1
1
1
1
1
1
1
1
1
1
1
1
1
1
1
1
1
1
1
1
1
1
1
1
1
1
1
1
1
1
1
1
1
1
1
1
1
1
1
1
1
1
1
1
1
1
1
1
1
1
1
1
1
1
1
1
1
1
1
1
1
1
1
1
1
1
1
1
1
1
1
1
1
1
1
1
1
1
1
1
1
1
1
1
1
1
1
1
1
1
1
1
1
1
1
1
1
1
1
1
1
1
1
1
1
1
1
1
1
1
1
1
1
1
1
1
1
1
1
1
1
1
1
1
1
1
1
1
1
1
1
1
1
1
1
1
1
1
1
1
1
1
1
1
1
1
1
1
1
1
1
1
1
1
1
1
1
1
1
1
1
1
1
1
1
1
1
1
1
1
1
1
1
1
1
1
1
1
1
1
1
1
0.999966
1
1
1
1
1
1
1
1
1
1
1
1
1
1
0.998152
0.999864
0.999996
1
1
1
1
1
1
1
1
1
1
1
1
1.10127
1.00053
0.999997
0.999999
1
1
1
1
1
1
1
1
1
1
1
2.06489
1.07327
1.00051
0.999999
1
1
1
1
1
1
1
1
1
1
1
3.32198
1.68428
1.04705
1.00049
1
1
1
1
1
1
1
1
1
1
1
3.25309
2.5592
1.36597
1.01935
1.00019
1
1
1
1
1
1
1
1
1
1
2.92993
2.86874
1.98027
1.15296
1.00526
1.00005
1
1
1
1
1
1
1
1
1
2.34749
2.81535
2.52663
1.53978
1.04811
1.00081
1
1
1
1
1
1
1
1
1
1.61306
2.46681
2.58388
2.08489
1.30952
1.03678
1.00186
1.00005
1
1
1
1
1
1
1
1.27904
2.01866
2.50279
2.36634
1.68114
1.10944
1.00456
1.00009
1
1
1
1
1
1
1
0.977641
1.54562
2.15754
2.34677
2.1434
1.43939
1.0447
1.00111
1.00001
1
1
1
1
1
1
0.729851
1.17252
1.74696
2.23696
2.2276
1.84843
1.20513
1.0105
1.00015
1
1
1
1
1
1
0.654423
0.853481
1.33996
1.9503
2.20106
2.11405
1.54643
1.07833
1.00252
1.00003
1
1
1
1
1
0.668982
0.814211
1.06102
1.55495
2.05758
2.11247
1.86543
1.26991
1.01882
1.00032
1
1
1
1
1
0.656399
0.799672
0.942316
1.2804
1.7683
2.06846
2.01696
1.57191
1.10167
1.00396
1.00005
1
1
1
1
0.61753
0.748261
0.823773
1.06736
1.49865
1.93274
2.01176
1.82155
1.29091
1.02478
1.0005
1
1
1
1
0.569001
0.683645
0.755026
0.923601
1.22234
1.69269
1.97161
1.93683
1.55849
1.10789
1.00463
1.00006
1
1
1
0.532435
0.617856
0.720559
0.893026
1.06883
1.42302
1.82864
1.92998
1.76595
1.28614
1.02655
1.00058
1.00001
1
1
0.493073
0.562231
0.667315
0.834804
0.966671
1.23253
1.62489
1.88773
1.85717
1.52103
1.10587
1.00488
1.00007
1
1
0.47936
0.53629
0.648132
0.762827
0.862221
1.07852
1.40975
1.77332
1.85267
1.70518
1.26493
1.02499
1.00056
1.00001
1
0.479416
0.538977
0.637365
0.709928
0.798423
0.981793
1.21003
1.5807
1.81774
1.7886
1.47454
1.09525
1.00439
1.00006
1
0.475043
0.531981
0.617404
0.66243
0.740696
0.918391
1.08043
1.38312
1.71565
1.78407
1.63768
1.23275
1.02176
1.0005
1
0.467189
0.515235
0.579827
0.61685
0.700348
0.851703
0.973282
1.22034
1.55691
1.75599
1.72623
1.42635
1.07986
1.00333
1.00004
0.477095
0.491924
0.548903
0.599357
0.697437
0.79717
0.883279
1.08397
1.38003
1.67849
1.72345
1.56916
1.19871
1.0185
1.00042
0.558151
0.49163
0.522271
0.586844
0.6859
0.748258
0.822126
1.00514
1.22002
1.5373
1.70334
1.66688
1.37227
1.06253
1.00249
0.742504
0.528455
0.527454
0.571377
0.655924
0.697882
0.771392
0.942686
1.10134
1.38024
1.64433
1.66621
1.51181
1.16435
1.01412
0.88858
0.640299
0.533566
0.554856
0.618585
0.654283
0.733737
0.882137
1.00313
1.23236
1.52943
1.6542
1.59859
1.31497
1.05167
0.944502
0.785769
0.570277
0.544798
0.571257
0.628127
0.727031
0.829883
0.922545
1.1263
1.39746
1.61735
1.61394
1.44446
1.13655
0.953933
0.910048
0.743233
0.581212
0.571895
0.607663
0.699279
0.75878
0.829301
0.998232
1.19607
1.46503
1.59164
1.54883
1.38769
0.877596
0.735873
0.640314
0.62837
0.599181
0.535825
0.493969
0.476628
0.452255
0.440457
0.437347
0.433583
0.437522
0.46203
0.612269
0.82372
0.866657
0.930376
0.97785
0.965628
0.677758
0.602666
0.55348
0.543477
0.513167
0.462446
0.437054
0.440846
0.433824
0.416637
0.410151
0.41539
0.45905
0.639958
0.834365
0.935942
0.907037
0.925124
0.970404
0.969294
0.518819
0.493156
0.481549
0.472685
0.440134
0.401287
0.394201
0.398396
0.39497
0.386151
0.392644
0.44914
0.662363
0.859627
0.895782
0.940452
0.936121
0.938477
0.963256
0.971439
0.393115
0.400362
0.412581
0.405826
0.380296
0.362405
0.3645
0.369667
0.369121
0.379465
0.462127
0.688434
0.850973
0.889316
0.923287
0.95644
0.959264
0.949653
0.956138
0.969857
0.301144
0.325837
0.348197
0.33882
0.317548
0.31191
0.315961
0.32408
0.366461
0.522825
0.75272
0.880217
0.870278
0.891845
0.943868
0.971188
0.970863
0.951911
0.947431
0.960572
0.232197
0.263385
0.2821
0.289656
0.281315
0.278198
0.29292
0.383004
0.614137
0.830395
0.904306
0.896783
0.884065
0.907761
0.953903
0.978782
0.977032
0.954547
0.937652
0.949341
0.191299
0.214819
0.242718
0.239292
0.252098
0.317301
0.503642
0.721074
0.836768
0.906495
0.938284
0.917397
0.909738
0.926062
0.957945
0.971797
0.971867
0.954905
0.938719
0.946827
0.140096
0.156397
0.231362
0.351316
0.519146
0.677129
0.779285
0.86237
0.897364
0.911279
0.922141
0.925696
0.932793
0.946476
0.958677
0.963345
0.963244
0.955304
0.945921
0.94934
0.29463
0.419482
0.542949
0.662162
0.747528
0.832118
0.865904
0.892888
0.888536
0.894218
0.906511
0.931177
0.954926
0.95785
0.953016
0.946372
0.947635
0.954079
0.957582
0.956073
0.566229
0.65379
0.707846
0.770408
0.814222
0.876212
0.890824
0.892193
0.879778
0.880125
0.896478
0.940363
0.974633
0.971084
0.945761
0.930197
0.937995
0.963763
0.973548
0.967135
)
;

boundaryField
{
    inlet
    {
        type            fixedValue;
        value           uniform 1;
    }
    outlet
    {
        type            zeroGradient;
    }
    airfoil
    {
        type            zeroGradient;
    }
    top
    {
        type            symmetryPlane;
    }
    bottom
    {
        type            symmetryPlane;
    }
    defaultFaces
    {
        type            empty;
    }
}


// ************************************************************************* //
