/*--------------------------------*- C++ -*----------------------------------*\
  =========                 |
  \\      /  F ield         | OpenFOAM: The Open Source CFD Toolbox
   \\    /   O peration     | Website:  https://openfoam.org
    \\  /    A nd           | Version:  7
     \\/     M anipulation  |
\*---------------------------------------------------------------------------*/
FoamFile
{
    version     2.0;
    format      ascii;
    class       volScalarField;
    location    "6.5";
    object      rho;
}
// * * * * * * * * * * * * * * * * * * * * * * * * * * * * * * * * * * * * * //

dimensions      [1 -3 0 0 0 0 0];

internalField   nonuniform List<scalar> 
3700
(
0.206165
0.326147
0.392024
0.469096
0.532336
0.545565
0.550872
0.558719
0.594328
0.614935
0.618015
0.606428
0.60153
0.632549
0.680692
0.692541
0.716456
0.724066
0.718518
0.731998
0.127781
0.147946
0.167985
0.184603
0.185673
0.178325
0.170164
0.175664
0.193696
0.206598
0.225305
0.2343
0.228906
0.229377
0.239539
0.261733
0.283515
0.277575
0.271655
0.279353
0.101928
0.112404
0.113989
0.102852
0.0827472
0.0664049
0.0652667
0.0682913
0.0806085
0.0935716
0.111993
0.12491
0.135323
0.141635
0.143619
0.14565
0.147767
0.150862
0.159663
0.182963
0.0884924
0.101999
0.106602
0.0936487
0.067507
0.0648649
0.064227
0.068472
0.0782173
0.0926101
0.115881
0.135646
0.160957
0.185063
0.198711
0.21424
0.212002
0.208279
0.207901
0.230104
0.0805443
0.0929659
0.0879687
0.0722023
0.067173
0.0775286
0.0834757
0.0886123
0.0913396
0.106001
0.117024
0.134501
0.165167
0.199965
0.227716
0.257326
0.274003
0.284177
0.282318
0.292991
0.0735354
0.0851236
0.0772988
0.066823
0.0784279
0.098085
0.114956
0.123465
0.136682
0.165275
0.156047
0.161023
0.172503
0.204652
0.243744
0.283803
0.324388
0.363544
0.394502
0.429916
0.0660195
0.0778694
0.0747011
0.0696358
0.07872
0.103777
0.123191
0.146544
0.183015
0.221478
0.229089
0.242614
0.246181
0.261939
0.277853
0.311471
0.364473
0.432753
0.490722
0.587454
0.0605739
0.0747535
0.0773167
0.0740806
0.0754445
0.100782
0.118257
0.149896
0.209139
0.25558
0.297809
0.329541
0.362064
0.396357
0.418735
0.446817
0.474178
0.532811
0.609351
0.766767
0.0599477
0.0744698
0.0758791
0.0735725
0.0790141
0.102486
0.11426
0.14319
0.212036
0.274367
0.341113
0.393963
0.466587
0.525596
0.583016
0.637828
0.686912
0.74084
0.811828
1.01585
0.0690421
0.0708465
0.0703792
0.0806013
0.104846
0.135606
0.140235
0.170402
0.222816
0.286521
0.371626
0.450526
0.557369
0.645771
0.744138
0.845575
0.942963
1.02893
1.13817
1.3287
0.082372
0.061119
0.0659649
0.101513
0.1451
0.181833
0.217846
0.291818
0.362222
0.432628
0.515591
0.606224
0.711653
0.815423
0.933199
1.08438
1.24975
1.39675
1.62518
1.56998
0.0833214
0.0536392
0.0690105
0.116613
0.16419
0.201643
0.281633
0.409669
0.531257
0.678125
0.802105
0.928365
1.05102
1.16808
1.28284
1.44202
1.65783
1.86335
2.17504
2.11438
0.0818836
0.052805
0.0702871
0.103941
0.150204
0.189877
0.31364
0.469773
0.654293
0.899108
1.09092
1.28569
1.47097
1.6474
1.83977
2.06364
2.30133
2.54101
2.91112
2.90602
0.0686124
0.0470534
0.0598525
0.0772599
0.125119
0.186865
0.354716
0.56738
0.875678
1.20983
1.50617
1.77579
2.03902
2.29111
2.60817
2.93727
3.25934
3.58697
3.89606
4.17292
0.0441661
0.0308754
0.0467014
0.0751902
0.139756
0.394038
0.782087
1.1829
1.65654
2.06645
2.39941
2.69344
2.99566
3.31794
3.74247
4.14276
4.52423
4.86024
5.07102
5.2525
0.0226279
0.0300615
0.0391275
0.141664
0.462687
1.05475
1.59569
2.18246
2.80845
3.32212
3.67507
4.01698
4.38126
4.79006
5.25058
5.54624
5.69874
5.73778
5.60659
5.42832
0.0130729
0.0341887
0.142793
0.566713
1.31716
2.08297
2.79016
3.56645
4.3935
4.92136
5.22132
5.53267
5.81493
6.05769
6.21573
6.1167
5.82025
5.0856
3.89615
2.63894
0.0358582
0.210354
0.780581
1.70861
2.93684
3.99037
4.91274
5.86006
6.62736
6.72241
6.5816
6.56915
6.5108
6.28657
5.59045
4.26923
2.92133
1.86642
1.42648
1.39012
0.4316
1.21846
2.73403
4.42513
5.85207
6.73898
7.51815
8.17121
7.98225
7.35985
6.75347
6.00071
4.72658
3.24477
1.99358
1.44082
1.38517
1.3929
1.39625
1.39922
3.21159
5.04507
6.75167
7.91903
8.69944
8.93878
9.12209
8.64253
6.29418
4.45259
3.30005
2.19002
1.51722
1.38259
1.39041
1.395
1.39887
1.39997
1.40003
1.40002
9.61828
9.55472
9.4739
9.6054
9.80225
9.42124
8.3016
3.11228
0.935266
1.40001
1.40001
1.40001
1.40001
1.40001
1.40001
1.40001
1.40001
1.40001
1.40001
1.40001
9.59043
9.51998
9.36024
9.30181
9.47053
8.01602
3.71598
1.43137
1.40001
1.40001
1.40001
1.40001
1.40001
1.40001
1.40001
1.40001
1.40001
1.40001
1.40001
1.40001
9.44887
9.50299
9.45549
9.2265
8.65
4.81489
1.48722
1.39813
1.40001
1.40001
1.40001
1.40001
1.40001
1.40001
1.40001
1.40001
1.40001
1.40001
1.40001
1.40001
9.2317
9.44919
9.47003
9.252
6.55498
1.98428
1.39033
1.40019
1.4
1.40001
1.40001
1.40001
1.40001
1.40001
1.40001
1.40001
1.40001
1.40001
1.40001
1.40001
9.03512
9.35789
9.40349
8.51977
3.65843
1.36728
1.4005
1.4
1.40001
1.40001
1.40001
1.40001
1.40001
1.40001
1.40001
1.40001
1.40001
1.40001
1.40001
1.40001
8.93965
9.32565
9.29299
6.82706
2.06768
1.40001
1.40001
1.40001
1.40001
1.40001
1.40001
1.40001
1.40001
1.40001
1.40001
1.40001
1.40001
1.40001
1.40001
1.40001
8.89716
9.40669
9.31433
4.99095
1.37393
1.40001
1.40001
1.40001
1.40001
1.40001
1.40001
1.40001
1.40001
1.40001
1.40001
1.40001
1.40001
1.40001
1.40001
1.40001
9.05202
9.29669
8.4333
2.80027
1.4
1.40001
1.40001
1.40001
1.40001
1.40001
1.40001
1.40001
1.40001
1.40001
1.40001
1.40001
1.40001
1.40001
1.40001
1.40001
9.64037
9.14944
6.74106
1.71269
1.4
1.40001
1.40001
1.40001
1.40001
1.40001
1.40001
1.40001
1.40001
1.40001
1.40001
1.40001
1.40001
1.40001
1.40001
1.40001
10.0914
8.88702
4.78654
1.38271
1.40001
1.40001
1.40001
1.40001
1.40001
1.40001
1.40001
1.40001
1.40001
1.40001
1.40001
1.40001
1.40001
1.40001
1.40001
1.40001
10.3368
8.31397
3.17849
1.40001
1.40001
1.40001
1.40001
1.40001
1.40001
1.40001
1.40001
1.40001
1.40001
1.40001
1.40001
1.40001
1.40001
1.40001
1.40001
1.40001
10.4179
7.43812
2.23017
1.40001
1.40001
1.40001
1.40001
1.40001
1.40001
1.40001
1.40001
1.40001
1.40001
1.40001
1.40001
1.40001
1.40001
1.40001
1.40001
1.40001
10.4606
6.59017
1.62272
1.40001
1.40001
1.40001
1.40001
1.40001
1.40001
1.40001
1.40001
1.40001
1.40001
1.40001
1.40001
1.40001
1.40001
1.40001
1.40001
1.40001
10.1728
5.59371
1.41572
1.40001
1.40001
1.40001
1.40001
1.40001
1.40001
1.40001
1.40001
1.40001
1.40001
1.40001
1.40001
1.40001
1.40001
1.40001
1.40001
1.40001
9.92403
4.55936
1.40001
1.40001
1.40001
1.40001
1.40001
1.40001
1.40001
1.40001
1.40001
1.40001
1.40001
1.40001
1.40001
1.40001
1.40001
1.40001
1.40001
1.40001
9.7799
3.45798
1.40001
1.40001
1.40001
1.40001
1.40001
1.40001
1.40001
1.40001
1.40001
1.40001
1.40001
1.40001
1.40001
1.40001
1.40001
1.40001
1.40001
1.40001
9.18291
2.57264
1.40001
1.40001
1.40001
1.40001
1.40001
1.40001
1.40001
1.40001
1.40001
1.40001
1.40001
1.40001
1.40001
1.40001
1.40001
1.40001
1.40001
1.40001
8.75514
1.90107
1.40001
1.40001
1.40001
1.40001
1.40001
1.40001
1.40001
1.40001
1.40001
1.40001
1.40001
1.40001
1.40001
1.40001
1.40001
1.40001
1.40001
1.40001
7.98864
1.40797
1.40001
1.40001
1.40001
1.40001
1.40001
1.40001
1.40001
1.40001
1.40001
1.40001
1.40001
1.40001
1.40001
1.40001
1.40001
1.40001
1.40001
1.40001
6.44187
1.40014
1.40001
1.40001
1.40001
1.40001
1.40001
1.40001
1.40001
1.40001
1.40001
1.40001
1.40001
1.40001
1.40001
1.40001
1.40001
1.40001
1.40001
1.40001
6.43626
1.40013
1.40001
1.40001
1.40001
1.40001
1.40001
1.40001
1.40001
1.40001
1.40001
1.40001
1.40001
1.40001
1.40001
1.40001
1.40001
1.40001
1.40001
1.40001
7.98092
1.40835
1.40001
1.40001
1.40001
1.40001
1.40001
1.40001
1.40001
1.40001
1.40001
1.40001
1.40001
1.40001
1.40001
1.40001
1.40001
1.40001
1.40001
1.40001
8.77349
1.91123
1.40001
1.40001
1.40001
1.40001
1.40001
1.40001
1.40001
1.40001
1.40001
1.40001
1.40001
1.40001
1.40001
1.40001
1.40001
1.40001
1.40001
1.40001
9.16734
2.58423
1.40001
1.40001
1.40001
1.40001
1.40001
1.40001
1.40001
1.40001
1.40001
1.40001
1.40001
1.40001
1.40001
1.40001
1.40001
1.40001
1.40001
1.40001
9.75793
3.44595
1.40001
1.40001
1.40001
1.40001
1.40001
1.40001
1.40001
1.40001
1.40001
1.40001
1.40001
1.40001
1.40001
1.40001
1.40001
1.40001
1.40001
1.40001
9.94486
4.5348
1.40001
1.40001
1.40001
1.40001
1.40001
1.40001
1.40001
1.40001
1.40001
1.40001
1.40001
1.40001
1.40001
1.40001
1.40001
1.40001
1.40001
1.40001
10.1722
5.60382
1.42199
1.40001
1.40001
1.40001
1.40001
1.40001
1.40001
1.40001
1.40001
1.40001
1.40001
1.40001
1.40001
1.40001
1.40001
1.40001
1.40001
1.40001
10.4535
6.60217
1.62974
1.40001
1.40001
1.40001
1.40001
1.40001
1.40001
1.40001
1.40001
1.40001
1.40001
1.40001
1.40001
1.40001
1.40001
1.40001
1.40001
1.40001
10.4132
7.44702
2.23305
1.40001
1.40001
1.40001
1.40001
1.40001
1.40001
1.40001
1.40001
1.40001
1.40001
1.40001
1.40001
1.40001
1.40001
1.40001
1.40001
1.40001
10.3316
8.29642
3.18621
1.40001
1.40001
1.40001
1.40001
1.40001
1.40001
1.40001
1.40001
1.40001
1.40001
1.40001
1.40001
1.40001
1.40001
1.40001
1.40001
1.40001
10.0995
8.90071
4.77032
1.38282
1.40001
1.40001
1.40001
1.40001
1.40001
1.40001
1.40001
1.40001
1.40001
1.40001
1.40001
1.40001
1.40001
1.40001
1.40001
1.40001
9.64324
9.15012
6.74556
1.71409
1.4
1.40001
1.40001
1.40001
1.40001
1.40001
1.40001
1.40001
1.40001
1.40001
1.40001
1.40001
1.40001
1.40001
1.40001
1.40001
9.03492
9.25596
8.39194
2.80365
1.4
1.40001
1.40001
1.40001
1.40001
1.40001
1.40001
1.40001
1.40001
1.40001
1.40001
1.40001
1.40001
1.40001
1.40001
1.40001
8.91065
9.42714
9.34316
4.97323
1.36671
1.40001
1.40001
1.40001
1.40001
1.40001
1.40001
1.40001
1.40001
1.40001
1.40001
1.40001
1.40001
1.40001
1.40001
1.40001
8.9571
9.35828
9.32749
6.83673
2.08447
1.40001
1.40001
1.40001
1.40001
1.40001
1.40001
1.40001
1.40001
1.40001
1.40001
1.40001
1.40001
1.40001
1.40001
1.40001
9.04737
9.35753
9.39879
8.47574
3.6734
1.36728
1.40049
1.4
1.40001
1.40001
1.40001
1.40001
1.40001
1.40001
1.40001
1.40001
1.40001
1.40001
1.40001
1.40001
9.22563
9.42532
9.45715
9.25902
6.54732
1.96642
1.39071
1.40019
1.4
1.40001
1.40001
1.40001
1.40001
1.40001
1.40001
1.40001
1.40001
1.40001
1.40001
1.40001
9.44359
9.501
9.46285
9.25386
8.65682
4.79226
1.4789
1.39823
1.40001
1.40001
1.40001
1.40001
1.40001
1.40001
1.40001
1.40001
1.40001
1.40001
1.40001
1.40001
9.61184
9.52384
9.37713
9.31784
9.42432
8.00948
3.74141
1.43637
1.40001
1.40001
1.40001
1.40001
1.40001
1.40001
1.40001
1.40001
1.40001
1.40001
1.40001
1.40001
9.61646
9.55227
9.47865
9.60356
9.79332
9.41293
8.30265
3.13762
0.932746
1.40001
1.40001
1.40001
1.40001
1.40001
1.40001
1.40001
1.40001
1.40001
1.40001
1.40001
3.20725
5.04563
6.75112
7.90724
8.69278
8.94491
9.12249
8.64098
6.28513
4.44325
3.29304
2.18556
1.51597
1.38251
1.3903
1.395
1.39888
1.39997
1.40003
1.40002
0.432709
1.20898
2.73997
4.44615
5.85947
6.72016
7.51205
8.17236
7.9834
7.36217
6.75995
6.00785
4.73158
3.24839
1.9966
1.4418
1.38521
1.39292
1.39626
1.39922
0.0362377
0.208265
0.752902
1.66849
2.92105
4.00895
4.91584
5.8418
6.62672
6.73465
6.60235
6.56881
6.50858
6.28322
5.58744
4.26776
2.92154
1.86685
1.42658
1.39014
0.0133744
0.0356224
0.153562
0.584086
1.33171
2.0636
2.77731
3.56728
4.40146
4.92654
5.22596
5.5358
5.81796
6.05539
6.21128
6.1127
5.81737
5.08375
3.89527
2.63834
0.0204384
0.0301576
0.0448349
0.162534
0.487869
1.06703
1.60457
2.17272
2.79534
3.31011
3.67051
4.01969
4.38526
4.79124
5.24624
5.53851
5.69496
5.73756
5.60712
5.42959
0.0355221
0.0301819
0.0451779
0.0690041
0.142062
0.420726
0.78764
1.17827
1.64295
2.05412
2.39177
2.69097
2.9968
3.31926
3.74008
4.13688
4.51838
4.85855
5.07301
5.25495
0.0546496
0.0390442
0.0487147
0.0727971
0.12749
0.20195
0.36457
0.581389
0.882086
1.21341
1.5098
1.78081
2.04576
2.2967
2.61001
2.93543
3.25626
3.5852
3.89809
4.17748
0.0726249
0.0465484
0.0655351
0.102838
0.15446
0.203405
0.329032
0.473758
0.659908
0.901229
1.09645
1.29188
1.47744
1.65223
1.84221
2.0631
2.29907
2.53973
2.91127
2.90793
0.0775516
0.0484542
0.0680052
0.112128
0.162378
0.208185
0.289583
0.402579
0.528882
0.67761
0.803363
0.930568
1.05253
1.16877
1.28213
1.44031
1.65592
1.86244
2.17676
2.11596
0.0791149
0.052811
0.0613073
0.0953638
0.140827
0.177731
0.216043
0.28361
0.356957
0.430336
0.510024
0.60153
0.709092
0.815369
0.934524
1.08618
1.25117
1.39702
1.6251
1.56985
0.0777529
0.0653584
0.0623085
0.0727481
0.099907
0.135227
0.141719
0.170853
0.217693
0.276565
0.364907
0.44824
0.558368
0.647837
0.746035
0.847329
0.943601
1.02855
1.13537
1.32558
0.068738
0.074797
0.0734439
0.0721595
0.0793922
0.110423
0.116749
0.14146
0.201175
0.268672
0.339731
0.393647
0.467105
0.526279
0.582842
0.636182
0.683683
0.737211
0.807692
1.01361
0.0661962
0.0803337
0.0791373
0.0758256
0.0827169
0.106669
0.117743
0.147187
0.203991
0.253733
0.298579
0.329971
0.360772
0.393034
0.412985
0.439928
0.468017
0.529504
0.608908
0.768012
0.0673135
0.0799595
0.0794727
0.0768613
0.0823718
0.103273
0.11927
0.144016
0.183962
0.222099
0.228396
0.24234
0.241663
0.254356
0.271623
0.308959
0.364131
0.433669
0.492876
0.58982
0.0770957
0.0819418
0.0790159
0.0721632
0.0779963
0.0919431
0.108086
0.121627
0.138362
0.164736
0.155643
0.160551
0.170769
0.202899
0.24422
0.285258
0.325914
0.364664
0.396459
0.432565
0.0913184
0.0921783
0.0877318
0.0741511
0.0670399
0.0740837
0.0842766
0.0859826
0.0943007
0.10836
0.119514
0.13578
0.165675
0.201929
0.229874
0.257935
0.274623
0.284759
0.283527
0.293325
0.0944101
0.102234
0.107448
0.096853
0.0720519
0.0650332
0.0687149
0.0743249
0.0839842
0.0983231
0.119079
0.137658
0.163607
0.188051
0.200158
0.212484
0.211053
0.208271
0.207726
0.229394
0.097542
0.107197
0.113287
0.106052
0.0893549
0.0697478
0.0698391
0.0756225
0.0857223
0.0979415
0.116384
0.128852
0.137616
0.141876
0.142305
0.14297
0.144794
0.148719
0.159448
0.182713
0.116938
0.141187
0.171162
0.177711
0.177912
0.164647
0.140254
0.130705
0.130011
0.147049
0.189015
0.237657
0.280734
0.315955
0.308996
0.272349
0.24954
0.257774
0.286564
0.289148
0.200231
0.326644
0.403155
0.469234
0.530592
0.531367
0.524462
0.531027
0.541643
0.575655
0.615357
0.625828
0.637798
0.665221
0.688233
0.675949
0.685291
0.717543
0.738048
0.733082
0.777559
0.904933
0.984924
1.06898
1.12716
1.20447
1.2302
1.22635
1.20546
1.20487
1.23207
1.30042
1.34893
1.34216
1.30415
1.29072
1.30292
1.34515
1.36357
1.34626
0.391753
0.576303
0.770872
0.922321
1.03285
1.15883
1.20818
1.24344
1.22986
1.23278
1.25297
1.29704
1.33503
1.33966
1.31765
1.30205
1.31084
1.34243
1.35547
1.34717
0.195466
0.219459
0.334161
0.494933
0.723303
0.95156
1.09324
1.19853
1.23842
1.25783
1.27694
1.28814
1.30431
1.32273
1.32525
1.32561
1.33095
1.33763
1.33537
1.33631
0.268311
0.300617
0.323501
0.331586
0.35332
0.449714
0.71537
1.01084
1.15502
1.25882
1.30603
1.27794
1.27361
1.29464
1.32617
1.3372
1.34178
1.33815
1.327
1.33221
0.326165
0.366298
0.403024
0.410744
0.397255
0.388703
0.410166
0.536445
0.858764
1.15961
1.25552
1.24396
1.23988
1.27046
1.32385
1.35224
1.35236
1.33308
1.31746
1.32961
0.421369
0.456661
0.485328
0.473227
0.441182
0.434026
0.438854
0.451502
0.516995
0.742484
1.05036
1.2097
1.20488
1.24965
1.30964
1.34646
1.34634
1.32598
1.31662
1.33247
0.550124
0.558835
0.576984
0.565921
0.528084
0.504459
0.505062
0.512492
0.51754
0.531284
0.653038
0.967539
1.17186
1.24527
1.28264
1.33617
1.33343
1.30976
1.31498
1.33748
0.711503
0.689446
0.678927
0.661013
0.612754
0.561077
0.54458
0.552102
0.550907
0.541727
0.549205
0.6285
0.915779
1.16006
1.25906
1.32548
1.30827
1.29921
1.3242
1.34083
0.932294
0.840188
0.771487
0.752739
0.71242
0.644359
0.601473
0.59363
0.593468
0.585854
0.578514
0.582461
0.634646
0.872527
1.18106
1.31021
1.26913
1.28939
1.33846
1.34165
1.21914
1.02626
0.88944
0.865104
0.833877
0.757458
0.687412
0.657611
0.642919
0.628161
0.617081
0.61029
0.610527
0.645668
0.851323
1.15404
1.21635
1.30302
1.35417
1.33828
1.78193
1.36904
1.02928
0.905757
0.928665
0.922922
0.861617
0.798301
0.750223
0.6944
0.674878
0.672407
0.66335
0.662388
0.674034
0.786781
1.0445
1.24496
1.31009
1.3256
2.81073
2.1419
1.64799
1.19444
1.12457
1.12407
1.04592
0.93771
0.851967
0.780792
0.749725
0.752325
0.741818
0.712969
0.679562
0.686059
0.743145
0.905076
1.10818
1.27312
3.48345
3.00201
2.43155
1.87537
1.46087
1.31027
1.17143
1.0593
1.00337
0.930951
0.9098
0.892269
0.854111
0.803609
0.769024
0.736811
0.742137
0.753698
0.808675
1.04734
3.29673
3.26862
3.10883
2.71783
2.17195
1.75723
1.5008
1.31796
1.25096
1.15638
1.06695
0.998324
0.924736
0.857125
0.829735
0.81358
0.790195
0.771201
0.762622
0.81323
2.34694
2.99341
3.1028
3.06413
2.87278
2.46005
2.08213
1.72441
1.49718
1.33641
1.18722
1.11357
1.05268
0.978146
0.965478
0.947041
0.911221
0.864015
0.797266
0.801136
1.55259
2.01268
2.58163
2.94999
2.94666
2.88492
2.69354
2.3611
1.9933
1.73011
1.49184
1.35935
1.29272
1.19898
1.11867
1.04372
0.967898
0.913907
0.883681
0.855272
1.40637
1.46222
1.6862
2.16207
2.60561
2.81545
2.80754
2.7505
2.55405
2.27291
1.96853
1.68235
1.50214
1.36239
1.23876
1.15866
1.08205
1.02594
1.01893
0.978632
1.40014
1.40154
1.41464
1.50925
1.77599
2.19649
2.54379
2.70535
2.69569
2.63611
2.47679
2.21005
1.92755
1.70012
1.50638
1.40424
1.3268
1.24052
1.16158
1.06086
1.40001
1.40002
1.40021
1.40352
1.42612
1.54154
1.80515
2.17854
2.46881
2.59465
2.58784
2.53738
2.39572
2.1741
1.92604
1.70324
1.54214
1.40438
1.29154
1.16108
1.40001
1.40001
1.40001
1.40004
1.40045
1.40552
1.43452
1.5504
1.79928
2.12693
2.38335
2.4985
2.49183
2.45276
2.34538
2.14998
1.92931
1.72047
1.57406
1.39836
1.40001
1.40001
1.40001
1.40001
1.40001
1.40007
1.4007
1.40646
1.43703
1.54781
1.76986
2.06207
2.28908
2.41243
2.40858
2.38075
2.29782
2.13773
1.9538
1.67296
1.40001
1.40001
1.40001
1.40001
1.40001
1.40001
1.40001
1.40009
1.40081
1.40682
1.43495
1.5331
1.72503
1.99512
2.19425
2.33019
2.32894
2.3121
2.26081
2.0484
1.40001
1.40001
1.40001
1.40001
1.40001
1.40001
1.40001
1.40001
1.40001
1.4001
1.40079
1.40614
1.43043
1.51153
1.67738
1.91935
2.11397
2.23501
2.25628
2.22507
1.40001
1.40001
1.40001
1.40001
1.40001
1.40001
1.40001
1.40001
1.40001
1.40001
1.40001
1.40009
1.40071
1.40465
1.42581
1.48729
1.62933
1.83954
2.02021
2.16554
1.40001
1.40001
1.40001
1.40001
1.40001
1.40001
1.40001
1.40001
1.40001
1.40001
1.40001
1.40001
1.40001
1.40007
1.4006
1.40349
1.41971
1.47214
1.59062
1.94073
2.24563
3.43144
3.59551
2.90643
1.83058
1.45124
1.40261
1.40007
1.40001
1.40001
1.40001
1.40001
1.40001
1.40001
1.40001
3.26411
3.91579
3.51919
2.15103
1.467
1.40113
1.40001
1.4
1.40001
1.40001
1.40001
1.40001
1.40001
1.40001
1.40001
4.07184
3.99124
2.76301
1.61308
1.40733
1.40007
1.40001
1.40001
1.40001
1.40001
1.40001
1.40001
1.40001
1.40001
1.40001
4.52082
3.56476
1.90937
1.42695
1.40027
1.40001
1.40001
1.40001
1.40001
1.40001
1.40001
1.40001
1.40001
1.40001
1.40001
4.61992
2.35202
1.46569
1.4007
1.40001
1.40001
1.40001
1.40001
1.40001
1.40001
1.40001
1.40001
1.40001
1.40001
1.40001
2.88041
1.50229
1.40072
1.4
1.4
1.40001
1.40001
1.40001
1.40001
1.40001
1.40001
1.40001
1.40001
1.40001
1.40001
1.54134
1.40075
1.4
1.4
1.40001
1.40001
1.40001
1.40001
1.40001
1.40001
1.40001
1.40001
1.40001
1.40001
1.40001
1.39742
1.39981
1.4
1.40001
1.40001
1.40001
1.40001
1.40001
1.40001
1.40001
1.40001
1.40001
1.40001
1.40001
1.40001
1.39996
1.40001
1.40001
1.40001
1.40001
1.40001
1.40001
1.40001
1.40001
1.40001
1.40001
1.40001
1.40001
1.40001
1.40001
1.40001
1.40001
1.40001
1.40001
1.40001
1.40001
1.40001
1.40001
1.40001
1.40001
1.40001
1.40001
1.40001
1.40001
1.40001
1.40001
1.40001
1.40001
1.40001
1.40001
1.40001
1.40001
1.40001
1.40001
1.40001
1.40001
1.40001
1.40001
1.40001
1.40001
1.40001
1.40001
1.40001
1.40001
1.40001
1.40001
1.40001
1.40001
1.40001
1.40001
1.40001
1.40001
1.40001
1.40001
1.40001
1.40001
1.40001
1.40001
1.40001
1.40001
1.40001
1.40001
1.40001
1.40001
1.40001
1.40001
1.40001
1.40001
1.40001
1.40001
1.40001
1.40001
1.40001
1.40001
1.40001
1.40001
1.40001
1.40001
1.40001
1.40001
1.40001
1.40001
1.40001
1.40001
1.40001
1.40001
1.40001
1.40001
1.40001
1.40001
1.40001
1.40001
1.40001
1.40001
1.40001
1.40001
1.40001
1.40001
1.40001
1.40001
1.40001
1.40001
1.40001
1.40001
1.40001
1.40001
1.40001
1.40001
1.40001
1.40001
1.40001
1.40001
1.40001
1.40001
1.40001
1.40001
1.40001
1.40001
1.40001
1.40001
1.40001
1.40001
1.40001
1.40001
1.40001
1.40001
1.40001
1.40001
1.40001
1.40001
1.40001
1.40001
1.40001
1.40001
1.40001
1.40001
1.40001
1.40001
1.40001
1.40001
1.40001
1.40001
1.40001
1.40001
1.40001
1.40001
1.40001
1.40001
1.40001
1.40001
1.40001
1.40001
1.40001
1.40001
1.40001
1.40001
1.40001
1.40001
1.40001
1.40001
1.40001
1.40001
1.40001
1.40001
1.40001
1.40001
1.40001
1.40001
1.40001
1.40001
1.40001
1.40001
1.40001
1.40001
1.40001
1.40001
1.40001
1.40001
1.40001
1.40001
1.40001
1.40001
1.40001
1.40001
1.40001
1.40001
1.40001
1.40001
1.40001
1.40001
1.40001
1.40001
1.40001
1.40001
1.40001
1.40001
1.40001
1.40001
1.40001
1.40001
1.40001
1.40001
1.40001
1.40001
1.40001
1.40001
1.40001
1.40001
1.40001
1.40001
1.40001
1.40001
1.40001
1.40001
1.40001
1.40001
1.40001
1.40001
1.40001
1.40001
1.40001
1.40001
1.40001
1.40001
1.40001
1.40001
1.40001
1.40001
1.40001
1.40001
1.40001
1.40001
1.40001
1.40001
1.40001
1.40001
1.40001
1.40001
1.40001
1.40001
1.40001
1.40001
1.40001
1.40001
1.40001
1.40001
1.40001
1.40001
1.40001
1.40001
1.40001
1.40001
1.40001
1.40001
1.40001
1.40001
1.40001
1.40001
1.40001
1.40001
1.40001
1.40001
1.40001
1.40001
1.40001
1.40001
1.40001
1.40001
1.40001
1.40001
1.40001
1.40001
1.40001
1.40001
1.40001
1.40001
1.40001
1.40001
1.40001
1.40001
1.40001
1.40001
1.40001
1.40001
1.40001
1.40001
1.40001
1.40001
1.40001
1.40001
1.40001
1.40001
1.40001
1.40001
1.40001
1.40001
1.40001
1.40001
1.40001
1.40001
1.40001
1.40001
1.40001
1.40001
1.40001
1.40001
1.40001
1.40001
1.40001
1.40001
1.40001
1.40001
1.40001
1.40001
1.40001
1.40001
1.40001
1.40001
1.40001
1.40001
1.40001
1.40001
1.40001
1.40001
1.40001
1.40001
1.40001
1.40001
1.40001
1.40001
1.40001
1.40001
1.40001
1.40001
1.40001
1.40001
1.40001
1.40001
1.40001
1.40001
1.40001
1.40001
1.40001
1.40001
1.40001
1.40001
1.40001
1.40001
1.40001
1.40001
1.40001
1.40001
1.40001
1.40001
1.40001
1.40001
1.40001
1.40001
1.40001
1.40001
1.40001
1.40001
1.40001
1.40001
1.40001
1.40001
1.40001
1.40001
1.40001
1.40001
1.40001
1.40001
1.40001
1.40001
1.40001
1.40001
1.40001
1.40001
1.40001
1.40001
1.40001
1.40001
1.40001
1.40001
1.40001
1.40001
1.40001
1.40001
1.40001
1.40001
1.40001
1.40001
1.40001
1.40001
1.40001
1.40001
1.40001
1.40001
1.40001
1.40001
1.40001
1.40001
1.40001
1.40001
1.40001
1.40001
1.40001
1.40001
1.40001
1.40001
1.40001
1.40001
1.40001
1.40001
1.40001
1.40001
1.40001
1.40001
1.40001
1.40001
1.40001
1.40001
1.40001
1.40001
1.40001
1.40001
1.40001
1.40001
1.40001
1.40001
1.40001
1.40001
1.40001
1.40001
1.40001
1.40001
1.40001
1.40001
1.40001
1.40001
1.40001
1.40001
1.40001
1.40001
1.40001
1.40001
1.40001
1.40001
1.40001
1.40001
1.40001
1.40001
1.40001
1.40001
1.40001
1.40001
1.40001
1.40001
1.40001
1.40001
1.40001
1.40001
1.40001
1.40001
1.40001
1.40001
1.40001
1.40001
1.40001
1.40001
1.40001
1.40001
1.40001
1.40001
1.40001
1.40001
1.40001
1.40001
1.40001
1.40001
1.40001
1.40001
1.40001
1.40001
1.40001
1.40001
1.40001
1.40001
1.40001
1.40001
1.40001
1.40001
1.40001
1.40001
1.40001
1.40001
1.40001
1.40001
1.40001
1.40001
1.40001
1.40001
1.40001
1.40001
1.40001
1.40001
1.40001
1.40001
1.40001
1.40001
1.40001
1.40001
1.40001
1.40001
1.40001
1.40001
1.40001
1.40001
1.40001
1.40001
1.40001
1.40001
1.40001
1.40001
1.40001
1.40001
1.40001
1.40001
1.40001
1.40001
1.40001
1.40001
1.40001
1.40001
1.40001
1.40001
1.40001
1.40001
1.40001
1.40001
1.40001
1.40001
1.40001
1.40001
1.40001
1.40001
1.40001
1.40001
1.40001
1.40001
1.40001
1.40001
1.40001
1.40001
1.40001
1.40001
1.40001
1.40001
1.40001
1.40001
1.40001
1.40001
1.40001
1.40001
1.40001
1.40001
1.40001
1.40001
1.40001
1.40001
1.40001
1.40001
1.40001
1.40001
1.40001
1.40001
1.40001
1.40001
1.40001
1.40001
1.40001
1.40001
1.40001
1.40001
1.40001
1.40001
1.40001
1.40001
1.40001
1.40001
1.40001
1.40001
1.40001
1.40001
1.40001
1.40001
1.40001
1.40001
1.40001
1.40001
1.40001
1.40001
1.40001
1.40001
1.40001
1.40001
1.40001
1.40001
1.40001
1.40001
1.40001
1.40001
1.40001
1.40001
1.40001
1.40001
1.40001
1.40001
1.40001
1.40001
1.40001
1.40001
1.40001
1.40001
1.40001
1.40001
1.40001
1.40001
1.40001
1.40001
1.40001
1.40001
1.40001
1.40001
1.40001
1.40001
1.40001
1.40001
1.40001
1.40001
1.40001
1.40001
1.40001
1.40001
1.40001
1.40001
1.40001
1.40001
1.40001
1.40001
1.40001
1.40001
1.40001
1.40001
1.40001
1.40001
1.40001
1.40001
1.40001
1.40001
1.40001
1.40001
1.40001
1.40001
1.40001
1.40001
1.40001
1.40001
1.40001
1.40001
1.40001
1.40001
1.40001
1.40001
1.40001
1.40001
1.40001
1.40001
1.40001
1.40001
1.40001
1.40001
1.40001
1.40001
1.40001
1.40001
1.40001
1.40001
1.40001
1.40001
1.40001
1.40001
1.40001
1.40001
1.40001
1.40001
1.40001
1.40001
1.40001
1.40001
1.40001
1.40001
1.40001
1.40001
1.40001
1.40001
1.40001
1.40001
1.40001
1.40001
1.40001
1.40001
1.40001
1.40001
1.40001
1.40001
1.40001
1.40001
1.40001
1.40001
1.40001
1.40001
1.40001
1.40001
1.40001
1.40001
1.40001
1.40001
1.40001
1.40001
1.40001
1.40001
1.40001
1.40001
1.40001
1.40001
1.40001
1.40001
1.40001
1.40001
1.40001
1.40001
1.40001
1.40001
1.40001
1.40001
1.40001
1.40001
1.40001
1.40001
1.40001
1.40001
1.40001
1.40001
1.40001
1.40001
1.40001
1.40001
1.40001
1.40001
1.40001
1.40001
1.40001
1.40001
1.40001
1.40001
1.40001
1.40001
1.40001
1.40001
1.40001
1.40001
1.40001
1.40001
1.40001
1.40001
1.40001
1.40001
1.40001
1.40001
1.40001
1.40001
1.40001
1.40001
1.40001
1.40001
1.40001
1.40001
1.40001
1.40001
1.40001
1.40001
1.40001
1.40001
1.40001
1.40001
1.40001
1.40001
1.40001
1.40001
1.40001
1.40001
1.40001
1.40001
1.40001
1.40001
1.40001
1.40001
1.40001
1.40001
1.40001
1.40001
1.40001
1.40001
1.40001
1.40001
1.40001
1.40001
1.40001
1.40001
1.40001
1.40001
1.40001
1.40001
1.40001
1.40001
1.40001
1.40001
1.40001
1.40001
1.40001
1.40001
1.40001
1.40001
1.40001
1.40001
1.40001
1.40001
1.40001
1.40001
1.39996
1.40001
1.40001
1.40001
1.40001
1.40001
1.40001
1.40001
1.40001
1.40001
1.40001
1.40001
1.40001
1.40001
1.40001
1.39742
1.39982
1.4
1.40001
1.40001
1.40001
1.40001
1.40001
1.40001
1.40001
1.40001
1.40001
1.40001
1.40001
1.40001
1.54113
1.40075
1.4
1.4
1.40001
1.40001
1.40001
1.40001
1.40001
1.40001
1.40001
1.40001
1.40001
1.40001
1.40001
2.87955
1.50201
1.40072
1.4
1.4
1.40001
1.40001
1.40001
1.40001
1.40001
1.40001
1.40001
1.40001
1.40001
1.40001
4.62069
2.35131
1.46552
1.40069
1.40001
1.40001
1.40001
1.40001
1.40001
1.40001
1.40001
1.40001
1.40001
1.40001
1.40001
4.52185
3.56441
1.90916
1.42696
1.40027
1.40001
1.40001
1.40001
1.40001
1.40001
1.40001
1.40001
1.40001
1.40001
1.40001
4.07324
3.99089
2.76208
1.61296
1.40733
1.40007
1.40001
1.40001
1.40001
1.40001
1.40001
1.40001
1.40001
1.40001
1.40001
3.26455
3.91553
3.51907
2.15103
1.46705
1.40114
1.40001
1.4
1.40001
1.40001
1.40001
1.40001
1.40001
1.40001
1.40001
2.24489
3.43112
3.59554
2.90678
1.83074
1.45124
1.40261
1.40007
1.40001
1.40001
1.40001
1.40001
1.40001
1.40001
1.40001
1.78111
2.80885
3.48275
3.29679
2.34772
1.55255
1.40637
1.40014
1.40001
1.40001
1.40001
1.40001
1.40001
1.40001
1.40001
1.36241
2.15201
3.003
3.26763
2.9895
2.01223
1.46236
1.40155
1.40002
1.40001
1.40001
1.40001
1.40001
1.40001
1.40001
1.01794
1.6336
2.43252
3.11489
3.10481
2.58127
1.68609
1.41465
1.40021
1.40001
1.40001
1.40001
1.40001
1.40001
1.40001
0.913095
1.19007
1.86695
2.71631
3.06666
2.94978
2.16167
1.50929
1.40352
1.40004
1.40001
1.40001
1.40001
1.40001
1.40001
0.933391
1.13562
1.47922
2.16673
2.86703
2.94604
2.60553
1.77649
1.42627
1.40046
1.40001
1.40001
1.40001
1.40001
1.40001
0.915905
1.11549
1.31424
1.78505
2.46464
2.88394
2.8156
2.1974
1.54186
1.40554
1.40007
1.40001
1.40001
1.40001
1.40001
0.861807
1.044
1.14938
1.48875
2.08955
2.69492
2.80723
2.54488
1.80582
1.43458
1.4007
1.40001
1.40001
1.40001
1.40001
0.794292
0.9541
1.05372
1.28874
1.70514
2.36078
2.75066
2.7048
2.17886
1.55055
1.40647
1.40009
1.40001
1.40001
1.40001
0.743475
0.862577
1.00577
1.24625
1.49154
1.98545
2.55148
2.69446
2.46773
1.7992
1.43706
1.40082
1.40001
1.40001
1.40001
0.68873
0.785174
0.931678
1.16527
1.3494
1.72031
2.26769
2.63516
2.59444
2.12673
1.54774
1.40681
1.4001
1.40001
1.40001
0.669678
0.749102
0.905059
1.06513
1.20399
1.50588
1.96807
2.47565
2.5875
2.38323
1.76961
1.43488
1.40078
1.40001
1.40001
0.669799
0.752901
0.890152
0.991535
1.11518
1.37118
1.68989
2.20725
2.53865
2.49925
2.06195
1.53291
1.40613
1.40009
1.40001
0.66375
0.743222
0.862434
0.925439
1.03481
1.2829
1.50936
1.93198
2.39628
2.49247
2.28923
1.72474
1.43037
1.40071
1.40001
0.652882
0.719976
0.810165
0.861979
0.978636
1.19005
1.36007
1.70512
2.17499
2.45326
2.41253
1.99474
1.51145
1.40465
1.40007
0.66673
0.687542
0.767147
0.837679
0.974678
1.11413
1.23465
1.51503
1.92844
2.34516
2.40836
2.19378
1.67724
1.42582
1.4006
0.779689
0.687219
0.730076
0.820327
0.958691
1.04602
1.14943
1.40515
1.70536
2.1483
2.3803
2.32993
1.91933
1.48726
1.40348
1.03632
0.73858
0.737382
0.798857
0.916992
0.975845
1.07873
1.31809
1.53989
1.92934
2.29799
2.32878
2.11384
1.62932
1.4197
1.23953
0.894436
0.746016
0.775906
0.865018
0.915088
1.02624
1.23369
1.40293
1.72314
2.13778
2.31203
2.23479
1.83941
1.47211
1.31737
1.09706
0.797256
0.761966
0.799035
0.878654
1.01695
1.16085
1.29054
1.57524
1.95377
2.26064
2.25606
2.01996
1.59053
1.33046
1.27002
1.03826
0.812833
0.800082
0.85021
0.978334
1.06171
1.16047
1.39657
1.67287
2.04821
2.22495
2.1654
1.94073
1.22332
1.0262
0.893295
0.876726
0.836143
0.747943
0.689669
0.665594
0.631741
0.615367
0.611076
0.605863
0.611386
0.645594
0.854817
1.14905
1.20873
1.29727
1.36328
1.34631
0.945426
0.840931
0.772472
0.758556
0.716363
0.645714
0.610386
0.615745
0.606036
0.582139
0.573143
0.580462
0.641322
0.893194
1.16367
1.30486
1.26465
1.28978
1.35272
1.35118
0.724175
0.688501
0.672352
0.660008
0.614653
0.560515
0.550697
0.556598
0.551873
0.539623
0.54868
0.627409
0.92418
1.19855
1.24885
1.3109
1.30487
1.30815
1.34259
1.35395
0.549065
0.559223
0.576287
0.566888
0.531304
0.506369
0.509316
0.516553
0.515814
0.530251
0.645376
0.96027
1.18629
1.23963
1.28684
1.33288
1.3368
1.32344
1.33245
1.35149
0.420858