/*--------------------------------*- C++ -*----------------------------------*\
  =========                 |
  \\      /  F ield         | OpenFOAM: The Open Source CFD Toolbox
   \\    /   O peration     | Website:  https://openfoam.org
    \\  /    A nd           | Version:  7
     \\/     M anipulation  |
\*---------------------------------------------------------------------------*/
FoamFile
{
    version     2.0;
    format      ascii;
    class       volVectorField;
    location    "6.5";
    object      U;
}
// * * * * * * * * * * * * * * * * * * * * * * * * * * * * * * * * * * * * * //

dimensions      [0 1 -1 0 0 0 0];

internalField   nonuniform List<vector> 
3700
(
(1.33119 -0.354881 0)
(1.30862 -0.461758 0)
(1.33963 -0.266981 0)
(1.4132 -0.251456 0)
(1.52928 -0.190888 0)
(1.53957 -0.182749 0)
(1.5062 -0.187748 0)
(1.48044 -0.161721 0)
(1.46644 -0.161562 0)
(1.51033 -0.14873 0)
(1.60529 -0.146862 0)
(1.6569 -0.160043 0)
(1.6895 -0.213487 0)
(1.71675 -0.269659 0)
(1.70256 -0.260686 0)
(1.6684 -0.205764 0)
(1.69369 -0.125562 0)
(1.75048 -0.140783 0)
(1.82575 -0.2431 0)
(1.8728 -0.247362 0)
(1.79002 -1.22847 0)
(1.76584 -1.0616 0)
(1.83097 -1.00943 0)
(1.99613 -1.08473 0)
(2.02994 -1.22348 0)
(1.90255 -1.29857 0)
(1.76397 -1.35621 0)
(1.76159 -1.30048 0)
(1.76402 -1.45549 0)
(1.83441 -1.40389 0)
(1.92918 -1.43885 0)
(2.04532 -1.35807 0)
(2.1544 -1.3688 0)
(2.19283 -1.34933 0)
(2.1873 -1.28838 0)
(2.16167 -1.14813 0)
(2.17386 -1.03971 0)
(2.22571 -1.08297 0)
(2.28401 -1.19641 0)
(2.31968 -1.2767 0)
(1.77783 -1.25954 0)
(1.90541 -1.14537 0)
(2.03735 -1.22205 0)
(2.19741 -1.4016 0)
(2.19202 -1.82786 0)
(2.02875 -2.15749 0)
(2.01432 -2.2712 0)
(2.09632 -2.21987 0)
(2.04708 -2.31089 0)
(2.11989 -2.15384 0)
(2.09846 -2.16719 0)
(2.17772 -1.99996 0)
(2.259 -1.92283 0)
(2.35982 -1.85197 0)
(2.47972 -1.80024 0)
(2.61273 -1.72299 0)
(2.6729 -1.67608 0)
(2.68445 -1.63968 0)
(2.66056 -1.63054 0)
(2.60988 -1.60936 0)
(1.73632 -1.25089 0)
(1.83174 -1.25145 0)
(1.91098 -1.43297 0)
(1.96239 -1.70669 0)
(1.8938 -2.03097 0)
(1.94358 -2.20488 0)
(1.98931 -2.26728 0)
(2.11349 -2.18991 0)
(2.12897 -2.19788 0)
(2.30063 -2.00833 0)
(2.24657 -2.08303 0)
(2.29604 -1.95565 0)
(2.3169 -1.86083 0)
(2.37329 -1.76248 0)
(2.46462 -1.6765 0)
(2.61488 -1.53642 0)
(2.6661 -1.43258 0)
(2.76947 -1.302 0)
(2.83144 -1.21823 0)
(2.80388 -1.26694 0)
(1.55193 -1.23505 0)
(1.60915 -1.35237 0)
(1.66372 -1.65307 0)
(1.67732 -1.97328 0)
(1.66019 -2.19421 0)
(1.61532 -2.26033 0)
(1.86905 -2.13151 0)
(2.09015 -2.02538 0)
(2.27738 -1.87809 0)
(2.42506 -1.85079 0)
(2.44245 -1.79497 0)
(2.5 -1.71217 0)
(2.49419 -1.6868 0)
(2.47169 -1.67063 0)
(2.50067 -1.58227 0)
(2.55818 -1.49696 0)
(2.59148 -1.36759 0)
(2.70145 -1.28541 0)
(2.75901 -1.079 0)
(2.85705 -0.883638 0)
(1.36076 -1.19126 0)
(1.42976 -1.43798 0)
(1.53623 -1.83055 0)
(1.55153 -2.08328 0)
(1.56061 -2.25526 0)
(1.69992 -2.27943 0)
(1.91516 -2.15187 0)
(2.05315 -1.94825 0)
(2.22922 -1.75494 0)
(2.40449 -1.73691 0)
(2.52746 -1.54146 0)
(2.63838 -1.45041 0)
(2.68372 -1.34718 0)
(2.64858 -1.36823 0)
(2.65939 -1.31594 0)
(2.64036 -1.32506 0)
(2.63207 -1.19821 0)
(2.65441 -1.17213 0)
(2.69745 -1.10918 0)
(2.77671 -0.869967 0)
(1.19634 -1.1504 0)
(1.32756 -1.55347 0)
(1.49451 -1.92278 0)
(1.52083 -2.15446 0)
(1.73993 -2.27559 0)
(1.86953 -2.32077 0)
(2.03532 -2.18108 0)
(2.14138 -1.90615 0)
(2.17547 -1.78534 0)
(2.31317 -1.69906 0)
(2.42432 -1.49912 0)
(2.60913 -1.43981 0)
(2.67754 -1.14679 0)
(2.75315 -1.05452 0)
(2.76175 -0.884548 0)
(2.74092 -0.882645 0)
(2.73706 -0.833604 0)
(2.72042 -0.82417 0)
(2.70733 -0.896016 0)
(2.70851 -0.724536 0)
(1.11868 -1.14374 0)
(1.30713 -1.62186 0)
(1.59318 -2.01761 0)
(1.80376 -2.24855 0)
(2.06304 -2.11135 0)
(2.17472 -2.20752 0)
(2.36037 -2.04916 0)
(2.40674 -1.81932 0)
(2.31662 -1.72777 0)
(2.33529 -1.67275 0)
(2.42705 -1.46024 0)
(2.54135 -1.37567 0)
(2.58968 -1.13006 0)
(2.71462 -1.04069 0)
(2.73928 -0.780529 0)
(2.78858 -0.651727 0)
(2.78762 -0.508503 0)
(2.77402 -0.404373 0)
(2.7257 -0.522607 0)
(2.68715 -0.476331 0)
(1.10742 -1.2028 0)
(1.36949 -1.81354 0)
(1.79893 -2.11557 0)
(2.12759 -2.24099 0)
(2.46497 -2.0143 0)
(2.54804 -2.02675 0)
(2.59855 -1.77715 0)
(2.66257 -1.51205 0)
(2.59331 -1.49489 0)
(2.58596 -1.44257 0)
(2.57583 -1.33952 0)
(2.60989 -1.19033 0)
(2.60874 -1.02003 0)
(2.66583 -0.93553 0)
(2.68226 -0.73902 0)
(2.7338 -0.614659 0)
(2.76172 -0.447645 0)
(2.75807 -0.230793 0)
(2.72064 -0.183059 0)
(2.66983 -0.165767 0)
(1.23989 -1.40224 0)
(1.53647 -1.98242 0)
(1.9765 -2.25017 0)
(2.15586 -2.33782 0)
(2.35311 -2.02203 0)
(2.46368 -1.87893 0)
(2.64457 -1.51737 0)
(2.76302 -1.28441 0)
(2.79966 -1.19235 0)
(2.77815 -0.966234 0)
(2.76405 -0.959796 0)
(2.75158 -0.762531 0)
(2.72189 -0.702906 0)
(2.7202 -0.595351 0)
(2.7016 -0.490865 0)
(2.68938 -0.420929 0)
(2.70171 -0.357219 0)
(2.69023 -0.212099 0)
(2.65645 -0.0303383 0)
(2.61889 0.0419517 0)
(1.47763 -1.66895 0)
(1.72463 -2.19014 0)
(1.94652 -2.2089 0)
(1.87632 -2.16796 0)
(2.06847 -1.89995 0)
(2.19462 -1.70692 0)
(2.34355 -1.41821 0)
(2.45419 -1.2875 0)
(2.582 -1.17327 0)
(2.63911 -0.785935 0)
(2.70554 -0.633657 0)
(2.70554 -0.390488 0)
(2.72268 -0.292724 0)
(2.70464 -0.1432 0)
(2.6854 -0.0631738 0)
(2.65765 -0.0352592 0)
(2.63536 -0.0417008 0)
(2.6279 -0.0529124 0)
(2.55845 0.107716 0)
(2.57792 0.104402 0)
(1.53907 -1.77784 0)
(1.68809 -2.18615 0)
(1.77686 -2.1219 0)
(1.76883 -2.02685 0)
(2.00887 -1.80438 0)
(2.17243 -1.54577 0)
(2.28008 -1.30319 0)
(2.34336 -1.20734 0)
(2.4072 -1.04276 0)
(2.47887 -0.833709 0)
(2.57433 -0.643939 0)
(2.60628 -0.389623 0)
(2.64695 -0.205512 0)
(2.63889 -0.00592415 0)
(2.58861 0.195722 0)
(2.55772 0.278637 0)
(2.51666 0.350998 0)
(2.51508 0.257347 0)
(2.4524 0.324949 0)
(2.47538 0.274723 0)
(1.47238 -1.78932 0)
(1.60224 -2.14235 0)
(1.68014 -1.9843 0)
(1.85572 -1.68215 0)
(2.12382 -1.62737 0)
(2.29983 -1.09222 0)
(2.37748 -1.09294 0)
(2.45462 -0.991346 0)
(2.50688 -0.636222 0)
(2.52686 -0.548705 0)
(2.55514 -0.340561 0)
(2.55731 -0.168795 0)
(2.55826 -0.0250892 0)
(2.54666 0.10816 0)
(2.48805 0.285121 0)
(2.47263 0.36923 0)
(2.39248 0.52465 0)
(2.34671 0.562563 0)
(2.30429 0.590157 0)
(2.31915 0.532708 0)
(1.1964 -1.6767 0)
(1.5906 -1.95199 0)
(1.8163 -1.82298 0)
(1.99096 -1.09644 0)
(2.12322 -1.21257 0)
(2.35735 -0.710379 0)
(2.53692 -0.488678 0)
(2.6202 -0.258512 0)
(2.57943 -0.0297062 0)
(2.56546 0.0588474 0)
(2.53139 0.212768 0)
(2.49198 0.328688 0)
(2.45336 0.410076 0)
(2.41186 0.474786 0)
(2.35632 0.535158 0)
(2.32879 0.55568 0)
(2.26762 0.626224 0)
(2.21408 0.703457 0)
(2.15814 0.78433 0)
(2.13301 0.798074 0)
(0.914473 -1.44734 0)
(1.71516 -1.5633 0)
(2.11378 -1.44177 0)
(2.10964 -0.863678 0)
(2.39496 -0.547634 0)
(2.56034 -0.277371 0)
(2.59508 -0.3315 0)
(2.53898 0.0303752 0)
(2.50462 0.112217 0)
(2.47278 0.30171 0)
(2.41195 0.477894 0)
(2.33008 0.634559 0)
(2.27502 0.721752 0)
(2.20593 0.80695 0)
(2.15901 0.831128 0)
(2.11764 0.844616 0)
(2.08082 0.87622 0)
(2.07294 0.880293 0)
(2.03941 0.922152 0)
(2.05876 0.952035 0)
(0.99981 -0.972041 0)
(1.47568 -1.47398 0)
(2.17744 -0.733646 0)
(2.49865 -0.477046 0)
(2.49217 -0.0998262 0)
(2.48049 -0.232348 0)
(2.44856 0.0299475 0)
(2.39651 0.222749 0)
(2.34057 0.368754 0)
(2.31457 0.52539 0)
(2.22016 0.693282 0)
(2.14206 0.818207 0)
(2.08598 0.891601 0)
(2.02534 0.959434 0)
(1.98237 0.979205 0)
(1.94767 1.0015 0)
(1.95252 1.02181 0)
(1.96897 0.997166 0)
(1.99601 0.994894 0)
(2.07284 0.976062 0)
(1.21776 -0.593532 0)
(1.83307 -0.717598 0)
(2.35306 0.2394 0)
(2.30735 -0.122696 0)
(2.33166 0.0140036 0)
(2.36908 0.233193 0)
(2.27735 0.533216 0)
(2.20067 0.688908 0)
(2.13634 0.779712 0)
(2.07882 0.908252 0)
(1.96696 1.01038 0)
(1.91322 1.06054 0)
(1.88768 1.07477 0)
(1.87322 1.08335 0)
(1.87509 1.05436 0)
(1.89704 1.04821 0)
(1.95941 1.023 0)
(2.16067 0.90732 0)
(2.3805 0.795368 0)
(2.78023 0.441434 0)
(1.0002 0.0315812 0)
(1.87185 0.0646051 0)
(2.26838 0.059469 0)
(2.21357 0.514057 0)
(2.2063 0.609344 0)
(2.12583 0.781663 0)
(2.04984 0.896834 0)
(1.96903 0.975256 0)
(1.91105 1.04139 0)
(1.8463 1.12892 0)
(1.78389 1.15903 0)
(1.7864 1.15386 0)
(1.80833 1.13279 0)
(1.8529 1.08754 0)
(2.04414 0.948382 0)
(2.26142 0.826104 0)
(2.6634 0.504411 0)
(3.03557 0.0931098 0)
(3.05532 -0.0236033 0)
(3.00403 -0.00465276 0)
(1.01042 0.0288672 0)
(1.92463 0.771066 0)
(2.10184 0.84134 0)
(1.99397 0.95559 0)
(1.9524 0.981176 0)
(1.87372 1.07628 0)
(1.79648 1.1344 0)
(1.76529 1.14627 0)
(1.76153 1.16317 0)
(1.73696 1.20263 0)
(1.71251 1.19649 0)
(1.8537 1.07233 0)
(2.09097 0.889382 0)
(2.50214 0.580027 0)
(2.98783 0.136633 0)
(3.07357 -0.0292957 0)
(3.00814 -0.0076994 0)
(3.00294 -0.00386064 0)
(3.00123 -0.00220941 0)
(3.00008 -0.000489589 0)
(1.15243 0.777307 0)
(1.82783 1.15233 0)
(1.83919 1.1508 0)
(1.72972 1.19936 0)
(1.70784 1.19089 0)
(1.66692 1.23995 0)
(1.66383 1.21158 0)
(1.73349 1.16563 0)
(1.76865 1.22597 0)
(1.79575 1.13606 0)
(2.26552 0.739191 0)
(2.85373 0.211415 0)
(3.09838 -0.0278232 0)
(3.02131 -0.0126834 0)
(3.00427 -0.0052658 0)
(3.00176 -0.0029087 0)
(3.00006 -0.000572169 0)
(2.99998 -2.3498e-05 0)
(2.99999 1.44371e-05 0)
(3 5.93626e-06 0)
(1.57615 1.25851 0)
(1.58189 1.26613 0)
(1.58547 1.27342 0)
(1.59229 1.2644 0)
(1.60725 1.2457 0)
(1.60278 1.26635 0)
(1.92126 1.1691 0)
(2.99188 0.368447 0)
(3.30962 -0.562857 0)
(3 6.29305e-11 0)
(3 -7.39625e-11 0)
(3 7.8621e-11 0)
(3 2.20996e-15 0)
(3 -4.23738e-13 0)
(3 -1.10955e-14 0)
(3 2.31962e-14 0)
(3 -4.74897e-15 0)
(3 2.04689e-15 0)
(3 1.38448e-15 0)
(3 -1.83925e-15 0)
(1.58362 1.25138 0)
(1.59406 1.25933 0)
(1.59845 1.27604 0)
(1.59886 1.28469 0)
(1.65529 1.26604 0)
(1.72007 1.2385 0)
(2.26715 0.752904 0)
(2.99564 0.0177254 0)
(3 5.4959e-08 0)
(3 -3.27683e-11 0)
(3 -3.52306e-15 0)
(3 -4.77565e-15 0)
(3 3.64159e-17 0)
(3 3.72925e-15 0)
(3 3.06519e-15 0)
(3 4.52451e-15 0)
(3 6.85677e-15 0)
(3 2.51617e-15 0)
(3 1.47672e-15 0)
(3 -2.87087e-16 0)
(1.58819 1.2494 0)
(1.60642 1.25463 0)
(1.61521 1.25991 0)
(1.59995 1.28888 0)
(1.67268 1.23715 0)
(2.18921 0.804077 0)
(2.98675 0.00647536 0)
(3.00055 -0.00102806 0)
(3 6.86524e-07 0)
(3 6.14181e-11 0)
(3 -4.73405e-14 0)
(3 -7.59451e-16 0)
(3 7.5399e-17 0)
(3 1.99523e-15 0)
(3 2.8609e-15 0)
(3 4.15261e-15 0)
(3 5.69965e-15 0)
(3 2.01134e-15 0)
(3 1.25335e-15 0)
(3 3.08208e-17 0)
(1.58658 1.25286 0)
(1.60917 1.25471 0)
(1.62489 1.25275 0)
(1.64218 1.26405 0)
(1.87358 1.07265 0)
(2.75752 0.205502 0)
(3.00517 -0.00251676 0)
(2.9999 9.35429e-05 0)
(3 -8.81642e-07 0)
(3 8.94351e-10 0)
(3 -9.17784e-15 0)
(3 -1.00932e-15 0)
(3 3.48695e-16 0)
(3 2.25191e-15 0)
(3 3.21507e-15 0)
(3 3.35274e-15 0)
(3 4.16491e-15 0)
(3 2.73014e-15 0)
(3 2.36194e-16 0)
(3 -9.72937e-16 0)
(1.58512 1.26358 0)
(1.59505 1.26013 0)
(1.62507 1.25157 0)
(1.73418 1.1992 0)
(2.37811 0.627791 0)
(3.01897 -0.0171948 0)
(2.99976 0.000188583 0)
(3 -4.39032e-06 0)
(3 8.54206e-08 0)
(3 -9.21043e-10 0)
(3 1.7118e-13 0)
(3 -6.24789e-16 0)
(3 6.05458e-16 0)
(3 1.44405e-15 0)
(3 2.61988e-15 0)
(3 2.98905e-15 0)
(3 3.23459e-15 0)
(3 3.75764e-15 0)
(3 -1.31954e-16 0)
(3 -8.69974e-16 0)
(1.58241 1.27492 0)
(1.57861 1.27007 0)
(1.63104 1.26354 0)
(1.75619 1.17669 0)
(2.67734 0.281341 0)
(3 -5.94385e-10 0)
(3 1.4324e-08 0)
(3 -1.29533e-08 0)
(3 5.63063e-10 0)
(3 3.11674e-12 0)
(3 -9.92718e-14 0)
(3 3.74868e-16 0)
(3 -4.66884e-16 0)
(3 5.91958e-16 0)
(3 1.85846e-15 0)
(3 3.24525e-15 0)
(3 2.87365e-15 0)
(3 3.29932e-15 0)
(3 9.30331e-16 0)
(3 -7.72991e-16 0)
(1.57914 1.29549 0)
(1.56036 1.29429 0)
(1.67539 1.24135 0)
(2.16945 0.839113 0)
(3.01726 -0.0179791 0)
(3 -9.09017e-12 0)
(3 -1.39922e-11 0)
(3 2.45082e-11 0)
(3 -3.3129e-12 0)
(3 -9.26338e-17 0)
(3 7.48911e-17 0)
(3 -5.38558e-16 0)
(3 -5.09893e-16 0)
(3 6.34114e-16 0)
(3 1.23474e-15 0)
(3 2.24859e-15 0)
(3 1.48766e-15 0)
(3 4.11955e-17 0)
(3 2.19994e-15 0)
(3 7.035e-17 0)
(1.58856 1.32281 0)
(1.50007 1.33033 0)
(1.78365 1.1785 0)
(2.44217 0.536938 0)
(3 -4.0139e-06 0)
(3 -3.36713e-12 0)
(3 9.82703e-14 0)
(3 -1.0091e-13 0)
(3 1.87499e-14 0)
(3 -9.51815e-16 0)
(3 -6.79244e-16 0)
(3 -1.89676e-16 0)
(3 -1.38681e-16 0)
(3 8.60759e-16 0)
(3 1.549e-15 0)
(3 1.73246e-15 0)
(3 9.7174e-16 0)
(3 -1.66602e-15 0)
(3 -1.27757e-15 0)
(3 -5.77443e-16 0)
(1.5906 1.3085 0)
(1.46628 1.36528 0)
(1.91056 1.05092 0)
(2.8444 0.133373 0)
(3 -2.29956e-08 0)
(3 5.00498e-12 0)
(3 -5.93228e-14 0)
(3 9.79781e-16 0)
(3 -2.43658e-16 0)
(3 -2.74665e-16 0)
(3 -9.80424e-16 0)
(3 -6.46185e-16 0)
(3 3.18439e-16 0)
(3 1.63564e-15 0)
(3 2.36229e-15 0)
(3 2.06043e-15 0)
(3 1.05078e-15 0)
(3 -6.59385e-16 0)
(3 -1.97411e-15 0)
(3 -1.77046e-15 0)
(1.6048 1.29417 0)
(1.47886 1.37583 0)
(2.18104 0.810338 0)
(3.0108 -0.00916582 0)
(3 3.06506e-08 0)
(3 -8.42528e-13 0)
(3 2.22419e-14 0)
(3 6.72548e-16 0)
(3 1.28581e-15 0)
(3 4.65668e-16 0)
(3 -4.21859e-16 0)
(3 -4.10785e-16 0)
(3 -9.1333e-17 0)
(3 1.19087e-15 0)
(3 2.66878e-15 0)
(3 2.40658e-15 0)
(3 2.81604e-15 0)
(3 2.9426e-15 0)
(3 3.40364e-16 0)
(3 -6.8338e-16 0)
(1.62182 1.27909 0)
(1.57304 1.31346 0)
(2.41763 0.537005 0)
(3 -3.17207e-12 0)
(3 -2.68756e-11 0)
(3 4.78653e-14 0)
(3 -4.93012e-16 0)
(3 9.39075e-16 0)
(3 1.20372e-15 0)
(3 8.00775e-16 0)
(3 3.31067e-16 0)
(3 1.39639e-16 0)
(3 4.12037e-16 0)
(3 2.70765e-16 0)
(3 1.05962e-15 0)
(3 1.94026e-15 0)
(3 3.17944e-15 0)
(3 3.51034e-15 0)
(3 2.56558e-15 0)
(3 1.45459e-15 0)
(1.63912 1.26003 0)
(1.62618 1.24923 0)
(2.65288 0.28886 0)
(3 4.60877e-13 0)
(3 -4.05678e-14 0)
(3 -8.45213e-16 0)
(3 -6.30523e-16 0)
(3 -4.17638e-16 0)
(3 3.95715e-16 0)
(3 2.00408e-16 0)
(3 -1.52485e-16 0)
(3 -5.29782e-16 0)
(3 -1.27179e-16 0)
(3 -4.06741e-16 0)
(3 -5.00532e-16 0)
(3 6.1652e-17 0)
(3 1.9517e-15 0)
(3 2.91658e-15 0)
(3 3.24267e-15 0)
(3 3.29496e-15 0)
(1.65672 1.2389 0)
(1.83344 1.10183 0)
(2.87662 0.0933414 0)
(3 -3.58853e-13 0)
(3 -1.24531e-15 0)
(3 -2.10108e-15 0)
(3 -2.05721e-15 0)
(3 -1.78979e-15 0)
(3 -1.47336e-15 0)
(3 -1.30262e-15 0)
(3 -7.45722e-16 0)
(3 -3.01053e-16 0)
(3 -4.27574e-16 0)
(3 -3.07247e-16 0)
(3 -7.66618e-17 0)
(3 1.22569e-15 0)
(3 2.08813e-15 0)
(3 2.5816e-15 0)
(3 3.56558e-15 0)
(3 4.41806e-15 0)
(1.67063 1.19852 0)
(1.88778 0.984404 0)
(2.98804 0.00992454 0)
(3 -3.20238e-15 0)
(3 -3.98868e-15 0)
(3 -4.68357e-15 0)
(3 -4.57753e-15 0)
(3 -3.343e-15 0)
(3 -2.63487e-15 0)
(3 -2.52394e-15 0)
(3 -2.51369e-15 0)
(3 -1.89814e-15 0)
(3 -1.07996e-15 0)
(3 -1.20037e-15 0)
(3 -1.12914e-15 0)
(3 -5.08518e-16 0)
(3 -1.88344e-16 0)
(3 4.50573e-16 0)
(3 1.84454e-15 0)
(3 3.17398e-15 0)
(1.69214 1.17371 0)
(2.04001 0.827346 0)
(3 -5.53251e-15 0)
(3 -5.74662e-15 0)
(3 -5.07809e-15 0)
(3 -4.804e-15 0)
(3 -4.83414e-15 0)
(3 -3.44528e-15 0)
(3 -3.24063e-15 0)
(3 -2.50092e-15 0)
(3 -2.15492e-15 0)
(3 -1.87564e-15 0)
(3 -1.15777e-15 0)
(3 -5.20126e-16 0)
(3 -3.25405e-16 0)
(3 -5.46959e-16 0)
(3 -3.08296e-16 0)
(3 3.17035e-16 0)
(3 8.32901e-16 0)
(3 1.82645e-15 0)
(1.77642 1.10691 0)
(2.23651 0.647419 0)
(3 -5.28419e-15 0)
(3 -4.70471e-15 0)
(3 -3.31811e-15 0)
(3 -2.84171e-15 0)
(3 -2.52472e-15 0)
(3 -1.80205e-15 0)
(3 -1.21268e-15 0)
(3 -1.51301e-15 0)
(3 -2.08566e-15 0)
(3 -2.48933e-15 0)
(3 -2.63473e-15 0)
(3 -2.40318e-15 0)
(3 -1.56246e-15 0)
(3 -1.39263e-15 0)
(3 -1.73996e-15 0)
(3 -1.77087e-15 0)
(3 -2.15663e-15 0)
(3 -2.59798e-15 0)
(1.8383 1.00302 0)
(2.46851 0.432424 0)
(3 -4.05629e-15 0)
(3 -3.69666e-15 0)
(3 -4.32915e-15 0)
(3 -4.33503e-15 0)
(3 -4.29415e-15 0)
(3 -4.33528e-15 0)
(3 -5.10272e-15 0)
(3 -5.37889e-15 0)
(3 -4.27423e-15 0)
(3 -2.91201e-15 0)
(3 -3.37214e-15 0)
(3 -3.02919e-15 0)
(3 -3.24408e-15 0)
(3 -2.75666e-15 0)
(3 -2.81367e-15 0)
(3 -2.3304e-15 0)
(3 -1.65868e-15 0)
(3 -1.49399e-15 0)
(1.92648 0.869067 0)
(2.71056 0.207474 0)
(3 7.3522e-16 0)
(3 4.47038e-16 0)
(3 -2.67901e-16 0)
(3 -1.15066e-15 0)
(3 -7.32092e-16 0)
(3 -5.45503e-16 0)
(3 -1.05259e-15 0)
(3 -1.78549e-15 0)
(3 -2.00898e-15 0)
(3 -1.97238e-15 0)
(3 -8.50597e-16 0)
(3 4.22267e-16 0)
(3 1.21409e-15 0)
(3 1.65579e-15 0)
(3 1.92861e-15 0)
(3 1.733e-15 0)
(3 2.25882e-15 0)
(3 2.33082e-15 0)
(2.09224 0.664286 0)
(2.99089 1.051e-05 0)
(3 -4.01805e-16 0)
(3 -5.95734e-16 0)
(3 -9.17771e-16 0)
(3 -1.34754e-15 0)
(3 -1.18042e-15 0)
(3 -6.51673e-16 0)
(3 -2.72548e-16 0)
(3 -3.44848e-16 0)
(3 -5.55406e-16 0)
(3 -8.00103e-16 0)
(3 -1.3404e-15 0)
(3 -1.42787e-15 0)
(3 -1.7456e-15 0)
(3 -1.80418e-15 0)
(3 -1.62322e-15 0)
(3 -1.55047e-15 0)
(3 -1.47087e-15 0)
(3 -9.71104e-16 0)
(1.99209 0.372418 0)
(2.99988 -1.01715e-05 0)
(3 5.13622e-16 0)
(3 -2.13499e-16 0)
(3 -2.09207e-16 0)
(3 -7.04642e-16 0)
(3 -8.25385e-16 0)
(3 -6.94638e-16 0)
(3 -5.98179e-16 0)
(3 -7.65742e-16 0)
(3 -1.04246e-15 0)
(3 -1.30817e-15 0)
(3 -1.29845e-15 0)
(3 -1.314e-15 0)
(3 -1.6629e-15 0)
(3 -1.78564e-15 0)
(3 -1.76695e-15 0)
(3 -1.80822e-15 0)
(3 -1.95059e-15 0)
(3 -2.26224e-15 0)
(1.99267 -0.372351 0)
(2.99989 7.38848e-06 0)
(3 -3.47527e-17 0)
(3 3.85188e-16 0)
(3 3.37782e-16 0)
(3 5.49107e-16 0)
(3 4.00622e-16 0)
(3 1.69677e-16 0)
(3 1.47429e-16 0)
(3 1.77169e-16 0)
(3 -5.64241e-16 0)
(3 -1.13619e-15 0)
(3 -1.23913e-15 0)
(3 -1.07297e-15 0)
(3 -7.68673e-16 0)
(3 -6.91715e-16 0)
(3 -8.25432e-16 0)
(3 -7.54138e-16 0)
(3 -7.2618e-16 0)
(3 -8.65343e-16 0)
(2.09593 -0.664519 0)
(2.99049 -3.19742e-05 0)
(3 -3.46645e-16 0)
(3 -3.57562e-16 0)
(3 1.45439e-16 0)
(3 1.35542e-16 0)
(3 6.99043e-17 0)
(3 1.01888e-16 0)
(3 5.0595e-17 0)
(3 -4.17477e-16 0)
(3 -1.00648e-15 0)
(3 -1.17162e-15 0)
(3 -1.53377e-15 0)
(3 -1.9501e-15 0)
(3 -2.02304e-15 0)
(3 -2.34655e-15 0)
(3 -2.57281e-15 0)
(3 -2.63912e-15 0)
(3 -2.84719e-15 0)
(3 -3.27223e-15 0)
(1.9255 -0.872093 0)
(2.70543 -0.211421 0)
(3 6.88479e-16 0)
(3 4.64214e-17 0)
(3 -1.48462e-17 0)
(3 -4.68274e-16 0)
(3 -1.19492e-15 0)
(3 -1.50579e-15 0)
(3 -2.16776e-15 0)
(3 -2.65194e-15 0)
(3 -3.0476e-15 0)
(3 -3.71318e-15 0)
(3 -4.275e-15 0)
(3 -4.81048e-15 0)
(3 -4.85175e-15 0)
(3 -4.36209e-15 0)
(3 -3.82059e-15 0)
(3 -4.36411e-15 0)
(3 -5.08847e-15 0)
(3 -5.76612e-15 0)
(1.83038 -1.00223 0)
(2.46439 -0.433788 0)
(3 -9.32258e-16 0)
(3 -7.02666e-16 0)
(3 -1.176e-15 0)
(3 -1.61392e-15 0)
(3 -2.31982e-15 0)
(3 -3.33475e-15 0)
(3 -4.04081e-15 0)
(3 -4.55143e-15 0)
(3 -6.04353e-15 0)
(3 -6.52868e-15 0)
(3 -6.79016e-15 0)
(3 -6.4863e-15 0)
(3 -6.07206e-15 0)
(3 -5.44795e-15 0)
(3 -5.92766e-15 0)
(3 -6.02056e-15 0)
(3 -5.54962e-15 0)
(3 -4.58967e-15 0)
(1.77994 -1.1064 0)
(2.23934 -0.647284 0)
(3 -5.48069e-16 0)
(3 -1.92656e-16 0)
(3 4.98738e-18 0)
(3 5.39264e-16 0)
(3 -2.6106e-18 0)
(3 -2.91034e-16 0)
(3 -8.11355e-16 0)
(3 -2.0632e-15 0)
(3 -3.27027e-15 0)
(3 -3.4976e-15 0)
(3 -3.11755e-15 0)
(3 -1.582e-15 0)
(3 -7.67755e-16 0)
(3 -1.04264e-15 0)
(3 -1.27811e-15 0)
(3 -1.1225e-15 0)
(3 -1.12219e-17 0)
(3 2.87828e-16 0)
(1.69695 -1.17124 0)
(2.04639 -0.823198 0)
(3 -5.05499e-16 0)
(3 -4.42094e-16 0)
(3 -1.69169e-16 0)
(3 -5.94926e-16 0)
(3 -4.17427e-16 0)
(3 -5.90897e-16 0)
(3 -1.99659e-15 0)
(3 -2.78314e-15 0)
(3 -3.51419e-15 0)
(3 -3.46277e-15 0)
(3 -2.94548e-15 0)
(3 -2.05346e-15 0)
(3 -1.82314e-15 0)
(3 -1.71154e-15 0)
(3 -1.41525e-15 0)
(3 -7.1661e-16 0)
(3 -7.54423e-16 0)
(3 -1.28181e-15 0)
(1.66821 -1.2011 0)
(1.88292 -0.98569 0)
(2.98286 -0.0132469 0)
(3 -7.84284e-16 0)
(3 -8.96487e-16 0)
(3 -1.00068e-15 0)
(3 -1.26214e-15 0)
(3 -3.09719e-15 0)
(3 -4.68286e-15 0)
(3 -5.00783e-15 0)
(3 -4.60483e-15 0)
(3 -2.96634e-15 0)
(3 -1.9959e-15 0)
(3 -1.29957e-15 0)
(3 -6.58644e-16 0)
(3 -2.19914e-16 0)
(3 -1.99797e-16 0)
(3 -1.45395e-16 0)
(3 -4.21025e-16 0)
(3 -1.03663e-15 0)
(1.65591 -1.23973 0)
(1.83243 -1.1039 0)
(2.8742 -0.0966343 0)
(3 9.80391e-14 0)
(3 -2.12192e-15 0)
(3 -1.67846e-15 0)
(3 -2.09025e-15 0)
(3 -4.36813e-15 0)
(3 -3.90948e-15 0)
(3 -3.72772e-15 0)
(3 -2.73352e-15 0)
(3 -1.26475e-15 0)
(3 4.25374e-16 0)
(3 6.04202e-16 0)
(3 6.74539e-16 0)
(3 2.3601e-16 0)
(3 2.8275e-16 0)
(3 2.76875e-16 0)
(3 -7.7738e-16 0)
(3 -1.58762e-15 0)
(1.63906 -1.26008 0)
(1.62827 -1.24879 0)
(2.65335 -0.289488 0)
(3 -4.58063e-13 0)
(3 9.27517e-15 0)
(3 -2.90957e-15 0)
(3 -3.19929e-15 0)
(3 -4.00554e-15 0)
(3 -3.55608e-15 0)
(3 -3.24093e-15 0)
(3 -2.26152e-15 0)
(3 -3.64178e-16 0)
(3 1.5784e-15 0)
(3 1.06768e-15 0)
(3 8.15674e-16 0)
(3 -3.47097e-16 0)
(3 -1.54727e-15 0)
(3 -1.93169e-15 0)
(3 -2.16266e-15 0)
(3 -2.27476e-15 0)
(1.62139 -1.27861 0)
(1.5691 -1.31657 0)
(2.41383 -0.541837 0)
(3 3.22737e-12 0)
(3 3.56711e-11 0)
(3 -6.53883e-14 0)
(3 -2.13955e-15 0)
(3 -2.85236e-15 0)
(3 -1.81541e-15 0)
(3 -1.21092e-15 0)
(3 -3.74882e-16 0)
(3 9.06925e-16 0)
(3 1.50328e-15 0)
(3 -1.97716e-16 0)
(3 -1.49596e-15 0)
(3 -1.68073e-15 0)
(3 -1.815e-15 0)
(3 -2.07243e-15 0)
(3 -1.45436e-15 0)
(3 -4.96428e-16 0)
(1.60443 -1.2931 0)
(1.47916 -1.37283 0)
(2.18877 -0.805488 0)
(3.01066 0.00905443 0)
(3 -3.61379e-08 0)
(3 3.728e-12 0)
(3 7.86988e-15 0)
(3 -1.99104e-15 0)
(3 -6.33378e-16 0)
(3 5.68515e-16 0)
(3 8.95651e-16 0)
(3 6.76629e-17 0)
(3 2.78665e-16 0)
(3 -1.09041e-16 0)
(3 -1.6637e-15 0)
(3 -1.59331e-15 0)
(3 -6.17751e-16 0)
(3 -2.09757e-16 0)
(3 7.09322e-16 0)
(3 2.41061e-15 0)
(1.59017 -1.30836 0)
(1.46754 -1.36663 0)
(1.91354 -1.04973 0)
(2.84518 -0.131671 0)
(3 2.15566e-08 0)
(3 -9.50744e-12 0)
(3 4.83061e-15 0)
(3 -7.54834e-16 0)
(3 9.55905e-18 0)
(3 1.58762e-16 0)
(3 3.32333e-16 0)
(3 -1.20155e-15 0)
(3 1.04055e-16 0)
(3 8.18054e-17 0)
(3 -7.56153e-16 0)
(3 -3.58875e-16 0)
(3 3.99307e-16 0)
(3 1.6938e-15 0)
(3 2.60062e-15 0)
(3 2.91029e-15 0)
(1.58997 -1.32393 0)
(1.49579 -1.33188 0)
(1.77209 -1.17891 0)
(2.43379 -0.54019 0)
(3 2.25821e-06 0)
(3 4.87568e-13 0)
(3 4.36691e-15 0)
(3 -9.25525e-15 0)
(3 -5.69888e-15 0)
(3 1.33447e-15 0)
(3 8.35574e-16 0)
(3 1.32586e-16 0)
(3 8.18175e-16 0)
(3 7.65709e-18 0)
(3 6.94652e-17 0)
(3 3.87805e-16 0)
(3 1.61333e-15 0)
(3 3.09727e-15 0)
(3 2.26281e-15 0)
(3 3.26578e-15 0)
(1.5793 -1.29645 0)
(1.56167 -1.29717 0)
(1.67738 -1.24211 0)
(2.1895 -0.831 0)
(3.02125 0.0219948 0)
(3 6.4857e-12 0)
(3 -1.69679e-12 0)
(3 -9.39908e-12 0)
(3 2.39697e-12 0)
(3 -5.15607e-15 0)
(3 6.01678e-16 0)
(3 1.02124e-15 0)
(3 8.26898e-16 0)
(3 8.05928e-16 0)
(3 1.56372e-15 0)
(3 1.83167e-15 0)
(3 1.61556e-15 0)
(3 3.3948e-15 0)
(3 2.25552e-15 0)
(3 3.35058e-15 0)
(1.58207 -1.27509 0)
(1.57877 -1.27314 0)
(1.63875 -1.26171 0)
(1.75009 -1.18137 0)
(2.66866 -0.287098 0)
(3 6.03188e-10 0)
(3 -1.43424e-08 0)
(3 1.29478e-08 0)
(3 -5.60491e-10 0)
(3 -3.01079e-12 0)
(3 1.31366e-13 0)
(3 -9.51138e-16 0)
(3 1.57599e-15 0)
(3 2.11084e-15 0)
(3 2.06641e-15 0)
(3 1.52461e-15 0)
(3 2.34286e-15 0)
(3 2.07239e-15 0)
(3 2.07551e-15 0)
(3 3.42218e-15 0)
(1.5844 -1.26295 0)
(1.59405 -1.25949 0)
(1.62678 -1.25541 0)
(1.72089 -1.20587 0)
(2.3704 -0.630745 0)
(3.01908 0.0172387 0)
(2.99976 -0.000183625 0)
(3 4.37953e-06 0)
(3 -8.50538e-08 0)
(3 9.2537e-10 0)
(3 -1.77089e-12 0)
(3 4.06649e-15 0)
(3 2.11212e-15 0)
(3 3.56599e-15 0)
(3 2.54338e-15 0)
(3 2.09141e-15 0)
(3 1.28825e-15 0)
(3 1.12796e-15 0)
(3 2.62575e-15 0)
(3 2.72437e-15 0)
(1.58559 -1.2529 0)
(1.60688 -1.25417 0)
(1.62311 -1.25215 0)
(1.64458 -1.26008 0)
(1.88656 -1.06602 0)
(2.76268 -0.203374 0)
(3.005 0.00222624 0)
(2.9999 -9.0706e-05 0)
(3 9.04374e-07 0)
(3 -9.03895e-10 0)
(3 -8.65485e-14 0)
(3 5.22692e-15 0)
(3 2.30928e-15 0)
(3 3.75731e-15 0)
(3 3.77365e-15 0)
(3 2.47735e-15 0)
(3 2.25872e-16 0)
(3 1.37867e-15 0)
(3 1.97648e-15 0)
(3 2.13738e-15 0)
(1.58713 -1.24869 0)
(1.60588 -1.25469 0)
(1.61594 -1.25841 0)
(1.6052 -1.28564 0)
(1.67119 -1.23621 0)
(2.20461 -0.792778 0)
(2.99128 -0.00232799 0)
(3.0005 0.000964348 0)
(3 -7.16869e-07 0)
(3 -6.10076e-11 0)
(3 3.72925e-14 0)
(3 -1.24666e-16 0)
(3 3.31568e-15 0)
(3 1.86114e-15 0)
(3 2.6924e-15 0)
(3 1.7922e-15 0)
(3 1.26965e-15 0)
(3 1.39835e-15 0)
(3 1.34173e-15 0)
(3 1.45913e-15 0)
(1.58475 -1.25052 0)
(1.595 -1.25855 0)
(1.60108 -1.27272 0)
(1.60312 -1.28363 0)
(1.65182 -1.26823 0)
(1.71412 -1.23724 0)
(2.25589 -0.75725 0)
(2.99374 -0.019688 0)
(3 -5.33516e-08 0)
(3 3.43539e-11 0)
(3 2.92407e-13 0)
(3 3.45574e-14 0)
(3 1.63231e-15 0)
(3 7.86848e-16 0)
(3 1.87095e-15 0)
(3 1.40533e-15 0)
(3 -5.80954e-17 0)
(3 1.21816e-15 0)
(3 2.07841e-15 0)
(3 1.23244e-15 0)
(1.57734 -1.25846 0)
(1.58253 -1.2658 0)
(1.58717 -1.27268 0)
(1.59387 -1.26515 0)
(1.60568 -1.24809 0)
(1.59912 -1.26768 0)
(1.91592 -1.17314 0)
(2.98398 -0.379125 0)
(3.31251 0.569877 0)
(3 -6.29718e-11 0)
(3 7.63359e-11 0)
(3 -7.98329e-11 0)
(3 6.4143e-16 0)
(3 4.35242e-13 0)
(3 1.64727e-14 0)
(3 -1.65408e-14 0)
(3 1.15745e-14 0)
(3 2.49512e-15 0)
(3 3.33089e-15 0)
(3 4.86356e-15 0)
(1.16201 -0.760132 0)
(1.82145 -1.16136 0)
(1.84349 -1.14913 0)
(1.7312 -1.20092 0)
(1.70394 -1.19376 0)
(1.66394 -1.24068 0)
(1.66251 -1.21202 0)
(1.73361 -1.16589 0)
(1.77062 -1.22684 0)
(1.8004 -1.13498 0)
(2.27037 -0.734789 0)
(2.85658 -0.208149 0)
(3.09912 0.028924 0)
(3.02146 0.012774 0)
(3.00429 0.00535523 0)
(3.00174 0.00291067 0)
(3.00006 0.000564878 0)
(2.99998 2.27655e-05 0)
(2.99999 -1.44121e-05 0)
(3 -5.92541e-06 0)
(1.01931 -0.015024 0)
(1.91713 -0.782751 0)
(2.09825 -0.84561 0)
(1.99416 -0.95173 0)
(1.96742 -0.965552 0)
(1.86217 -1.08211 0)
(1.79133 -1.13644 0)
(1.76577 -1.14567 0)
(1.76321 -1.16256 0)
(1.74024 -1.20195 0)
(1.71568 -1.19582 0)
(1.85287 -1.07163 0)
(2.08834 -0.888846 0)
(2.499 -0.581368 0)
(2.98639 -0.138243 0)
(3.07375 0.0290008 0)
(3.00818 0.00769716 0)
(3.00294 0.00385445 0)
(3.00123 0.00220618 0)
(3.00008 0.000490202 0)
(1.02437 -0.044871 0)
(1.88492 -0.00138486 0)
(2.26909 -0.122644 0)
(2.22375 -0.536225 0)
(2.19301 -0.662299 0)
(2.13389 -0.773338 0)
(2.04941 -0.890592 0)
(1.96582 -0.97701 0)
(1.91093 -1.04129 0)
(1.84633 -1.13017 0)
(1.78578 -1.16062 0)
(1.78799 -1.15322 0)
(1.80793 -1.13252 0)
(1.85189 -1.08806 0)
(2.04412 -0.948786 0)
(2.26178 -0.826372 0)
(2.66314 -0.504717 0)
(3.03543 -0.0933339 0)
(3.05537 0.0235472 0)
(3.00402 0.00464624 0)
(1.16013 0.591367 0)
(1.72142 0.668493 0)
(2.24256 -0.0645446 0)
(2.27552 0.119058 0)
(2.32374 0.0449095 0)
(2.36111 -0.247734 0)
(2.27182 -0.550333 0)
(2.2033 -0.685323 0)
(2.13764 -0.774615 0)
(2.08199 -0.905381 0)
(1.97024 -1.00879 0)
(1.91444 -1.06013 0)
(1.88622 -1.07592 0)
(1.872 -1.08421 0)
(1.87511 -1.05417 0)
(1.8977 -1.0477 0)
(1.95994 -1.02252 0)
(2.1607 -0.907296 0)
(2.38035 -0.795622 0)
(2.78038 -0.441427 0)
(1.02671 0.963117 0)
(1.4361 1.51506 0)
(2.25954 0.759318 0)
(2.44294 0.634777 0)
(2.48963 0.170742 0)
(2.46143 0.223572 0)
(2.44196 0.00073324 0)
(2.39506 -0.218293 0)
(2.3427 -0.366742 0)
(2.3154 -0.528224 0)
(2.22232 -0.696239 0)
(2.14161 -0.821451 0)
(2.0831 -0.895422 0)
(2.02294 -0.962128 0)
(1.98234 -0.979082 0)
(1.94908 -0.999883 0)
(1.95256 -1.02124 0)
(1.96893 -0.997114 0)
(1.99593 -0.995161 0)
(2.07289 -0.976422 0)
(0.976955 1.44075 0)
(1.64991 1.60703 0)
(1.89206 1.63801 0)
(2.17389 0.981261 0)
(2.4698 0.489149 0)
(2.54384 0.417217 0)
(2.58717 0.283812 0)
(2.5389 -0.0424635 0)
(2.50453 -0.126251 0)
(2.47151 -0.308868 0)
(2.41384 -0.479622 0)
(2.32901 -0.637668 0)
(2.273 -0.723977 0)
(2.20446 -0.808113 0)
(2.1597 -0.829045 0)
(2.11912 -0.841476 0)
(2.08015 -0.875519 0)
(2.0722 -0.880199 0)
(2.03912 -0.922542 0)
(2.05907 -0.952367 0)
(1.24535 1.73863 0)
(1.65902 1.94835 0)
(1.90213 1.81483 0)
(2.07654 1.13878 0)
(2.19867 1.17334 0)
(2.36779 0.736265 0)
(2.52519 0.465467 0)
(2.61714 0.282461 0)
(2.5795 0.0439989 0)
(2.56687 -0.0459334 0)
(2.53407 -0.202393 0)
(2.49282 -0.323319 0)
(2.45266 -0.407479 0)
(2.41121 -0.473025 0)
(2.3571 -0.531577 0)
(2.32808 -0.554505 0)
(2.26693 -0.624978 0)
(2.21369 -0.702692 0)
(2.15799 -0.784946 0)
(2.13322 -0.799107 0)
(1.483 1.91764 0)
(1.59281 2.23901 0)
(1.7209 1.96684 0)
(1.8858 1.6423 0)
(2.11396 1.65668 0)
(2.28612 1.10829 0)
(2.34312 1.16153 0)
(2.44695 0.987661 0)
(2.50476 0.662801 0)
(2.529 0.552421 0)
(2.55813 0.346795 0)
(2.55857 0.169491 0)
(2.55769 0.0219414 0)
(2.5473 -0.110851 0)
(2.48884 -0.287662 0)
(2.47261 -0.370821 0)
(2.39206 -0.524857 0)
(2.34599 -0.563399 0)
(2.30398 -0.59196 0)
(2.31922 -0.533813 0)
(1.58377 1.95959 0)
(1.65788 2.36166 0)
(1.70536 2.09261 0)
(1.77773 1.96051 0)
(1.98852 1.78822 0)
(2.145 1.50642 0)
(2.24597 1.37314 0)
(2.35537 1.19584 0)
(2.41768 1.04104 0)
(2.48934 0.838113 0)
(2.5829 0.639439 0)
(2.61272 0.382516 0)
(2.64903 0.193222 0)
(2.64233 -0.00140216 0)
(2.59121 -0.200751 0)
(2.55933 -0.279589 0)
(2.51673 -0.351895 0)
(2.51369 -0.258893 0)
(2.45259 -0.323714 0)
(2.47644 -0.272248 0)
(1.56605 1.92366 0)
(1.75349 2.44537 0)
(1.88043 2.22911 0)
(1.88088 2.11306 0)
(2.04265 1.88266 0)
(2.15605 1.68867 0)
(2.35341 1.45397 0)
(2.49192 1.26942 0)
(2.60516 1.16931 0)
(2.65787 0.803278 0)
(2.71544 0.621931 0)
(2.71118 0.379121 0)
(2.72549 0.285501 0)
(2.70983 0.143419 0)
(2.69023 0.0663654 0)
(2.6598 0.0403322 0)
(2.63465 0.0436008 0)
(2.62686 0.0558843 0)
(2.5583 -0.105566 0)
(2.57821 -0.103549 0)
(1.41812 1.74176 0)
(1.71965 2.31721 0)
(1.98648 2.29279 0)
(2.20548 2.31723 0)
(2.35465 1.97839 0)
(2.42223 1.82246 0)
(2.58956 1.48424 0)
(2.71767 1.29373 0)
(2.7626 1.21387 0)
(2.76903 0.978112 0)
(2.76389 0.975309 0)
(2.75445 0.764321 0)
(2.72537 0.711535 0)
(2.72386 0.604549 0)
(2.70347 0.497592 0)
(2.6888 0.424555 0)
(2.69974 0.357414 0)
(2.69061 0.214969 0)
(2.65686 0.0279568 0)
(2.61858 -0.0481784 0)
(1.22095 1.44582 0)
(1.5202 2.05127 0)
(1.85931 2.25099 0)
(2.07213 2.24438 0)
(2.3775 2.03156 0)
(2.50556 2.01295 0)
(2.46191 1.65696 0)
(2.48866 1.5131 0)
(2.5435 1.50037 0)
(2.56045 1.45214 0)
(2.56507 1.35944 0)
(2.60918 1.19916 0)
(2.61179 1.0303 0)
(2.67052 0.940553 0)
(2.68584 0.742717 0)
(2.73461 0.610536 0)
(2.7623 0.442603 0)
(2.75951 0.227623 0)
(2.72182 0.178728 0)
(2.67409 0.161468 0)
(1.18143 1.265 0)
(1.38953 1.84535 0)
(1.64269 2.12939 0)
(1.82782 2.23065 0)
(2.05257 2.19404 0)
(2.12519 2.1823 0)
(2.23821 1.9152 0)
(2.27292 1.80893 0)
(2.28327 1.73169 0)
(2.3228 1.66728 0)
(2.4277 1.46422 0)
(2.55274 1.37532 0)
(2.60081 1.12873 0)
(2.72462 1.03525 0)
(2.74588 0.775132 0)
(2.78989 0.642846 0)
(2.78878 0.510207 0)
(2.7775 0.403404 0)
(2.72947 0.525611 0)
(2.69199 0.476409 0)
(1.23431 1.19472 0)
(1.38576 1.63139 0)
(1.50102 2.03276 0)
(1.55318 2.24326 0)
(1.73904 2.24041 0)
(1.85792 2.18664 0)
(1.97599 2.1025 0)
(2.09233 1.87141 0)
(2.1572 1.771 0)
(2.32461 1.67934 0)
(2.44538 1.48306 0)