/*--------------------------------*- C++ -*----------------------------------*\
  =========                 |
  \\      /  F ield         | OpenFOAM: The Open Source CFD Toolbox
   \\    /   O peration     | Website:  https://openfoam.org
    \\  /    A nd           | Version:  7
     \\/     M anipulation  |
\*---------------------------------------------------------------------------*/
FoamFile
{
    version     2.0;
    format      ascii;
    class       volScalarField;
    location    "4";
    object      p;
}
// * * * * * * * * * * * * * * * * * * * * * * * * * * * * * * * * * * * * * //

dimensions      [1 -1 -2 0 0 0 0];

internalField   nonuniform List<scalar> 
3700
(
0.168565
0.241793
0.282398
0.312948
0.332605
0.329363
0.334964
0.358244
0.389988
0.430527
0.460434
0.465337
0.478219
0.488869
0.493053
0.507685
0.508235
0.501226
0.516302
0.524434
0.124817
0.10702
0.11428
0.117532
0.120621
0.109748
0.111673
0.1267
0.152412
0.17805
0.177645
0.160164
0.148525
0.158516
0.180188
0.198657
0.200614
0.20072
0.210983
0.207971
0.131149
0.101036
0.0837006
0.0666668
0.0581327
0.0576265
0.0605562
0.066237
0.0700457
0.074949
0.0696348
0.0700638
0.0716036
0.0780622
0.0884422
0.100629
0.112514
0.121521
0.128686
0.130652
0.130503
0.0930916
0.0674604
0.0494939
0.0477797
0.0499481
0.05906
0.0735213
0.0872564
0.102849
0.10715
0.10908
0.109198
0.109211
0.111243
0.120413
0.133031
0.149068
0.16719
0.188888
0.125267
0.0843499
0.0568986
0.0422238
0.0413658
0.04559
0.0551931
0.0722869
0.0895745
0.107923
0.130178
0.142532
0.152174
0.154594
0.154244
0.150235
0.151526
0.16379
0.189074
0.233326
0.119393
0.0793182
0.0514217
0.0404915
0.0399157
0.0451909
0.0545394
0.0697713
0.0857817
0.104935
0.134802
0.156255
0.180533
0.200368
0.21636
0.220631
0.222316
0.226643
0.23626
0.280595
0.109286
0.0740559
0.0455286
0.041046
0.0417697
0.0518763
0.0659659
0.0782797
0.0900237
0.105512
0.130325
0.156812
0.194246
0.227597
0.256503
0.286441
0.308901
0.331623
0.341842
0.38408
0.0839697
0.0599719
0.0404679
0.0435538
0.0524612
0.0725932
0.098522
0.11604
0.126955
0.141815
0.149177
0.16416
0.200805
0.245224
0.288535
0.338141
0.387539
0.43768
0.472104
0.54363
0.0613996
0.0443994
0.0347659
0.0434546
0.0576041
0.0819082
0.119948
0.151205
0.182142
0.211374
0.228956
0.253182
0.274719
0.308808
0.347273
0.400203
0.468966
0.551635
0.618738
0.750808
0.0439268
0.0329739
0.0312858
0.0434005
0.0572058
0.0812141
0.121923
0.159039
0.215519
0.273532
0.322957
0.37088
0.42299
0.474353
0.511189
0.557411
0.613676
0.702299
0.813677
0.968077
0.031254
0.0249021
0.0295728
0.0427331
0.0554957
0.0794476
0.11508
0.149985
0.222507
0.311583
0.395613
0.473514
0.564482
0.638206
0.715432
0.793815
0.872543
0.952214
1.13791
1.13498
0.0233578
0.0198637
0.0257869
0.0409434
0.0569307
0.102574
0.144388
0.186961
0.265643
0.373486
0.494969
0.606011
0.728562
0.831131
0.95441
1.08874
1.22308
1.33726
1.5427
1.49301
0.0181121
0.0163203
0.0219959
0.0443697
0.0877159
0.18348
0.261069
0.37303
0.518368
0.660877
0.795285
0.914844
1.03557
1.14741
1.29006
1.47675
1.6731
1.85717
2.10502
2.08669
0.0142076
0.014095
0.0243326
0.075569
0.169331
0.291485
0.41551
0.588669
0.798583
1.0214
1.20152
1.36797
1.52634
1.67971
1.86997
2.09126
2.32585
2.58144
2.80611
3.00129
0.0113912
0.0165382
0.0506722
0.134697
0.262003
0.395054
0.576235
0.821314
1.12063
1.43928
1.69999
1.94308
2.16873
2.40467
2.69759
2.98135
3.25859
3.52213
3.67645
3.79127
0.00724533
0.0300139
0.0963582
0.193373
0.374679
0.628739
0.987752
1.39029
1.8589
2.25339
2.56494
2.85292
3.12626
3.42025
3.733
3.93495
4.06583
4.13275
4.04452
3.92313
0.00631666
0.0488994
0.17768
0.346914
0.783186
1.41995
2.02346
2.61124
3.20012
3.57905
3.8106
4.04137
4.2408
4.38657
4.46483
4.38869
4.17274
3.64342
2.79178
1.8949
0.0378949
0.166019
0.482895
1.17627
2.10387
2.917
3.57764
4.25103
4.77389
4.83163
4.76302
4.75131
4.70495
4.528
4.01412
3.05988
2.09138
1.3344
1.01895
0.992846
0.304914
0.859898
1.97608
3.16253
4.21744
4.88534
5.44772
5.87996
5.73151
5.28066
4.85604
4.31722
3.39524
2.32593
1.42474
1.02899
0.989325
0.994898
0.997308
0.999437
2.31309
3.63067
4.88843
5.70993
6.25382
6.4578
6.56873
6.24309
4.53681
3.2007
2.35805
1.55082
1.07579
0.987175
0.992825
0.996252
0.999156
0.999974
1.00002
1.00001
6.94249
6.9039
6.8764
6.90347
7.0107
6.80798
5.99829
2.33644
0.644412
1
1
1
1
1
1
1
1
1
1
1
6.90249
6.87009
6.81619
6.73846
6.72689
5.80055
2.63844
1.02265
1
1
1
1
1
1
1
1
1
1
1
1
6.77253
6.84324
6.83129
6.70194
6.29129
3.34895
1.03465
0.999353
1
1
1
1
1
1
1
1
1
1
1
1
6.67687
6.82545
6.83759
6.6186
4.75207
1.41523
0.994073
1.00011
0.999999
1
1
1
1
1
1
1
1
1
1
1
6.57417
6.8408
6.83635
6.03922
2.77445
0.974462
1.00036
0.999994
1
1
1
1
1
1
1
1
1
1
1
1
6.47328
6.85578
6.82469
4.96058
1.47253
1
1
1
1
1
1
1
1
1
1
1
1
1
1
1
6.39805
6.70746
6.71967
3.46514
0.973765
1
1
1
1
1
1
1
1
1
1
1
1
1
1
1
6.47003
6.61157
5.97732
2.04293
0.999946
1
1
1
1
1
1
1
1
1
1
1
1
1
1
1
6.96948
6.66737
4.88267
1.18961
1
1
1
1
1
1
1
1
1
1
1
1
1
1
1
1
7.24985
6.38977
3.44678
0.987976
1
1
1
1
1
1
1
1
1
1
1
1
1
1
1
1
7.40505
5.96615
2.3398
1
1
1
1
1
1
1
1
1
1
1
1
1
1
1
1
1
7.47092
5.42966
1.61795
1
1
1
1
1
1
1
1
1
1
1
1
1
1
1
1
1
7.49698
4.76395
1.18713
1
1
1
1
1
1
1
1
1
1
1
1
1
1
1
1
1
7.37765
4.02621
1.02056
1
1
1
1
1
1
1
1
1
1
1
1
1
1
1
1
1
7.29613
3.16459
1
1
1
1
1
1
1
1
1
1
1
1
1
1
1
1
1
1
6.92228
2.45447
1
1
1
1
1
1
1
1
1
1
1
1
1
1
1
1
1
1
6.60638
1.88645
1
1
1
1
1
1
1
1
1
1
1
1
1
1
1
1
1
1
6.32427
1.38845
1
1
1
1
1
1
1
1
1
1
1
1
1
1
1
1
1
1
5.77046
1.00679
1
1
1
1
1
1
1
1
1
1
1
1
1
1
1
1
1
1
4.62346
1.00007
1
1
1
1
1
1
1
1
1
1
1
1
1
1
1
1
1
1
4.61683
1.00007
1
1
1
1
1
1
1
1
1
1
1
1
1
1
1
1
1
1
5.77205
1.00687
1
1
1
1
1
1
1
1
1
1
1
1
1
1
1
1
1
1
6.33249
1.39114
1
1
1
1
1
1
1
1
1
1
1
1
1
1
1
1
1
1
6.61267
1.8937
1
1
1
1
1
1
1
1
1
1
1
1
1
1
1
1
1
1
6.91109
2.45868
1
1
1
1
1
1
1
1
1
1
1
1
1
1
1
1
1
1
7.29268
3.15624
1
1
1
1
1
1
1
1
1
1
1
1
1
1
1
1
1
1
7.38177
4.01879
1.01861
1
1
1
1
1
1
1
1
1
1
1
1
1
1
1
1
1
7.49775
4.75434
1.18538
1
1
1
1
1
1
1
1
1
1
1
1
1
1
1
1
1
7.47033
5.43203
1.61477
1
1
1
1
1
1
1
1
1
1
1
1
1
1
1
1
1
7.40517
5.97229
2.34322
1
1
1
1
1
1
1
1
1
1
1
1
1
1
1
1
1
7.24826
6.39288
3.45994
0.987923
1
1
1
1
1
1
1
1
1
1
1
1
1
1
1
1
6.968
6.67287
4.8992
1.18985
1
1
1
1
1
1
1
1
1
1
1
1
1
1
1
1
6.45648
6.60628
5.98226
2.06059
0.99996
1
1
1
1
1
1
1
1
1
1
1
1
1
1
1
6.39346
6.69737
6.70514
3.46656
0.97387
1
1
1
1
1
1
1
1
1
1
1
1
1
1
1
6.47058
6.85243
6.82585
4.96444
1.46263
1
1
1
1
1
1
1
1
1
1
1
1
1
1
1
6.5759
6.8438
6.83761
6.0359
2.77165
0.974481
1.00036
0.999994
1
1
1
1
1
1
1
1
1
1
1
1
6.68332
6.82998
6.84162
6.60905
4.74379
1.41348
0.994233
1.00011
0.999999
1
1
1
1
1
1
1
1
1
1
1
6.77891
6.84872
6.83673
6.70376
6.29625
3.33776
1.03188
0.999425
1
1
1
1
1
1
1
1
1
1
1
1
6.90354
6.87591
6.8234
6.7443
6.73921
5.80105
2.63395
1.02255
1
1
1
1
1
1
1
1
1
1
1
1
6.94301
6.90894
6.88215
6.90428
7.00851
6.80559
6.00237
2.34412
0.642098
1
1
1
1
1
1
1
1
1
1
1
2.31298
3.62941
4.88648
5.70677
6.2481
6.45248
6.56878
6.24706
4.54269
3.20639
2.36277
1.55337
1.07631
0.987222
0.992842
0.996257
0.999157
0.999974
1.00002
1.00001
0.306994
0.87474
1.99406
3.17408
4.21261
4.8766
5.44068
5.87642
5.72741
5.27701
4.85349
4.31493
3.39339
2.32464
1.42392
1.02875
0.989343
0.994911
0.997314
0.999438
0.0319107
0.141631
0.485021
1.1916
2.12304
2.92128
3.57349
4.24584
4.76499
4.82435
4.75112
4.75048
4.70542
4.53064
4.0163
3.05981
2.08989
1.33321
1.01868
0.992856
0.0102096
0.0504936
0.152849
0.342533
0.791563
1.43837
2.03698
2.61941
3.20007
3.57786
3.80558
4.03851
4.2414
4.38991
4.46771
4.39102
4.17406
3.64291
2.79016
1.89323
0.0113655
0.0334043
0.0938254
0.182852
0.36109
0.627732
0.993705
1.39808
1.86721
2.26008
2.56828
2.85504
3.12871
3.42307
3.73616
3.93715
4.0668
4.13255
4.04402
3.92222
0.0105454
0.0190513
0.0581382
0.133316
0.257834
0.383685
0.568789
0.815724
1.11601
1.43368
1.69491
1.93951
2.16632
2.40291
2.69691
2.98106
3.25849
3.52264
3.67794
3.7918
0.0111321
0.0132724
0.0315444
0.077631
0.175136
0.28778
0.411892
0.585153
0.794633
1.01881
1.19959
1.36767
1.52648
1.68033
1.87068
2.09216
2.3266
2.58228
2.80758
3.00229
0.0132603
0.0147719
0.0264002
0.0422521
0.0914528
0.186065
0.261716
0.375323
0.523214
0.667345
0.80128
0.920041
1.03887
1.14872
1.28832
1.47351
1.67158
1.85758
2.1066
2.08785
0.0174576
0.0189686
0.0296611
0.0380976
0.0524681
0.10611
0.145028
0.189243
0.269474
0.374636
0.494678
0.604713
0.72575
0.827835
0.951275
1.0873
1.22377
1.33965
1.54386
1.49341
0.0253255
0.0253897
0.0340282
0.0396249
0.049833
0.0820941
0.113791
0.146712
0.21795
0.307413
0.392052
0.470265
0.562205
0.636076
0.715039
0.795215
0.875182
0.953881
1.13745
1.13333
0.0376413
0.0318897
0.0362349
0.040392
0.0522609
0.0840566
0.120316
0.156461
0.21354
0.272687
0.322935
0.370884
0.424155
0.476139
0.514022
0.560215
0.614644
0.700049
0.810932
0.966311
0.0550018
0.0401418
0.0354998
0.0409829
0.0562642
0.0837452
0.119757
0.151286
0.183898
0.213946
0.232515
0.257595
0.279249
0.312154
0.347944
0.398407
0.465562
0.549482
0.617539
0.751105
0.0713518
0.0532019
0.0375338
0.0408181
0.0541954
0.0734227
0.100537
0.12039
0.13153
0.145714
0.151862
0.165348
0.198728
0.242138
0.285329
0.335201
0.385798
0.437222
0.473591
0.545538
0.0876912
0.0689533
0.0433277
0.0404411
0.0456727
0.0526693
0.0672136
0.0815316
0.092131
0.106039
0.12893
0.154154
0.190902
0.224933
0.254652
0.285899
0.309767
0.333725
0.343822
0.38554
0.11667
0.0813771
0.0519109
0.0408423
0.0430449
0.0470179
0.055458
0.0711857
0.0857688
0.104047
0.132526
0.153349
0.178254
0.199433
0.217047
0.22322
0.224937
0.228979
0.237168
0.279061
0.135569
0.0930916
0.0612581
0.0441896
0.0443594
0.0478715
0.0562148
0.0737564
0.0895854
0.106614
0.127786
0.140418
0.152082
0.156142
0.15733
0.152695
0.1533
0.163007
0.186794
0.231395
0.140453
0.102256
0.0742848
0.0541258
0.0509644
0.0544599
0.0604505
0.0746086
0.087812
0.100661
0.10711
0.109788
0.111183
0.111346
0.112849
0.120552
0.132196
0.147567
0.165606
0.188632
0.138894
0.102059
0.0875315
0.0711381
0.0613594
0.06095
0.0609323
0.0661821
0.0708166
0.0745918
0.0706473
0.0711664
0.0726402
0.0779589
0.0874761
0.0993537
0.111075
0.120504
0.128355
0.131425
0.130977
0.110953
0.118562
0.121484
0.121107
0.130778
0.139418
0.145397
0.142529
0.142249
0.149675
0.161457
0.166653
0.161496
0.151566
0.157123
0.177944
0.20549
0.228711
0.217322
0.177417
0.2456
0.288418
0.316406
0.325297
0.345766
0.355084
0.36627
0.384431
0.41646
0.457674
0.469906
0.481167
0.483696
0.472684
0.492526
0.508885
0.51303
0.518308
0.515351
0.568822
0.632458
0.710032
0.817348
0.830203
0.854034
0.843092
0.859327
0.896855
0.936033
0.938209
0.928374
0.917507
0.930084
0.962765
0.97045
0.956297
0.935878
0.926734
0.914356
0.294724
0.406599
0.551031
0.688737
0.760091
0.82821
0.845741
0.853812
0.886254
0.923576
0.934142
0.935119
0.925926
0.927055
0.946
0.96338
0.962359
0.952796
0.939088
0.916872
0.135194
0.156623
0.238004
0.339737
0.510616
0.688449
0.769191
0.830216
0.884106
0.919448
0.93219
0.936717
0.938612
0.934243
0.933743
0.943147
0.954893
0.953995
0.946091
0.920897
0.190453
0.21061
0.226544
0.239218
0.257739
0.332098
0.540155
0.732606
0.814016
0.881399
0.930858
0.938152
0.943648
0.942835
0.93567
0.938951
0.950616
0.953218
0.946264
0.921091
0.242478
0.256602
0.271589
0.289944
0.305965
0.300959
0.317865
0.417049
0.596758
0.75753
0.877971
0.925387
0.951963
0.952249
0.938392
0.937683
0.947323
0.948659
0.943639
0.918172
0.312081
0.325906
0.321113
0.32313
0.330284
0.337172
0.343665
0.334626
0.35653
0.473211
0.681446
0.856947
0.937676
0.953864
0.943256
0.94478
0.950139
0.948425
0.940645
0.915094
0.402957
0.403698
0.377363
0.36683
0.375888
0.385591
0.38671
0.380721
0.366849
0.362137
0.435799
0.645926
0.843024
0.949503
0.94105
0.949212
0.94799
0.942609
0.937738
0.916206
0.52653
0.508835
0.448554
0.405605
0.40575
0.419633
0.433183
0.42887
0.412864
0.383252
0.378554
0.43465
0.624957
0.843206
0.926309
0.954038
0.946582
0.941593
0.943096
0.923184
0.683807
0.623246
0.540316
0.462304
0.453844
0.466544
0.479558
0.476104
0.456437
0.427244
0.396654
0.399276
0.440032
0.61078
0.837288
0.946579
0.928847
0.9382
0.94587
0.92677
0.868031
0.77368
0.667672
0.555972
0.517715
0.510434
0.518772
0.516539
0.498965
0.467873
0.438376
0.423326
0.426988
0.456453
0.621642
0.840681
0.886383
0.937835
0.947816
0.926101
1.23675
0.973925
0.852837
0.725568
0.599383
0.555447
0.557712
0.574011
0.565946
0.538974
0.49985
0.475305
0.466275
0.467258
0.482984
0.571393
0.749146
0.890184
0.923714
0.913779
2.04468
1.44704
1.16468
1.03926
0.890432
0.7199
0.654376
0.649566
0.631814
0.589004
0.547252
0.534481
0.525341
0.512493
0.486591
0.488978
0.526331
0.638416
0.785137
0.875524
2.50808
2.17442
1.69405
1.34334
1.13944
0.968367
0.780181
0.723961
0.718051
0.683956
0.65688
0.635961
0.608949
0.583166
0.554291
0.520629
0.523067
0.533329
0.57496
0.715097
2.36772
2.3488
2.23987
1.91532
1.54008
1.30968
1.08778
0.909858
0.878371
0.835466
0.78219
0.715707
0.65904
0.622893
0.605489
0.584541
0.566271
0.548668
0.546577
0.564148
1.68189
2.14374
2.22237
2.19425
2.05298
1.78282
1.51022
1.23735
1.06196
0.944911
0.873974
0.812116
0.729755
0.704581
0.702304
0.68952
0.657967
0.619931
0.580623
0.556431
1.10879
1.43591
1.84951
2.11316
2.11256
2.07254
1.93711
1.69596
1.43306
1.21407
1.07011
0.995883
0.908876
0.85025
0.796726
0.748721
0.704403
0.661001
0.627122
0.601634
1.00453
1.04411
1.20646
1.54825
1.8618
2.02052
2.0163
1.97182
1.83147
1.62752
1.39642
1.21042
1.08284
0.97334
0.88629
0.811311
0.772608
0.741923
0.732781
0.695777
1.00009
1.00112
1.01049
1.07951
1.26778
1.57182
1.82338
1.93442
1.9272
1.88831
1.76658
1.5756
1.38867
1.21042
1.09451
1.00496
0.9266
0.881864
0.837874
0.758825
1
1.00001
1.00015
1.00255
1.0189
1.09909
1.29233
1.55687
1.76724
1.85916
1.85232
1.81596
1.71724
1.55129
1.37921
1.23213
1.09572
0.993954
0.92699
0.831005
1
1
1
1.00003
1.00032
1.00382
1.02476
1.10995
1.28498
1.52312
1.70336
1.78817
1.78424
1.75747
1.6753
1.53702
1.38562
1.22856
1.12426
0.997163
1
1
1
1
1
1.00005
1.00049
1.00483
1.02648
1.10476
1.26596
1.47616
1.63822
1.72626
1.72334
1.70243
1.6464
1.52981
1.39344
1.19066
1
1
1
1
1
1
1
1.00006
1.00058
1.00475
1.02542
1.09579
1.23272
1.42289
1.57374
1.6659
1.66493
1.65315
1.61566
1.4575
1
1
1
1
1
1
1
1
1.00001
1.00006
1.00058
1.00437
1.02171
1.07943
1.19803
1.37037
1.50787
1.61042
1.61127
1.58179
1
1
1
1
1
1
1
1
1
1
1.00001
1.00006
1.00049
1.00342
1.01748
1.06451
1.16349
1.31398
1.44662
1.54214
1
1
1
1
1
1
1
1
1
1
1
1
1
1.00005
1.0004
1.0026
1.01396
1.05095
1.13791
1.38139
1.62712
2.45862
2.58345
2.08643
1.31084
1.03706
1.00188
1.00005
1
1
1
1
1
1
1
2.34005
2.81512
2.52709
1.54216
1.04852
1.00082
1
1
1
1
1
1
1
1
1
2.93409
2.87125
1.9817
1.15269
1.00522
1.00005
1
1
1
1
1
1
1
1
1
3.25381
2.55695
1.3643
1.01926
1.00019
1
1
1
1
1
1
1
1
1
1
3.32424
1.68272
1.04712
1.00052
1
1
1
1
1
1
1
1
1
1
1
2.07265
1.07327
1.00046
0.999999
1
1
1
1
1
1
1
1
1
1
1
1.10329
1.00059
0.999997
1
1
1
1
1
1
1
1
1
1
1
1
0.998132
0.999865
0.999996
1
1
1
1
1
1
1
1
1
1
1
1
0.999966
1
1
1
1
1
1
1
1
1
1
1
1
1
1
1
1
1
1
1
1
1
1
1
1
1
1
1
1
1
1
1
1
1
1
1
1
1
1
1
1
1
1
1
1
1
1
1
1
1
1
1
1
1
1
1
1
1
1
1
1
1
1
1
1
1
1
1
1
1
1
1
1
1
1
1
1
1
1
1
1
1
1
1
1
1
1
1
1
1
1
1
1
1
1
1
1
1
1
1
1
1
1
1
1
1
1
1
1
1
1
1
1
1
1
1
1
1
1
1
1
1
1
1
1
1
1
1
1
1
1
1
1
1
1
1
1
1
1
1
1
1
1
1
1
1
1
1
1
1
1
1
1
1
1
1
1
1
1
1
1
1
1
1
1
1
1
1
1
1
1
1
1
1
1
1
1
1
1
1
1
1
1
1
1
1
1
1
1
1
1
1
1
1
1
1
1
1
1
1
1
1
1
1
1
1
1
1
1
1
1
1
1
1
1
1
1
1
1
1
1
1
1
1
1
1
1
1
1
1
1
1
1
1
1
1
1
1
1
1
1
1
1
1
1
1
1
1
1
1
1
1
1
1
1
1
1
1
1
1
1
1
1
1
1
1
1
1
1
1
1
1
1
1
1
1
1
1
1
1
1
1
1
1
1
1
1
1
1
1
1
1
1
1
1
1
1
1
1
1
1
1
1
1
1
1
1
1
1
1
1
1
1
1
1
1
1
1
1
1
1
1
1
1
1
1
1
1
1
1
1
1
1
1
1
1
1
1
1
1
1
1
1
1
1
1
1
1
1
1
1
1
1
1
1
1
1
1
1
1
1
1
1
1
1
1
1
1
1
1
1
1
1
1
1
1
1
1
1
1
1
1
1
1
1
1
1
1
1
1
1
1
1
1
1
1
1
1
1
1
1
1
1
1
1
1
1
1
1
1
1
1
1
1
1
1
1
1
1
1
1
1
1
1
1
1
1
1
1
1
1
1
1
1
1
1
1
1
1
1
1
1
1
1
1
1
1
1
1
1
1
1
1
1
1
1
1
1
1
1
1
1
1
1
1
1
1
1
1
1
1
1
1
1
1
1
1
1
1
1
1
1
1
1
1
1
1
1
1
1
1
1
1
1
1
1
1
1
1
1
1
1
1
1
1
1
1
1
1
1
1
1
1
1
1
1
1
1
1
1
1
1
1
1
1
1
1
1
1
1
1
1
1
1
1
1
1
1
1
1
1
1
1
1
1
1
1
1
1
1
1
1
1
1
1
1
1
1
1
1
1
1
1
1
1
1
1
1
1
1
1
1
1
1
1
1
1
1
1
1
1
1
1
1
1
1
1
1
1
1
1
1
1
1
1
1
1
1
1
1
1
1
1
1
1
1
1
1
1
1
1
1
1
1
1
1
1
1
1
1
1
1
1
1
1
1
1
1
1
1
1
1
1
1
1
1
1
1
1
1
1
1
1
1
1
1
1
1
1
1
1
1
1
1
1
1
1
1
1
1
1
1
1
1
1
1
1
1
1
1
1
1
1
1
1
1
1
1
1
1
1
1
1
1
1
1
1
1
1
1
1
1
1
1
1
1
1
1
1
1
1
1
1
1
1
1
1
1
1
1
1
1
1
1
1
1
1
1
1
1
1
1
1
1
1
1
1
1
1
1
1
1
1
1
1
1
1
1
1
1
1
1
1
1
1
1
1
1
1
1
1
1
1
1
1
1
1
1
1
1
1
1
1
1
1
1
1
1
1
1
1
1
1
1
1
1
1
1
1
1
1
1
1
1
1
1
1
1
1
1
1
1
1
1
1
1
1
1
1
1
1
1
1
1
1
1
1
1
1
1
1
1
1
1
1
1
1
1
1
1
1
1
1
1
1
1
1
1
1
1
1
1
1
1
1
1
1
1
1
1
1
1
1
1
1
0.999966
1
1
1
1
1
1
1
1
1
1
1
1
1
1
0.998134
0.999865
0.999996
1
1
1
1
1
1
1
1
1
1
1
1
1.103
1.00059
0.999997
1
1
1
1
1
1
1
1
1
1
1
1
2.07205
1.07325
1.00047
0.999999
1
1
1
1
1
1
1
1
1
1
1
3.32421
1.68258
1.04707
1.00052
1
1
1
1
1
1
1
1
1
1
1
3.25352
2.55706
1.36446
1.01928
1.00019
1
1
1
1
1
1
1
1
1
1
2.93405
2.87087
1.98144
1.15272
1.00523
1.00005
1
1
1
1
1
1
1
1
1
2.34022
2.81488
2.52681
1.54202
1.04851
1.00082
1
1
1
1
1
1
1
1
1
1.62661
2.45821
2.5831
2.08637
1.31087
1.03707
1.00188
1.00005
1
1
1
1
1
1
1
1.23976
2.04442
2.50831
2.36739
1.68199
1.10873
1.00453
1.00009
1
1
1
1
1
1
1
0.973317
1.45338
2.17165
2.34884
2.1431
1.43586
1.04415
1.00112
1.00001
1
1
1
1
1
1
0.842697
1.1645
1.69361
2.23978
2.22252
1.84967
1.2066
1.0105
1.00015
1
1
1
1
1
1
0.711884
1.03401
1.35348
1.91434
2.19452
2.11349
1.5484
1.07951
1.00254
1.00003
1
1
1
1
1
0.59315
0.877325
1.1407
1.54334
2.05503
2.11298
1.86201
1.26774
1.01888
1.00032
1
1
1
1
1
0.558509
0.714847
0.962731
1.31892
1.78507
2.07306
2.0207
1.57166
1.09906
1.00382
1.00005
1
1
1
1
0.567586
0.665121
0.771398
1.0911
1.50952
1.93728
2.01639
1.82339
1.29228
1.02476
1.00049
1
1
1
1
0.582727
0.660598
0.718327
0.906057
1.23672
1.69514
1.97176
1.93436
1.55687
1.10996
1.00483
1.00006
1
1
1
0.573598
0.641468
0.712471
0.873606
1.06253
1.43256
1.83131
1.92711
1.76719
1.28505
1.0265
1.00058
1.00001
1
1
0.539539
0.595399
0.679731
0.831936
0.946002
1.21539
1.62743
1.8881
1.859
1.52314
1.1048
1.00476
1.00006
1
1
0.491159
0.551948
0.659508
0.780564
0.875086
1.07077
1.3963
1.76631
1.85218
1.7033
1.26596
1.02542
1.00058
1.00001
1
0.467103
0.537963
0.64173
0.715865
0.812408
0.995325
1.20963
1.5752
1.81589
1.78812
1.47616
1.09578
1.00437
1.00006
1
0.463249
0.527751
0.613381
0.659242
0.728867
0.907311
1.08249
1.38854
1.71711
1.7842
1.63821
1.23272
1.02171
1.00049
1
0.466194
0.51221
0.584761
0.622818
0.703938
0.849385
0.973254
1.21027
1.55141
1.75745
1.72624
1.4229
1.07944
1.00342
1.00005
0.482337
0.484454
0.553811
0.605564
0.702201
0.796554
0.886582
1.09407
1.37919
1.67536
1.72333
1.57373
1.19803
1.01748
1.0004
0.56931
0.487135
0.519789
0.584733
0.689742
0.748497
0.811803
1.00557
1.23214
1.5369
1.70241
1.6659
1.37037
1.0645
1.0026
0.746766
0.525156
0.522408
0.56598
0.65837
0.703909
0.772743
0.926995
1.09603
1.3857
1.64642
1.66494
1.50789
1.16348
1.01395
0.889573
0.639029
0.533181
0.548234
0.620253
0.660263
0.742085
0.88162
0.99382
1.22892
1.52998
1.65319
1.61044
1.31399
1.05095
0.924253
0.786151
0.575109
0.546429
0.581119
0.626703
0.732961
0.837661
0.926566
1.12431
1.39355
1.6157
1.61129
1.44664
1.13791
0.914357
0.876321
0.714963
0.563855
0.556241
0.601903
0.695944
0.758876
0.830707
0.996983
1.19058
1.45751
1.58181
1.54215
1.38141
0.862932
0.780536
0.671491
0.553183
0.515508
0.506222
0.510288
0.508013
0.494617
0.463028
0.434626
0.420603
0.425628
0.456426
0.622518
0.840296
0.88597
0.937065
0.948107
0.926513
0.684559
0.627611
0.547536
0.464929
0.45774
0.467147
0.47374
0.46768
0.447501
0.42378
0.39764
0.399718
0.438969
0.611207
0.83572
0.949355
0.929585
0.937289
0.945488
0.926803
0.528412
0.509841
0.455415
0.408802
0.409038
0.423273
0.429931
0.42253
0.405135
0.378795
0.378085
0.42966
0.619138
0.842407
0.934945
0.956794
0.94711
0.940589
0.942439
0.922957
0.396493
0.408532
0.382818
0.367947
0.374098
0.383982
0.384305
0.378895
0.36657
0.365388
0.435551
0.637987
0.837373
0.948021
0.944053
0.952099
0.948304
0.941575
0.936385
0.915706
0.310607
0.324391
0.33103
0.334874
0.336818
0.339848
0.344031
0.335398
0.362326
0.482171
0.683946
0.85712
0.936264
0.952507
0.94415
0.94464
0.949723
0.947631
0.939939
0.914676
0.242311
0.257001
0.267593
0.287799
0.302691
0.297146
0.315344
0.414826
0.6063
0.772695
0.884301
0.924285
0.949391
0.949795
0.936183
0.937087
0.947605
0.949181
0.94377
0.918106
0.190238
0.21122
0.234975
0.242005
0.263
0.342028
0.539724
0.733925
0.818965
0.87884
0.927682
0.93843
0.940491
0.938296
0.931223
0.937152
0.951034
0.953938
0.94671
0.920919
0.134388
0.166214
0.236662
0.329684
0.53223
0.694545
0.759971
0.832623
0.887945
0.913802
0.929495
0.933216
0.933655
0.931298
0.933928
0.944902
0.956014
0.954399
0.946084
0.920732
0.271571
0.422511
0.540776
0.687204
0.768939
0.830994
0.837169
0.851794
0.894076
0.924596
0.934606
0.932346
0.922186
0.923371
0.943114
0.961377
0.962667
0.954597
0.940661
0.917569
0.559072
0.641552
0.709346
0.816991
0.828179
0.839171
0.838305
0.85903
0.898972
0.922903
0.922238
0.913716
0.912222
0.927936
0.960883
0.975595
0.966326
0.94425
0.929416
0.913684
)
;

boundaryField
{
    inlet
    {
        type            fixedValue;
        value           uniform 1;
    }
    outlet
    {
        type            zeroGradient;
    }
    airfoil
    {
        type            zeroGradient;
    }
    top
    {
        type            symmetryPlane;
    }
    bottom
    {
        type            symmetryPlane;
    }
    defaultFaces
    {
        type            empty;
    }
}


// ************************************************************************* //
