/*--------------------------------*- C++ -*----------------------------------*\
  =========                 |
  \\      /  F ield         | OpenFOAM: The Open Source CFD Toolbox
   \\    /   O peration     | Website:  https://openfoam.org
    \\  /    A nd           | Version:  7
     \\/     M anipulation  |
\*---------------------------------------------------------------------------*/
FoamFile
{
    version     2.0;
    format      ascii;
    class       volScalarField;
    location    "4";
    object      rho;
}
// * * * * * * * * * * * * * * * * * * * * * * * * * * * * * * * * * * * * * //

dimensions      [1 -3 0 0 0 0 0];

internalField   nonuniform List<scalar> 
3700
(
0.234587
0.335986
0.39234
0.434704
0.461882
0.457355
0.465021
0.496933
0.54031
0.596103
0.637497
0.64438
0.662349
0.67705
0.682625
0.702859
0.70372
0.694223
0.715218
0.726522
0.17438
0.149526
0.159566
0.164049
0.168292
0.153193
0.15585
0.176617
0.212044
0.2475
0.246985
0.222914
0.206954
0.220839
0.250864
0.276556
0.279391
0.279781
0.294077
0.289907
0.183173
0.141185
0.116993
0.0932475
0.0813526
0.0806597
0.084768
0.0927142
0.0980575
0.104932
0.0975352
0.098152
0.100312
0.109338
0.123838
0.14086
0.157471
0.170064
0.180091
0.182867
0.182164
0.130073
0.0943436
0.0692987
0.0669097
0.0699414
0.082671
0.102873
0.122068
0.143863
0.149898
0.152634
0.15284
0.152901
0.155755
0.168552
0.186168
0.208567
0.233885
0.264193
0.174816
0.117877
0.079643
0.0591767
0.057983
0.0638899
0.0773044
0.101165
0.125304
0.150928
0.182017
0.199294
0.212779
0.216196
0.215756
0.210212
0.212044
0.229176
0.264462
0.326217
0.16662
0.110885
0.0720187
0.0567717
0.0559719
0.0633481
0.0764114
0.0976879
0.120054
0.146782
0.188469
0.218442
0.252332
0.28004
0.302397
0.308391
0.310795
0.316879
0.330335
0.392212
0.152586
0.103577
0.0638042
0.0575538
0.0585766
0.0727226
0.0924245
0.109616
0.126011
0.147621
0.182268
0.219246
0.271485
0.31803
0.358377
0.40015
0.431504
0.46323
0.477507
0.536433
0.11738
0.0839507
0.0567394
0.0610649
0.0735356
0.101679
0.137921
0.162407
0.177662
0.198392
0.208646
0.229545
0.280687
0.34267
0.403081
0.472246
0.541099
0.611002
0.659005
0.758625
0.085921
0.0622111
0.0487641
0.0609175
0.0806983
0.114637
0.167751
0.211404
0.254599
0.295401
0.319955
0.353761
0.383821
0.43139
0.485038
0.558812
0.654598
0.769721
0.863186
1.04699
0.0615239
0.0462361
0.0438871
0.0608321
0.0801238
0.113623
0.170432
0.222248
0.301043
0.381942
0.450857
0.517688
0.590308
0.661922
0.713279
0.777718
0.856106
0.979482
1.13445
1.34917
0.0438086
0.0349358
0.0414756
0.0598858
0.0777012
0.11108
0.160814
0.209554
0.310707
0.434885
0.551986
0.660533
0.787219
0.889955
0.997507
1.10665
1.21621
1.32704
1.5852
1.58114
0.0327616
0.0278775
0.0361587
0.0573586
0.0796328
0.143262
0.201637
0.261008
0.370711
0.521054
0.690319
0.844967
1.01556
1.15836
1.32989
1.51672
1.70348
1.86212
2.14735
2.0784
0.0254215
0.0229146
0.0308432
0.0621172
0.122578
0.256068
0.364282
0.520211
0.722543
0.920862
1.10798
1.2744
1.44244
1.59807
1.79644
2.05586
2.32851
2.58397
2.92777
2.90234
0.0199588
0.0197988
0.0341062
0.105694
0.236391
0.406563
0.579284
0.820251
1.11222
1.42206
1.67259
1.90401
2.12418
2.33726
2.60145
2.90865
3.23418
3.58867
3.90026
4.17114
0.0160164
0.0232263
0.0709692
0.188192
0.365503
0.550767
0.802871
1.1437
1.55976
2.00261
2.36494
2.7026
3.01587
3.34311
3.74924
4.14266
4.52709
4.89264
5.10719
5.26697
0.0101993
0.0421123
0.134828
0.269994
0.522335
0.875707
1.37473
1.93397
2.5847
3.13264
3.56524
3.96478
4.34365
4.75078
5.18406
5.46397
5.64582
5.73912
5.61797
5.45168
0.00890163
0.0685348
0.24821
0.483749
1.09019
1.97437
2.81209
3.62764
4.44473
4.97048
5.29154
5.61117
5.88709
6.0891
6.19777
6.09275
5.79592
5.06644
3.88841
2.64548
0.0532869
0.232091
0.673015
1.63605
2.92296
4.05077
4.96677
5.90035
6.62538
6.70527
6.61007
6.59376
6.52948
6.28536
5.57677
4.25735
2.91743
1.86626
1.42646
1.39002
0.426356
1.19762
2.74627
4.39093
5.85252
6.778
7.55698
8.15659
7.95111
7.32651
6.73841
5.994
4.71923
3.2411
1.99171
1.44045
1.38511
1.39288
1.39625
1.39922
3.21603
5.04092
6.782
7.91893
8.67205
8.95539
9.1093
8.65968
6.29852
4.4473
3.28265
2.16624
1.50568
1.38211
1.38999
1.39477
1.39883
1.39997
1.40003
1.40002
9.62371
9.57042
9.53254
9.57047
9.71991
9.44149
8.32431
3.25615
0.903597
1.40001
1.40001
1.40001
1.40001
1.40001
1.40001
1.40001
1.40001
1.40001
1.40001
1.40001
9.56856
9.52376
9.44943
9.34278
9.329
8.05167
3.67562
1.43148
1.40001
1.40001
1.40001
1.40001
1.40001
1.40001
1.40001
1.40001
1.40001
1.40001
1.40001
1.40001
9.38877
9.4866
9.47035
9.29258
8.72794
4.65938
1.44804
1.39911
1.40001
1.40001
1.40001
1.40001
1.40001
1.40001
1.40001
1.40001
1.40001
1.40001
1.40001
1.40001
9.25649
9.46199
9.47906
9.17778
6.60018
1.97672
1.39175
1.40016
1.4
1.40001
1.40001
1.40001
1.40001
1.40001
1.40001
1.40001
1.40001
1.40001
1.40001
1.40001
9.11448
9.48317
9.4774
8.37785
3.86188
1.36436
1.40051
1.4
1.40001
1.40001
1.40001
1.40001
1.40001
1.40001
1.40001
1.40001
1.40001
1.40001
1.40001
1.40001
8.97497
9.50389
9.46165
6.88781
2.05604
1.40001
1.40001
1.40001
1.40001
1.40001
1.40001
1.40001
1.40001
1.40001
1.40001
1.40001
1.40001
1.40001
1.40001
1.40001
8.87096
9.29917
9.31739
4.81813
1.36338
1.40001
1.40001
1.40001
1.40001
1.40001
1.40001
1.40001
1.40001
1.40001
1.40001
1.40001
1.40001
1.40001
1.40001
1.40001
8.97014
9.16714
8.29261
2.84675
1.39993
1.40001
1.40001
1.40001
1.40001
1.40001
1.40001
1.40001
1.40001
1.40001
1.40001
1.40001
1.40001
1.40001
1.40001
1.40001
9.6604
9.24478
6.78029
1.66317
1.40001
1.40001
1.40001
1.40001
1.40001
1.40001
1.40001
1.40001
1.40001
1.40001
1.40001
1.40001
1.40001
1.40001
1.40001
1.40001
10.0477
8.86207
4.79298
1.38322
1.40001
1.40001
1.40001
1.40001
1.40001
1.40001
1.40001
1.40001
1.40001
1.40001
1.40001
1.40001
1.40001
1.40001
1.40001
1.40001
10.2619
8.27772
3.25904
1.40001
1.40001
1.40001
1.40001
1.40001
1.40001
1.40001
1.40001
1.40001
1.40001
1.40001
1.40001
1.40001
1.40001
1.40001
1.40001
1.40001
10.3526
7.53682
2.25785
1.40001
1.40001
1.40001
1.40001
1.40001
1.40001
1.40001
1.40001
1.40001
1.40001
1.40001
1.40001
1.40001
1.40001
1.40001
1.40001
1.40001
10.3885
6.61644
1.65992
1.40001
1.40001
1.40001
1.40001
1.40001
1.40001
1.40001
1.40001
1.40001
1.40001
1.40001
1.40001
1.40001
1.40001
1.40001
1.40001
1.40001
10.2241
5.59521
1.42861
1.40001
1.40001
1.40001
1.40001
1.40001
1.40001
1.40001
1.40001
1.40001
1.40001
1.40001
1.40001
1.40001
1.40001
1.40001
1.40001
1.40001
10.1127
4.4015
1.40001
1.40001
1.40001
1.40001
1.40001
1.40001
1.40001
1.40001
1.40001
1.40001
1.40001
1.40001
1.40001
1.40001
1.40001
1.40001
1.40001
1.40001
9.59697
3.41736
1.40001
1.40001
1.40001
1.40001
1.40001
1.40001
1.40001
1.40001
1.40001
1.40001
1.40001
1.40001
1.40001
1.40001
1.40001
1.40001
1.40001
1.40001
9.16168
2.62964
1.40001
1.40001
1.40001
1.40001
1.40001
1.40001
1.40001
1.40001
1.40001
1.40001
1.40001
1.40001
1.40001
1.40001
1.40001
1.40001
1.40001
1.40001
8.77336
1.93898
1.40001
1.40001
1.40001
1.40001
1.40001
1.40001
1.40001
1.40001
1.40001
1.40001
1.40001
1.40001
1.40001
1.40001
1.40001
1.40001
1.40001
1.40001
8.00937
1.40944
1.40001
1.40001
1.40001
1.40001
1.40001
1.40001
1.40001
1.40001
1.40001
1.40001
1.40001
1.40001
1.40001
1.40001
1.40001
1.40001
1.40001
1.40001
6.42117
1.40011
1.40001
1.40001
1.40001
1.40001
1.40001
1.40001
1.40001
1.40001
1.40001
1.40001
1.40001
1.40001
1.40001
1.40001
1.40001
1.40001
1.40001
1.40001
6.41206
1.4001
1.40001
1.40001
1.40001
1.40001
1.40001
1.40001
1.40001
1.40001
1.40001
1.40001
1.40001
1.40001
1.40001
1.40001
1.40001
1.40001
1.40001
1.40001
8.01164
1.40954
1.40001
1.40001
1.40001
1.40001
1.40001
1.40001
1.40001
1.40001
1.40001
1.40001
1.40001
1.40001
1.40001
1.40001
1.40001
1.40001
1.40001
1.40001
8.78468
1.94271
1.40001
1.40001
1.40001
1.40001
1.40001
1.40001
1.40001
1.40001
1.40001
1.40001
1.40001
1.40001
1.40001
1.40001
1.40001
1.40001
1.40001
1.40001
9.17023
2.63968
1.40001
1.40001
1.40001
1.40001
1.40001
1.40001
1.40001
1.40001
1.40001
1.40001
1.40001
1.40001
1.40001
1.40001
1.40001
1.40001
1.40001
1.40001
9.58141
3.4232
1.40001
1.40001
1.40001
1.40001
1.40001
1.40001
1.40001
1.40001
1.40001
1.40001
1.40001
1.40001
1.40001
1.40001
1.40001
1.40001
1.40001
1.40001
10.1079
4.38995
1.40001
1.40001
1.40001
1.40001
1.40001
1.40001
1.40001
1.40001
1.40001
1.40001
1.40001
1.40001
1.40001
1.40001
1.40001
1.40001
1.40001
1.40001
10.2298
5.58498
1.42589
1.40001
1.40001
1.40001
1.40001
1.40001
1.40001
1.40001
1.40001
1.40001
1.40001
1.40001
1.40001
1.40001
1.40001
1.40001
1.40001
1.40001
10.3896
6.60316
1.65749
1.40001
1.40001
1.40001
1.40001
1.40001
1.40001
1.40001
1.40001
1.40001
1.40001
1.40001
1.40001
1.40001
1.40001
1.40001
1.40001
1.40001
10.3519
7.54011
2.25345
1.40001
1.40001
1.40001
1.40001
1.40001
1.40001
1.40001
1.40001
1.40001
1.40001
1.40001
1.40001
1.40001
1.40001
1.40001
1.40001
1.40001
10.2621
8.28622
3.26377
1.40001
1.40001
1.40001
1.40001
1.40001
1.40001
1.40001
1.40001
1.40001
1.40001
1.40001
1.40001
1.40001
1.40001
1.40001
1.40001
1.40001
10.0455
8.86637
4.81121
1.38315
1.40001
1.40001
1.40001
1.40001
1.40001
1.40001
1.40001
1.40001
1.40001
1.40001
1.40001
1.40001
1.40001
1.40001
1.40001
1.40001
9.65836
9.25235
6.80318
1.66352
1.40001
1.40001
1.40001
1.40001
1.40001
1.40001
1.40001
1.40001
1.40001
1.40001
1.40001
1.40001
1.40001
1.40001
1.40001
1.40001
8.95136
9.15977
8.29937
2.87121
1.39995
1.40001
1.40001
1.40001
1.40001
1.40001
1.40001
1.40001
1.40001
1.40001
1.40001
1.40001
1.40001
1.40001
1.40001
1.40001
8.86456
9.28516
9.29718
4.82002
1.36352
1.40001
1.40001
1.40001
1.40001
1.40001
1.40001
1.40001
1.40001
1.40001
1.40001
1.40001
1.40001
1.40001
1.40001
1.40001
8.97118
9.49919
9.46327
6.89323
2.04231
1.40001
1.40001
1.40001
1.40001
1.40001
1.40001
1.40001
1.40001
1.40001
1.40001
1.40001
1.40001
1.40001
1.40001
1.40001
9.11682
9.48727
9.47917
8.37342
3.85805
1.36439
1.40051
1.4
1.40001
1.40001
1.40001
1.40001
1.40001
1.40001
1.40001
1.40001
1.40001
1.40001
1.40001
1.40001
9.26538
9.46823
9.48464
9.16465
6.58875
1.97428
1.39198
1.40015
1.4
1.40001
1.40001
1.40001
1.40001
1.40001
1.40001
1.40001
1.40001
1.40001
1.40001
1.40001
9.39759
9.49419
9.47788
9.29511
8.73477
4.64387
1.4442
1.39921
1.40001
1.40001
1.40001
1.40001
1.40001
1.40001
1.40001
1.40001
1.40001
1.40001
1.40001
1.40001
9.57002
9.53182
9.4594
9.35085
9.34603
8.05242
3.66942
1.43134
1.40001
1.40001
1.40001
1.40001
1.40001
1.40001
1.40001
1.40001
1.40001
1.40001
1.40001
1.40001
9.62447
9.57741
9.54051
9.5716
9.71689
9.43824
8.32996
3.26679
0.900362
1.40001
1.40001
1.40001
1.40001
1.40001
1.40001
1.40001
1.40001
1.40001
1.40001
1.40001
3.21589
5.03919
6.77933
7.91457
8.66416
8.94809
9.10938
8.66517
6.30667
4.45516
3.28917
2.16977
1.50641
1.38218
1.39002
1.39478
1.39883
1.39997
1.40003
1.40002
0.429276
1.21824
2.7712
4.40692
5.84585
6.76592
7.54725
8.1517
7.94543
7.32144
6.73486
5.99083
4.71668
3.23932
1.99057
1.44011
1.38513
1.3929
1.39626
1.39922
0.0448965
0.198105
0.675953
1.65731
2.94954
4.05673
4.96105
5.89318
6.61303
6.69519
6.59359
6.59261
6.53014
6.28901
5.5798
4.25725
2.91536
1.8646
1.42608
1.39003
0.0143627
0.0707801
0.213589
0.477636
1.10182
1.99994
2.83084
3.63897
4.44464
4.96881
5.28458
5.6072
5.88792
6.09374
6.20176
6.09597
5.79775
5.06574
3.88617
2.64316
0.0159818
0.0468322
0.131273
0.255321
0.503433
0.874287
1.38298
1.94478
2.59623
3.14191
3.56985
3.96772
4.34705
4.7547
5.18844
5.46701
5.64717
5.73885
5.61728
5.45045
0.0148402
0.0267247
0.0814066
0.186254
0.359706
0.534961
0.792533
1.13595
1.55336
1.99485
2.35791
2.69767
3.01255
3.34068
3.7483
4.14224
4.52695
4.89335
5.10926
5.26771
0.0156676
0.0186463
0.0442043
0.108564
0.2445
0.401437
0.574273
0.815379
1.10673
1.41846
1.66991
1.90359
2.12436
2.33811
2.60242
2.90988
3.23521
3.58984
3.90232
4.17252
0.0186552
0.0207532
0.0370127
0.0591533
0.127788
0.259696
0.365204
0.52342
0.729296
0.929858
1.11631
1.28162
1.44702
1.59988
1.794
2.05136
2.3264
2.58455
2.92997
2.90395
0.0245428
0.026638
0.0415814
0.0533686
0.0733834
0.148194
0.202544
0.264197
0.37604
0.522643
0.689908
0.843156
1.01164
1.15377
1.32553
1.51473
1.70444
1.86544
2.14896
2.07896
0.0355675
0.0356385
0.0477067
0.0555262
0.0697671
0.114754
0.159012
0.204982
0.304343
0.429064
0.547016
0.655998
0.784038
0.886979
0.996955
1.1086
1.21988
1.32935
1.58455
1.57884
0.0527986
0.044739
0.0508069
0.0566181
0.073196
0.117573
0.168179
0.218638
0.298268
0.380748
0.450809
0.517677
0.591914
0.6644
0.717219
0.781618
0.857453
0.976358
1.13064
1.34672
0.077051
0.0562753
0.0497859
0.0574588
0.0788164
0.117191
0.167468
0.211496
0.25703
0.298971
0.324901
0.359903
0.390124
0.436046
0.485974
0.556318
0.649867
0.76673
0.86152
1.0474
0.0998637
0.0745199
0.0526343
0.057241
0.0759524
0.102832
0.140722
0.168466
0.184042
0.203835
0.212399
0.231206
0.277792
0.338372
0.398618
0.468157
0.538679
0.610364
0.661078
0.761278
0.122615
0.0964943
0.060733
0.0567103
0.0640357
0.0738292
0.0941654
0.114161
0.128957
0.148358
0.180318
0.215536
0.266822
0.314318
0.355799
0.399397
0.43271
0.466159
0.480267
0.53846
0.162884
0.113785
0.0727108
0.057264
0.0603464
0.065904
0.0776945
0.0996613
0.120033
0.145543
0.185293
0.214384
0.249152
0.278735
0.303357
0.312002
0.314447
0.320134
0.331599
0.390073
0.189139
0.130069
0.0857345
0.0619261
0.0621679
0.0670797
0.0787304
0.103214
0.125318
0.1491
0.178676
0.196342
0.212649
0.218353
0.220059
0.213642
0.214525
0.228087
0.261284
0.323523
0.195953
0.142833
0.103875
0.0757704
0.0713587
0.0762398
0.0846106
0.104388
0.12284
0.140806
0.149839
0.15362
0.155609
0.155879
0.158
0.168755
0.185006
0.206474
0.231674
0.263836
0.193833
0.142573
0.122347
0.0994976
0.0858573
0.0852972
0.0852883
0.0926334
0.0991282
0.104431
0.0989484
0.0996934
0.101762
0.109196
0.122492
0.139081
0.155462
0.168643
0.179627
0.183941
0.182852
0.154924
0.165486
0.16954
0.168981
0.18229
0.194129
0.202415
0.198506
0.198177
0.208423
0.224624
0.231848
0.224815
0.21135
0.219192
0.248126
0.28628
0.318496
0.302763
0.246823
0.341187
0.400523
0.439393
0.451719
0.479923
0.492619
0.507894
0.532802
0.577003
0.633822
0.650542
0.666136
0.66974
0.654811
0.682403
0.704902
0.710462
0.717797
0.713817
0.78802
0.876503
0.984154
1.13297
1.15109
1.18449
1.1697
1.19237
1.24446
1.29885
1.30205
1.28866
1.2738
1.29133
1.33669
1.34741
1.32792
1.29972
1.2871
1.27007
0.410094
0.565699
0.766098
0.957123
1.05605
1.15053
1.17469
1.18577
1.23077
1.28261
1.2973
1.29872
1.28605
1.28768
1.314
1.33816
1.33678
1.32356
1.30458
1.2739
0.189232
0.219168
0.332598
0.474277
0.711981
0.959097
1.07074
1.15504
1.22982
1.27883
1.29629
1.30246
1.30502
1.29893
1.29824
1.31128
1.3275
1.3262
1.31522
1.28033
0.266427
0.294595
0.316862
0.334592
0.360443
0.464032
0.753497
1.02095
1.13412
1.22762
1.29597
1.30592
1.31348
1.31231
1.30232
1.3068
1.32286
1.32637
1.31669
1.28174
0.339018
0.358759
0.379731
0.405383
0.427742
0.420752
0.444283
0.582374
0.832506
1.05613
1.22338
1.28906
1.32594
1.32634
1.30706
1.30602
1.31929
1.32108
1.31407
1.27868
0.436109
0.455433
0.448818
0.451661
0.461645
0.471238
0.480282
0.467678
0.498189
0.66071
0.950494
1.19438
1.30653
1.32903
1.3143
1.31641
1.3238
1.32138
1.31055
1.27505
0.562787
0.563863
0.527232
0.51257
0.525191
0.538711
0.540263
0.531914
0.512621
0.506099
0.608735
0.901197
1.17522
1.32323
1.31149
1.32285
1.32114
1.31366
1.30687
1.27696
0.734904
0.710323
0.6264
0.566571
0.566786
0.58614
0.605024
0.599018
0.576738
0.535554
0.529064
0.607243
0.872169
1.17569
1.29122
1.32976
1.3194
1.31247
1.31456
1.2869
0.953823
0.869562
0.754126
0.645489
0.633771
0.651493
0.669648
0.664851
0.637474
0.596852
0.554337
0.558026
0.614846
0.852607
1.16768
1.31961
1.29496
1.30794
1.31861
1.2921
1.21002
1.07879
0.931324
0.775877
0.722708
0.712657
0.7243
0.721216
0.696764
0.653492
0.612472
0.591599
0.596724
0.637827
0.86785
1.17261
1.23616
1.30762
1.32153
1.29139
1.72241
1.3573
1.18899
1.01198
0.836449
0.775398
0.778604
0.801346
0.790153
0.752628
0.698175
0.664068
0.651558
0.652989
0.674948
0.798121
1.04557
1.24174
1.28846
1.27467
2.84492
2.01507
1.62283
1.44854
1.24157
1.00436
0.913305
0.90671
0.882064
0.822467
0.76432
0.746617
0.733984
0.71617
0.680102
0.683504
0.735615
0.891818
1.09617
1.22204
3.49006
3.02641
2.35907
1.87181
1.58834
1.35038
1.0886
1.01051
1.00234
0.954878
0.917211
0.888173
0.850655
0.814831
0.774659
0.727773
0.731256
0.745688
0.803792
0.999128
3.29871
3.27045
3.11894
2.66774
2.14612
1.82576
1.51709
1.26961
1.22588
1.16621
1.09209
0.999572
0.920701
0.870413
0.846239
0.817115
0.791721
0.767258
0.764436
0.789068
2.34878
2.99
3.09751
3.05721
2.86063
2.48484
2.10562
1.72602
1.48198
1.3191
1.22038
1.13426
1.01953
0.984541
0.981467
0.963742
0.919841
0.866881
0.81213
0.778495
1.55164
2.00737
2.58276
2.94851
2.94617
2.8896
2.70099
2.36533
1.99943
1.69462
1.49417
1.39082
1.26963
1.18801
1.11351
1.04667
0.984948
0.924461
0.877245
0.841795
1.40633
1.46154
1.68794
2.1642
2.60047
2.82058
2.81356
2.75096
2.55541
2.27135
1.94952
1.69045
1.51272
1.36015
1.23884
1.13435
1.08043
1.03767
1.02497
0.973442
1.40013
1.40156
1.41464
1.51093
1.77352
2.19729
2.54743
2.70145
2.69057
2.63596
2.46628
2.20016
1.93971
1.6913
1.52972
1.40488
1.29566
1.23331
1.172
1.06177
1.40001
1.40002
1.40021
1.40356
1.42638
1.53827
1.80781
2.17658
2.46952
2.59719
2.58705
2.53616
2.39849
2.16715
1.92729
1.72226
1.53205
1.39014
1.29675
1.16285
1.40001
1.40001
1.40001
1.40004
1.40046
1.40534
1.43456
1.55343
1.79757
2.12964
2.3807
2.49865
2.4927
2.45531
2.34071
2.14791
1.93686
1.71784
1.57239
1.39508
1.40001
1.40001
1.40001
1.40001
1.40001
1.40007
1.40069
1.40675
1.43696
1.54619
1.77105
2.06419
2.28999
2.41258
2.40821
2.37903
2.30089
2.13831
1.94818
1.66533
1.40001
1.40001
1.40001
1.40001
1.40001
1.40001
1.40001
1.40009
1.40081
1.40664
1.43547
1.53367
1.72469
1.98992
2.20015
2.32856
2.327
2.31056
2.25827
2.0377
1.40001
1.40001
1.40001
1.40001
1.40001
1.40001
1.40001
1.40001
1.40001
1.40009
1.40081
1.4061
1.43031
1.51084
1.6763
1.91668
2.10835
2.25131
2.25231
2.2112
1.40001
1.40001
1.40001
1.40001
1.40001
1.40001
1.40001
1.40001
1.40001
1.40001
1.40001
1.40009
1.40069
1.40478
1.4244
1.49002
1.62811
1.83803
2.02298
2.15606
1.40001
1.40001
1.40001
1.40001
1.40001
1.40001
1.40001
1.40001
1.40001
1.40001
1.40001
1.40001
1.40001
1.40007
1.40057
1.40363
1.41948
1.4711
1.59242
1.93195
2.26446
3.41978
3.59493
2.9089
1.83257
1.45163
1.40262
1.40007
1.40001
1.40001
1.40001
1.40001
1.40001
1.40001
1.40001
3.25427
3.91526
3.51969
2.15432
1.46761
1.40115
1.40001
1.4
1.40001
1.40001
1.40001
1.40001
1.40001
1.40001
1.40001
4.07899
3.99435
2.76406
1.61258
1.40728
1.40007
1.40001
1.40001
1.40001
1.40001
1.40001
1.40001
1.40001
1.40001
1.40001
4.5228
3.56132
1.90685
1.42684
1.40026
1.40001
1.40001
1.40001
1.40001
1.40001
1.40001
1.40001
1.40001
1.40001
1.40001
4.62385
2.34916
1.46561
1.40073
1.40001
1.4
1.40001
1.40001
1.40001
1.40001
1.40001
1.40001
1.40001
1.40001
1.40001
2.89026
1.50201
1.40065
1.4
1.4
1.4
1.40001
1.40001
1.40001
1.40001
1.40001
1.40001
1.40001
1.40001
1.40001
1.54394
1.40083
1.4
1.4
1.40001
1.40001
1.40001
1.40001
1.40001
1.40001
1.40001
1.40001
1.40001
1.40001
1.40001
1.3974
1.39982
1.4
1.4
1.40001
1.40001
1.40001
1.40001
1.40001
1.40001
1.40001
1.40001
1.40001
1.40001
1.40001
1.39996
1.40001
1.40001
1.40001
1.40001
1.40001
1.40001
1.40001
1.40001
1.40001
1.40001
1.40001
1.40001
1.40001
1.40001
1.40001
1.40001
1.40001
1.40001
1.40001
1.40001
1.40001
1.40001
1.40001
1.40001
1.40001
1.40001
1.40001
1.40001
1.40001
1.40001
1.40001
1.40001
1.40001
1.40001
1.40001
1.40001
1.40001
1.40001
1.40001
1.40001
1.40001
1.40001
1.40001
1.40001
1.40001
1.40001
1.40001
1.40001
1.40001
1.40001
1.40001
1.40001
1.40001
1.40001
1.40001
1.40001
1.40001
1.40001
1.40001
1.40001
1.40001
1.40001
1.40001
1.40001
1.40001
1.40001
1.40001
1.40001
1.40001
1.40001
1.40001
1.40001
1.40001
1.40001
1.40001
1.40001
1.40001
1.40001
1.40001
1.40001
1.40001
1.40001
1.40001
1.40001
1.40001
1.40001
1.40001
1.40001
1.40001
1.40001
1.40001
1.40001
1.40001
1.40001
1.40001
1.40001
1.40001
1.40001
1.40001
1.40001
1.40001
1.40001
1.40001
1.40001
1.40001
1.40001
1.40001
1.40001
1.40001
1.40001
1.40001
1.40001
1.40001
1.40001
1.40001
1.40001
1.40001
1.40001
1.40001
1.40001
1.40001
1.40001
1.40001
1.40001
1.40001
1.40001
1.40001
1.40001
1.40001
1.40001
1.40001
1.40001
1.40001
1.40001
1.40001
1.40001
1.40001
1.40001
1.40001
1.40001
1.40001
1.40001
1.40001
1.40001
1.40001
1.40001
1.40001
1.40001
1.40001
1.40001
1.40001
1.40001
1.40001
1.40001
1.40001
1.40001
1.40001
1.40001
1.40001
1.40001
1.40001
1.40001
1.40001
1.40001
1.40001
1.40001
1.40001
1.40001
1.40001
1.40001
1.40001
1.40001
1.40001
1.40001
1.40001
1.40001
1.40001
1.40001
1.40001
1.40001
1.40001
1.40001
1.40001
1.40001
1.40001
1.40001
1.40001
1.40001
1.40001
1.40001
1.40001
1.40001
1.40001
1.40001
1.40001
1.40001
1.40001
1.40001
1.40001
1.40001
1.40001
1.40001
1.40001
1.40001
1.40001
1.40001
1.40001
1.40001
1.40001
1.40001
1.40001
1.40001
1.40001
1.40001
1.40001
1.40001
1.40001
1.40001
1.40001
1.40001
1.40001
1.40001
1.40001
1.40001
1.40001
1.40001
1.40001
1.40001
1.40001
1.40001
1.40001
1.40001
1.40001
1.40001
1.40001
1.40001
1.40001
1.40001
1.40001
1.40001
1.40001
1.40001
1.40001
1.40001
1.40001
1.40001
1.40001
1.40001
1.40001
1.40001
1.40001
1.40001
1.40001
1.40001
1.40001
1.40001
1.40001
1.40001
1.40001
1.40001
1.40001
1.40001
1.40001
1.40001
1.40001
1.40001
1.40001
1.40001
1.40001
1.40001
1.40001
1.40001
1.40001
1.40001
1.40001
1.40001
1.40001
1.40001
1.40001
1.40001
1.40001
1.40001
1.40001
1.40001
1.40001
1.40001
1.40001
1.40001
1.40001
1.40001
1.40001
1.40001
1.40001
1.40001
1.40001
1.40001
1.40001
1.40001
1.40001
1.40001
1.40001
1.40001
1.40001
1.40001
1.40001
1.40001
1.40001
1.40001
1.40001
1.40001
1.40001
1.40001
1.40001
1.40001
1.40001
1.40001
1.40001
1.40001
1.40001
1.40001
1.40001
1.40001
1.40001
1.40001
1.40001
1.40001
1.40001
1.40001
1.40001
1.40001
1.40001
1.40001
1.40001
1.40001
1.40001
1.40001
1.40001
1.40001
1.40001
1.40001
1.40001
1.40001
1.40001
1.40001
1.40001
1.40001
1.40001
1.40001
1.40001
1.40001
1.40001
1.40001
1.40001
1.40001
1.40001
1.40001
1.40001
1.40001
1.40001
1.40001
1.40001
1.40001
1.40001
1.40001
1.40001
1.40001
1.40001
1.40001
1.40001
1.40001
1.40001
1.40001
1.40001
1.40001
1.40001
1.40001
1.40001
1.40001
1.40001
1.40001
1.40001
1.40001
1.40001
1.40001
1.40001
1.40001
1.40001
1.40001
1.40001
1.40001
1.40001
1.40001
1.40001
1.40001
1.40001
1.40001
1.40001
1.40001
1.40001
1.40001
1.40001
1.40001
1.40001
1.40001
1.40001
1.40001
1.40001
1.40001
1.40001
1.40001
1.40001
1.40001
1.40001
1.40001
1.40001
1.40001
1.40001
1.40001
1.40001
1.40001
1.40001
1.40001
1.40001
1.40001
1.40001
1.40001
1.40001
1.40001
1.40001
1.40001
1.40001
1.40001
1.40001
1.40001
1.40001
1.40001
1.40001
1.40001
1.40001
1.40001
1.40001
1.40001
1.40001
1.40001
1.40001
1.40001
1.40001
1.40001
1.40001
1.40001
1.40001
1.40001
1.40001
1.40001
1.40001
1.40001
1.40001
1.40001
1.40001
1.40001
1.40001
1.40001
1.40001
1.40001
1.40001
1.40001
1.40001
1.40001
1.40001
1.40001
1.40001
1.40001
1.40001
1.40001
1.40001
1.40001
1.40001
1.40001
1.40001
1.40001
1.40001
1.40001
1.40001
1.40001
1.40001
1.40001
1.40001
1.40001
1.40001
1.40001
1.40001
1.40001
1.40001
1.40001
1.40001
1.40001
1.40001
1.40001
1.40001
1.40001
1.40001
1.40001
1.40001
1.40001
1.40001
1.40001
1.40001
1.40001
1.40001
1.40001
1.40001
1.40001
1.40001
1.40001
1.40001
1.40001
1.40001
1.40001
1.40001
1.40001
1.40001
1.40001
1.40001
1.40001
1.40001
1.40001
1.40001
1.40001
1.40001
1.40001
1.40001
1.40001
1.40001
1.40001
1.40001
1.40001
1.40001
1.40001
1.40001
1.40001
1.40001
1.40001
1.40001
1.40001
1.40001
1.40001
1.40001
1.40001
1.40001
1.40001
1.40001
1.40001
1.40001
1.40001
1.40001
1.40001
1.40001
1.40001
1.40001
1.40001
1.40001
1.40001
1.40001
1.40001
1.40001
1.40001
1.40001
1.40001
1.40001
1.40001
1.40001
1.40001
1.40001
1.40001
1.40001
1.40001
1.40001
1.40001
1.40001
1.40001
1.40001
1.40001
1.40001
1.40001
1.40001
1.40001
1.40001
1.40001
1.40001
1.40001
1.40001
1.40001
1.40001
1.40001
1.40001
1.40001
1.40001
1.40001
1.40001
1.40001
1.40001
1.40001
1.40001
1.40001
1.40001
1.40001
1.40001
1.40001
1.40001
1.40001
1.40001
1.40001
1.40001
1.40001
1.40001
1.40001
1.40001
1.40001
1.40001
1.40001
1.40001
1.40001
1.40001
1.40001
1.40001
1.40001
1.40001
1.40001
1.40001
1.40001
1.40001
1.40001
1.40001
1.40001
1.40001
1.40001
1.40001
1.40001
1.40001
1.40001
1.40001
1.40001
1.40001
1.40001
1.40001
1.40001
1.40001
1.40001
1.40001
1.40001
1.40001
1.40001
1.40001
1.40001
1.40001
1.40001
1.40001
1.40001
1.40001
1.40001
1.40001
1.40001
1.40001
1.40001
1.40001
1.40001
1.40001
1.40001
1.40001
1.40001
1.40001
1.40001
1.40001
1.40001
1.40001
1.40001
1.40001
1.40001
1.40001
1.40001
1.40001
1.40001
1.40001
1.40001
1.40001
1.40001
1.40001
1.40001
1.40001
1.40001
1.40001
1.40001
1.40001
1.40001
1.40001
1.40001
1.40001
1.40001
1.40001
1.40001
1.40001
1.40001
1.40001
1.40001
1.40001
1.40001
1.40001
1.40001
1.40001
1.40001
1.40001
1.40001
1.40001
1.40001
1.40001
1.40001
1.40001
1.40001
1.40001
1.40001
1.40001
1.40001
1.40001
1.40001
1.40001
1.40001
1.40001
1.40001
1.40001
1.40001
1.40001
1.40001
1.40001
1.40001
1.40001
1.40001
1.40001
1.40001
1.40001
1.40001
1.40001
1.40001
1.40001
1.40001
1.40001
1.40001
1.40001
1.40001
1.40001
1.40001
1.40001
1.40001
1.40001
1.40001
1.40001
1.40001
1.40001
1.40001
1.40001
1.40001
1.40001
1.40001
1.40001
1.40001
1.40001
1.40001
1.40001
1.40001
1.40001
1.40001
1.40001
1.40001
1.40001
1.40001
1.40001
1.40001
1.40001
1.40001
1.40001
1.40001
1.40001
1.40001
1.40001
1.40001
1.40001
1.40001
1.40001
1.40001
1.40001
1.40001
1.40001
1.40001
1.40001
1.40001
1.40001
1.40001
1.40001
1.40001
1.40001
1.40001
1.40001
1.40001
1.40001
1.40001
1.40001
1.40001
1.40001
1.40001
1.40001
1.40001
1.40001
1.40001
1.40001
1.40001
1.40001
1.40001
1.40001
1.40001
1.40001
1.40001
1.40001
1.40001
1.40001
1.40001
1.40001
1.40001
1.40001
1.40001
1.40001
1.40001
1.40001
1.40001
1.40001
1.40001
1.40001
1.40001
1.40001
1.40001
1.40001
1.40001
1.40001
1.40001
1.40001
1.40001
1.39996
1.40001
1.40001
1.40001
1.40001
1.40001
1.40001
1.40001
1.40001
1.40001
1.40001
1.40001
1.40001
1.40001
1.40001
1.3974
1.39982
1.4
1.4
1.40001
1.40001
1.40001
1.40001
1.40001
1.40001
1.40001
1.40001
1.40001
1.40001
1.40001
1.54355
1.40082
1.4
1.4
1.40001
1.40001
1.40001
1.40001
1.40001
1.40001
1.40001
1.40001
1.40001
1.40001
1.40001
2.88943
1.50198
1.40065
1.4
1.4
1.4
1.40001
1.40001
1.40001
1.40001
1.40001
1.40001
1.40001
1.40001
1.40001
4.62381
2.34896
1.46554
1.40073
1.40001
1.4
1.40001
1.40001
1.40001
1.40001
1.40001
1.40001
1.40001
1.40001
1.40001
4.5224
3.56148
1.90707
1.42686
1.40026
1.40001
1.40001
1.40001
1.40001
1.40001
1.40001
1.40001
1.40001
1.40001
1.40001
4.07893
3.99383
2.76369
1.61262
1.40729
1.40007
1.40001
1.40001
1.40001
1.40001
1.40001
1.40001
1.40001
1.40001
1.40001
3.2545
3.91493
3.51929
2.15413
1.4676
1.40115
1.40001
1.4
1.40001
1.40001
1.40001
1.40001
1.40001
1.40001
1.40001
2.26375
3.4192
3.59444
2.9088
1.8326
1.45165
1.40262
1.40007
1.40001
1.40001
1.40001
1.40001
1.40001
1.40001
1.40001
1.72658
2.84457
3.49038
3.29824
2.34892
1.55156
1.40632
1.40013
1.40001
1.40001
1.40001
1.40001
1.40001
1.40001
1.40001
1.35645
2.02388
3.02256
3.27051
2.9891
2.0073
1.46159
1.40157
1.40002
1.40001
1.40001
1.40001
1.40001
1.40001
1.40001
1.17489
1.62257
2.35846
3.11881
3.09772
2.58298
1.68814
1.41466
1.40021
1.40001
1.40001
1.40001
1.40001
1.40001
1.40001
0.992948
1.44122
1.88587
2.66638
3.05759
2.94897
2.16441
1.51094
1.40356
1.40004
1.40001
1.40001
1.40001
1.40001
1.40001
0.827788
1.22333
1.59007
2.15065
2.86348
2.94674
2.60076
1.77346
1.42635
1.40046
1.40001
1.40001
1.40001
1.40001
1.40001
0.779671
0.997346
1.34253
1.83861
2.48797
2.89031
2.82083
2.19707
1.53822
1.40534
1.40007
1.40001
1.40001
1.40001
1.40001
0.792347
0.928279
1.07637
1.5217
2.10466
2.70124
2.81369
2.54745
1.80773
1.43455
1.40069
1.40001
1.40001
1.40001
1.40001
0.813482
0.922077
1.00267
1.26431
1.72513
2.36419
2.75089
2.70137
2.17659
1.55344
1.40675
1.40009
1.40001
1.40001
1.40001
0.800807
0.895508
0.994575
1.21924
1.48276
1.99874
2.55519
2.69045
2.46945
1.79768
1.43698
1.40081
1.40001
1.40001
1.40001
0.753406
0.831367
0.949
1.16129
1.32062
1.69645
2.27122
2.63567
2.59697
2.12966
1.54624
1.40664
1.40009
1.40001
1.40001
0.686055
0.77085
0.920873
1.08982
1.22192
1.49509
1.94935
2.4659
2.58685
2.38061
1.77105
1.43548
1.40081
1.40001
1.40001
0.652635
0.751462
0.896206
0.999789
1.13466
1.39004
1.68936
2.1996
2.53606
2.49857
2.06419
1.53365
1.4061
1.40009
1.40001
0.64735
0.737343
0.856829
0.920982
1.01829
1.26745
1.51224
1.93953
2.3983
2.49264
2.28998
1.7247
1.43031
1.40069
1.40001
0.6515
0.715782
0.817057
0.870309
0.983647
1.18681
1.36003
1.69108
2.16731
2.45529
2.41254
1.98993
1.51085
1.40478
1.40007
0.674049
0.677124
0.773991
0.846344
0.981324
1.11327
1.23925
1.52911
1.92726
2.3408
2.40819
2.20015
1.6763
1.4244
1.40057
0.795225
0.680932
0.726603
0.817383
0.964052
1.04636
1.13503
1.40573
1.72226
2.14775
2.379
2.32856
1.91667
1.49001
1.40363
1.04226
0.733977
0.730336
0.791314
0.920403
0.984258
1.08062
1.29621
1.53248
1.93696
2.3009
2.32701
2.10837
1.6281
1.41948
1.24089
0.892673
0.745482
0.766654
0.867331
0.923431
1.0379
1.23297
1.38995
1.71835
2.13854
2.31061
2.25134
1.83805
1.4711
1.28921
1.09759
0.804001
0.76423
0.812823
0.87666
1.02522
1.1717
1.29616
1.57246
1.94832
2.25834
2.25234
2.02301
1.59243
1.27548
1.22315
0.998944
0.788659
0.77823
0.84217
0.973675
1.06184
1.16243
1.39483
1.66521
2.03771
2.21122
2.15608
1.93198
1.20294
1.08832
0.936647
0.77201
0.719643
0.706791
0.712485
0.709338
0.690699
0.646731
0.607243
0.587807
0.594833
0.63779
0.869075
1.17208
1.23558
1.30654
1.32194
1.29197
0.954867
0.875635
0.764181
0.649157
0.6392
0.652335
0.661542
0.653113
0.62502
0.592024
0.555708
0.558643
0.613369
0.853199
1.1655
1.32347
1.29598
1.30667
1.31808
1.29214
0.737524
0.711725
0.635958
0.571031
0.571369
0.591208
0.600485
0.59018
0.56597
0.529347
0.528412
0.600297
0.864071
1.17457
1.30323
1.33359
1.32013
1.31107
1.31364
1.28659
0.553775
0.570606
0.534832
0.514129
0.522699
0.536465
0.536904
0.529363
0.512226
0.510634
0.608396
0.890166
1.16736
1.32116
1.31567
1.32687
1.32158
1.31222
1.30499
1.27627
0.434052
0.453322
0.462638