/*--------------------------------*- C++ -*----------------------------------*\
  =========                 |
  \\      /  F ield         | OpenFOAM: The Open Source CFD Toolbox
   \\    /   O peration     | Website:  https://openfoam.org
    \\  /    A nd           | Version:  7
     \\/     M anipulation  |
\*---------------------------------------------------------------------------*/
FoamFile
{
    version     2.0;
    format      ascii;
    class       volScalarField;
    location    "4";
    object      T;
}
// * * * * * * * * * * * * * * * * * * * * * * * * * * * * * * * * * * * * * //

dimensions      [0 0 0 1 0 0 0];

internalField   nonuniform List<scalar> 
3700
(
100.599
100.752
100.77
100.788
100.816
100.821
100.845
100.928
101.05
101.114
101.116
101.101
101.081
101.088
101.121
101.124
101.11
101.08
101.064
101.058
100.209
100.203
100.268
100.302
100.343
100.297
100.315
100.432
100.629
100.716
100.696
100.59
100.474
100.491
100.558
100.566
100.526
100.439
100.442
100.432
100.238
100.188
100.161
100.093
100.041
100.022
100.013
100.019
100.007
99.9974
99.9528
99.9365
99.9337
99.9533
99.9851
100.015
100.032
100.039
100.039
100.026
100.297
100.196
100.107
99.9899
99.9733
99.9803
100.016
100.055
100.075
100.088
100.075
100.051
100.025
99.9971
99.9914
100.015
100.041
100.062
100.078
100.095
100.319
100.181
100.019
99.8934
99.878
99.9003
99.9563
100.036
100.08
100.11
100.128
100.126
100.125
100.11
100.087
100.056
100.044
100.057
100.091
100.135
100.318
100.146
99.9611
99.8531
99.8396
99.8728
99.9267
99.9921
100.034
100.086
100.135
100.145
100.164
100.17
100.168
100.16
100.144
100.133
100.13
100.159
100.272
100.098
99.8998
99.845
99.8313
99.8687
99.9222
99.9781
100.018
100.066
100.103
100.133
100.17
100.191
100.203
100.217
100.222
100.225
100.225
100.239
100.152
100.012
99.8517
99.8537
99.8781
99.9527
100.007
100.031
100.043
100.076
100.097
100.122
100.157
100.188
100.216
100.244
100.269
100.287
100.295
100.324
100.045
99.9169
99.8121
99.8672
99.9353
100.03
100.105
100.135
100.157
100.177
100.182
100.196
100.205
100.218
100.236
100.264
100.299
100.334
100.353
100.396
99.9575
99.8434
99.8022
99.8828
99.9557
100.068
100.153
100.183
100.227
100.263
100.285
100.298
100.319
100.329
100.335
100.342
100.356
100.382
100.414
100.455
99.8796
99.7916
99.8227
99.9011
99.9911
100.132
100.186
100.203
100.259
100.306
100.339
100.362
100.388
100.397
100.411
100.424
100.441
100.457
100.498
100.496
99.815
99.7552
99.8425
99.9343
100.088
100.239
100.251
100.283
100.321
100.351
100.382
100.409
100.436
100.451
100.473
100.496
100.519
100.54
100.579
100.569
99.7465
99.7117
99.8417
100.001
100.183
100.314
100.334
100.391
100.439
100.474
100.489
100.501
100.511
100.52
100.537
100.564
100.595
100.623
100.658
100.656
99.6587
99.668
99.8814
100.097
100.285
100.373
100.42
100.474
100.522
100.556
100.571
100.586
100.598
100.614
100.635
100.657
100.681
100.707
100.726
100.736
99.5714
99.687
99.9608
100.204
100.356
100.419
100.481
100.537
100.585
100.619
100.636
100.655
100.675
100.701
100.731
100.754
100.772
100.784
100.78
100.775
99.4529
99.78
100.055
100.27
100.425
100.517
100.591
100.643
100.687
100.706
100.721
100.74
100.763
100.791
100.813
100.823
100.821
100.814
100.79
100.747
99.3454
99.8899
100.219
100.399
100.575
100.687
100.738
100.775
100.798
100.809
100.819
100.834
100.85
100.856
100.855
100.844
100.793
100.678
100.517
100.279
99.5612
100.145
100.452
100.656
100.769
100.816
100.845
100.866
100.877
100.88
100.88
100.881
100.88
100.857
100.771
100.622
100.36
100.102
100.006
99.9978
100.123
100.521
100.737
100.834
100.887
100.907
100.924
100.924
100.919
100.907
100.891
100.836
100.723
100.469
100.147
100.01
99.9966
99.9985
99.9992
99.9998
100.694
100.834
100.912
100.947
100.961
100.955
100.955
100.932
100.842
100.758
100.568
100.227
100.028
99.9957
99.9977
99.9989
99.9998
100
100
100
100.995
100.993
100.991
100.987
100.978
100.95
100.881
100.457
99.8433
100
100
100
100
100
100
100
100
100
100
100
100.992
100.991
100.987
100.975
100.951
100.859
100.496
100.016
100
100
100
100
100
100
100
100
100
100
100
100
100.988
100.99
100.987
100.97
100.915
100.626
100.032
99.9994
100
100
100
100
100
100
100
100
100
100
100
100
100.985
100.99
100.987
100.962
100.799
100.233
99.9966
100
100
100
100
100
100
100
100
100
100
100
100
100
100.981
100.991
100.987
100.92
100.579
99.9919
100
100
100
100
100
100
100
100
100
100
100
100
100
100
100.977
100.992
100.982
100.828
100.268
100
100
100
100
100
100
100
100
100
100
100
100
100
100
100
100.973
100.982
100.968
100.687
99.9927
100
100
100
100
100
100
100
100
100
100
100
100
100
100
100
100.98
100.972
100.912
100.47
100
100
100
100
100
100
100
100
100
100
100
100
100
100
100
100
101.003
100.969
100.818
100.137
100
100
100
100
100
100
100
100
100
100
100
100
100
100
100
100
101.017
100.944
100.678
99.9965
100
100
100
100
100
100
100
100
100
100
100
100
100
100
100
100
101.025
100.905
100.512
100
100
100
100
100
100
100
100
100
100
100
100
100
100
100
100
100
101.03
100.859
100.323
100
100
100
100
100
100
100
100
100
100
100
100
100
100
100
100
100
101.033
100.803
100.125
100
100
100
100
100
100
100
100
100
100
100
100
100
100
100
100
100
101.023
100.742
100.013
100
100
100
100
100
100
100
100
100
100
100
100
100
100
100
100
100
101.008
100.658
100
100
100
100
100
100
100
100
100
100
100
100
100
100
100
100
100
100
100.982
100.553
100
100
100
100
100
100
100
100
100
100
100
100
100
100
100
100
100
100
100.953
100.434
100
100
100
100
100
100
100
100
100
100
100
100
100
100
100
100
100
100
100.919
100.251
100
100
100
100
100
100
100
100
100
100
100
100
100
100
100
100
100
100
100.865
100.006
100
100
100
100
100
100
100
100
100
100
100
100
100
100
100
100
100
100
100.805
100
100
100
100
100
100
100
100
100
100
100
100
100
100
100
100
100
100
100
100.804
100
100
100
100
100
100
100
100
100
100
100
100
100
100
100
100
100
100
100
100.864
100.006
100
100
100
100
100
100
100
100
100
100
100
100
100
100
100
100
100
100
100.92
100.252
100
100
100
100
100
100
100
100
100
100
100
100
100
100
100
100
100
100
100.955
100.436
100
100
100
100
100
100
100
100
100
100
100
100
100
100
100
100
100
100
100.983
100.554
100
100
100
100
100
100
100
100
100
100
100
100
100
100
100
100
100
100
101.008
100.656
100
100
100
100
100
100
100
100
100
100
100
100
100
100
100
100
100
100
101.023
100.74
100.012
100
100
100
100
100
100
100
100
100
100
100
100
100
100
100
100
100
101.032
100.802
100.124
100
100
100
100
100
100
100
100
100
100
100
100
100
100
100
100
100
101.03
100.859
100.321
100
100
100
100
100
100
100
100
100
100
100
100
100
100
100
100
100
101.025
100.905
100.513
100
100
100
100
100
100
100
100
100
100
100
100
100
100
100
100
100
101.016
100.944
100.68
99.9965
100
100
100
100
100
100
100
100
100
100
100
100
100
100
100
100
101.003
100.97
100.819
100.137
100
100
100
100
100
100
100
100
100
100
100
100
100
100
100
100
100.98
100.972
100.914
100.475
100
100
100
100
100
100
100
100
100
100
100
100
100
100
100
100
100.974
100.982
100.969
100.689
99.9927
100
100
100
100
100
100
100
100
100
100
100
100
100
100
100
100.977
100.992
100.982
100.827
100.264
100
100
100
100
100
100
100
100
100
100
100
100
100
100
100
100.981
100.992
100.987
100.918
100.577
99.9919
100
100
100
100
100
100
100
100
100
100
100
100
100
100
100.985
100.99
100.988
100.961
100.798
100.233
99.9966
100
100
100
100
100
100
100
100
100
100
100
100
100
100.989
100.991
100.987
100.97
100.916
100.625
100.03
99.9995
100
100
100
100
100
100
100
100
100
100
100
100
100.992
100.991
100.987
100.975
100.951
100.858
100.494
100.016
100
100
100
100
100
100
100
100
100
100
100
100
100.995
100.993
100.991
100.987
100.978
100.95
100.881
100.459
99.8421
100
100
100
100
100
100
100
100
100
100
100
100.693
100.834
100.911
100.947
100.96
100.955
100.954
100.932
100.842
100.759
100.569
100.228
100.029
99.9957
99.9977
99.9989
99.9998
100
100
100
100.12
100.525
100.739
100.835
100.887
100.907
100.924
100.924
100.918
100.907
100.892
100.836
100.723
100.469
100.147
100.01
99.9966
99.9985
99.9992
99.9998
99.5069
100.091
100.456
100.66
100.77
100.815
100.844
100.866
100.877
100.88
100.88
100.881
100.88
100.857
100.771
100.623
100.36
100.102
100.006
99.9978
99.5183
99.8746
100.187
100.4
100.579
100.689
100.739
100.776
100.798
100.809
100.819
100.833
100.85
100.856
100.856
100.844
100.793
100.678
100.516
100.279
99.5617
99.8592
100.063
100.263
100.416
100.519
100.593
100.645
100.688
100.707
100.721
100.74
100.763
100.791
100.813
100.823
100.821
100.814
100.79
100.746
99.4841
99.8023
99.9843
100.209
100.351
100.411
100.476
100.534
100.584
100.617
100.635
100.654
100.674
100.7
100.731
100.754
100.772
100.784
100.78
100.775
99.4728
99.6521
99.9051
100.11
100.283
100.363
100.414
100.471
100.52
100.556
100.57
100.586
100.598
100.614
100.635
100.658
100.681
100.707
100.726
100.736
99.514
99.6511
99.8589
99.9999
100.192
100.306
100.328
100.389
100.44
100.476
100.491
100.503
100.512
100.521
100.538
100.564
100.594
100.622
100.658
100.656
99.5843
99.6926
99.8659
99.9404
100.098
100.243
100.245
100.282
100.326
100.354
100.383
100.409
100.436
100.451
100.472
100.495
100.519
100.54
100.579
100.569
99.686
99.7396
99.8594
99.9079
99.9991
100.155
100.186
100.202
100.259
100.306
100.34
100.362
100.389
100.398
100.412
100.424
100.441
100.458
100.498
100.495
99.8095
99.7917
99.8467
99.8778
99.9583
100.09
100.157
100.187
100.231
100.267
100.289
100.302
100.322
100.331
100.337
100.344
100.356
100.38
100.413
100.455
99.9374
99.8639
99.8272
99.8564
99.9413
100.045
100.114
100.144
100.167
100.186
100.191
100.203
100.212
100.223
100.237
100.261
100.296
100.332
100.353
100.396
100.029
99.9504
99.835
99.8334
99.8964
99.9615
100.022
100.048
100.055
100.081
100.098
100.122
100.154
100.184
100.212
100.241
100.267
100.287
100.295
100.325
100.125
100.042
99.8783
99.8368
99.8535
99.8754
99.9298
99.9857
100.021
100.066
100.102
100.13
100.166
100.188
100.201
100.216
100.223
100.227
100.226
100.241
100.279
100.126
99.9516
99.8523
99.862
99.8806
99.9318
99.9991
100.036
100.085
100.132
100.142
100.162
100.17
100.168
100.163
100.148
100.137
100.132
100.157
100.348
100.199
100.032
99.9023
99.8963
99.9114
99.9627
100.044
100.082
100.108
100.126
100.124
100.125
100.113
100.093
100.062
100.045
100.054
100.087
100.133
100.348
100.228
100.119
100.008
99.9883
100.006
100.024
100.061
100.079
100.085
100.077
100.055
100.031
100.003
99.9932
100.011
100.038
100.059
100.076
100.095
100.32
100.217
100.162
100.097
100.054
100.039
100.02
100.024
100.016
99.9983
99.9578
99.9397
99.9354
99.9509
99.9796
100.01
100.028
100.037
100.04
100.029
100.283
100.265
100.303
100.317
100.337
100.439
100.544
100.564
100.522
100.491
100.539
100.631
100.633
100.569
100.399
100.356
100.402
100.492
100.534
100.492
100.633
100.778
100.815
100.814
100.819
100.865
100.913
100.962
101.014
101.047
101.093
101.127
101.126
101.11
101.061
101.046
101.07
101.096
101.092
101.075
101.058
101.02
101.005
100.999
100.973
100.942
100.909
100.897
100.896
100.893
100.879
100.859
100.841
100.836
100.837
100.833
100.821
100.809
100.802
100.79
100.615
100.626
100.698
100.743
100.766
100.78
100.796
100.807
100.812
100.811
100.809
100.805
100.797
100.793
100.792
100.791
100.787
100.783
100.778
100.764
100.021
100.048
100.183
100.286
100.405
100.494
100.572
100.629
100.645
100.657
100.677
100.687
100.693
100.694
100.693
100.696
100.704
100.709
100.708
100.698
100.078
100.088
100.095
100.094
100.109
100.195
100.361
100.461
100.486
100.517
100.559
100.574
100.581
100.584
100.586
100.592
100.605
100.613
100.614
100.608
100.134
100.135
100.13
100.133
100.143
100.141
100.164
100.257
100.355
100.419
100.472
100.503
100.514
100.514
100.512
100.516
100.528
100.534
100.535
100.529
100.185
100.184
100.165
100.16
100.163
100.171
100.177
100.171
100.192
100.271
100.372
100.448
100.476
100.48
100.477
100.478
100.484
100.486
100.485
100.478
100.241
100.233
100.205
100.194
100.201
100.207
100.21
100.206
100.189
100.177
100.228
100.344
100.427
100.46
100.456
100.457
100.458
100.457
100.456
100.449
100.305
100.288
100.252
100.226
100.223
100.23
100.237
100.234
100.221
100.187
100.173
100.209
100.318
100.408
100.435
100.444
100.441
100.439
100.44
100.432
100.368
100.343
100.307
100.269
100.254
100.256
100.259
100.255
100.242
100.216
100.177
100.173
100.195
100.292
100.388
100.425
100.419
100.424
100.425
100.417
100.432
100.405
100.367
100.32
100.29
100.274
100.274
100.269
100.257
100.234
100.205
100.179
100.178
100.19
100.282
100.371
100.387
100.41
100.41
100.399
100.525
100.457
100.419
100.378
100.322
100.288
100.282
100.284
100.275
100.258
100.232
100.205
100.189
100.18
100.183
100.229
100.31
100.364
100.368
100.362
100.62
100.536
100.476
100.444
100.406
100.349
100.309
100.296
100.281
100.26
100.24
100.222
100.204
100.185
100.166
100.156
100.17
100.221
100.276
100.303
100.609
100.588
100.534
100.474
100.434
100.395
100.336
100.301
100.293
100.279
100.264
100.245
100.221
100.197
100.174
100.153
100.142
100.131
100.144
100.201
100.488
100.547
100.541
100.514
100.466
100.427
100.383
100.331
100.314
100.296
100.273
100.242
100.213
100.188
100.171
100.152
100.134
100.115
100.101
100.094
100.25
100.376
100.446
100.482
100.474
100.448
100.413
100.364
100.322
100.286
100.262
100.239
100.209
100.19
100.18
100.165
100.143
100.118
100.092
100.066
100.043
100.145
100.254
100.337
100.388
100.414
100.406
100.382
100.343
100.301
100.267
100.246
100.221
100.197
100.172
100.147
100.124
100.102
100.083
100.059
100.002
100.015
100.066
100.155
100.233
100.289
100.329
100.349
100.339
100.316
100.281
100.245
100.216
100.186
100.159
100.132
100.113
100.099
100.09
100.067
100
100
100.003
100.025
100.078
100.148
100.208
100.25
100.279
100.291
100.282
100.259
100.228
100.195
100.17
100.147
100.123
100.105
100.088
100.055
100
100
100
100.001
100.006
100.03
100.081
100.14
100.187
100.217
100.24
100.244
100.236
100.215
100.187
100.159
100.128
100.101
100.08
100.049
100
100
100
100
100
100.001
100.008
100.033
100.078
100.129
100.169
100.192
100.211
100.21
100.201
100.182
100.156
100.125
100.1
100.069
100
100
100
100
100
100
100
100.002
100.008
100.031
100.073
100.118
100.154
100.174
100.186
100.184
100.178
100.161
100.136
100.097
100
100
100
100
100
100
100
100
100
100.001
100.008
100.029
100.065
100.107
100.14
100.159
100.168
100.167
100.162
100.137
100
100
100
100
100
100
100
100
100
100
100
100.001
100.007
100.024
100.057
100.097
100.127
100.146
100.154
100.15
100
100
100
100
100
100
100
100
100
100
100
100
100
100.001
100.005
100.02
100.048
100.084
100.114
100.137
100
100
100
100
100
100
100
100
100
100
100
100
100
100
100
100.001
100.004
100.016
100.041
100.104
100.597
100.652
100.61
100.417
100.143
100.017
100.001
100
100
100
100
100
100
100
100
100.67
100.662
100.519
100.218
100.022
100
100
100
100
100
100
100
100
100
100
100.705
100.636
100.374
100.074
100.002
100
100
100
100
100
100
100
100
100
100
100.72
100.517
100.167
100.009
100
100
100
100
100
100
100
100
100
100
100
100.651
100.283
100.024
100
100
100
100
100
100
100
100
100
100
100
100
100.397
100.038
100
100
100
100
100
100
100
100
100
100
100
100
100
100.043
100
100
100
100
100
100
100
100
100
100
100
100
100
100
99.9995
100
100
100
100
100
100
100
100
100
100
100
100
100
100
100
100
100
100
100
100
100
100
100
100
100
100
100
100
100
100
100
100
100
100
100
100
100
100
100
100
100
100
100
100
100
100
100
100
100
100
100
100
100
100
100
100
100
100
100
100
100
100
100
100
100
100
100
100
100
100
100
100
100
100
100
100
100
100
100
100
100
100
100
100
100
100
100
100
100
100
100
100
100
100
100
100
100
100
100
100
100
100
100
100
100
100
100
100
100
100
100
100
100
100
100
100
100
100
100
100
100
100
100
100
100
100
100
100
100
100
100
100
100
100
100
100
100
100
100
100
100
100
100
100
100
100
100
100
100
100
100
100
100
100
100
100
100
100
100
100
100
100
100
100
100
100
100
100
100
100
100
100
100
100
100
100
100
100
100
100
100
100
100
100
100
100
100
100
100
100
100
100
100
100
100
100
100
100
100
100
100
100
100
100
100
100
100
100
100
100
100
100
100
100
100
100
100
100
100
100
100
100
100
100
100
100
100
100
100
100
100
100
100
100
100
100
100
100
100
100
100
100
100
100
100
100
100
100
100
100
100
100
100
100
100
100
100
100
100
100
100
100
100
100
100
100
100
100
100
100
100
100
100
100
100
100
100
100
100
100
100
100
100
100
100
100
100
100
100
100
100
100
100
100
100
100
100
100
100
100
100
100
100
100
100
100
100
100
100
100
100
100
100
100
100
100
100
100
100
100
100
100
100
100
100
100
100
100
100
100
100
100
100
100
100
100
100
100
100
100
100
100
100
100
100
100
100
100
100
100
100
100
100
100
100
100
100
100
100
100
100
100
100
100
100
100
100
100
100
100
100
100
100
100
100
100
100
100
100
100
100
100
100
100
100
100
100
100
100
100
100
100
100
100
100
100
100
100
100
100
100
100
100
100
100
100
100
100
100
100
100
100
100
100
100
100
100
100
100
100
100
100
100
100
100
100
100
100
100
100
100
100
100
100
100
100
100
100
100
100
100
100
100
100
100
100
100
100
100
100
100
100
100
100
100
100
100
100
100
100
100
100
100
100
100
100
100
100
100
100
100
100
100
100
100
100
100
100
100
100
100
100
100
100
100
100
100
100
100
100
100
100
100
100
100
100
100
100
100
100
100
100
100
100
100
100
100
100
100
100
100
100
100
100
100
100
100
100
100
100
100
100
100
100
100
100
100
100
100
100
100
100
100
100
100
100
100
100
100
100
100
100
100
100
100
100
100
100
100
100
100
100
100
100
100
100
100
100
100
100
100
100
100
100
100
100
100
100
100
100
100
100
100
100
100
100
100
100
100
100
100
100
100
100
100
100
100
100
100
100
100
100
100
100
100
100
100
100
100
100
100
100
100
100
100
100
100
100
100
100
100
100
100
100
100
100
100
100
100
100
100
100
100
100
100
100
100
100
100
100
100
100
100
100
100
100
100
100
100
100
100
100
100
100
100
100
100
100
100
100
100
100
100
100
100
100
100
100
100
100
100
100
100
100
100
100
100
100
100
100
100
100
100
100
100
100
100
100
100
100
100
100
100
100
100
100
100
100
100
100
100
100
100
100
100
100
100
100
100
100
100
100
100
100
100
100
100
100
100
100
100
100
100
100
100
100
100
100
100
100
100
100
100
100
100
100
100
100
100
100
100
100
100
100
100
100
100
100
100
100
100
100
100
100
100
100
100
100
100
100
100
100
100
100
100
100
100
100
100
100
100
100
100
100
100
100
100
100
100
100
100
100
100
100
100
100
100
100
100
100
100
100
100
100
100
100
100
100
100
100
100
100
100
100
100
100
100
100
100
100
100
100
100
100
100
100
100
100
100
100
100
100
100
100
100
100
100
100
100
100
100
100
100
100
100
100
100
100
100
100
100
100
100
100
100
100
100
100
100
100
100
100
100
100
100
100
100
100
100
100
100
100
100
100
100
100
100
100
100
100
100
100
100
100
100
100
100
100
100
100
100
100
100
100
99.9995
100
100
100
100
100
100
100
100
100
100
100
100
100
100
100.043
100
100
100
100
100
100
100
100
100
100
100
100
100
100
100.396
100.038
100
100
100
100
100
100
100
100
100
100
100
100
100
100.651
100.283
100.024
100
100
100
100
100
100
100
100
100
100
100
100
100.72
100.517
100.167
100.009
100
100
100
100
100
100
100
100
100
100
100
100.705
100.636
100.374
100.074
100.002
100
100
100
100
100
100
100
100
100
100
100.67
100.662
100.519
100.218
100.022
100
100
100
100
100
100
100
100
100
100
100.597
100.652
100.61
100.417
100.143
100.017
100.001
100
100
100
100
100
100
100
100
100.526
100.62
100.609
100.488
100.25
100.043
100.002
100
100
100
100
100
100
100
100
100.457
100.537
100.587
100.547
100.376
100.145
100.015
100
100
100
100
100
100
100
100
100.416
100.476
100.534
100.541
100.446
100.254
100.066
100.003
100
100
100
100
100
100
100
100.372
100.444
100.477
100.514
100.482
100.337
100.155
100.025
100.001
100
100
100
100
100
100
100.317
100.403
100.435
100.467
100.474
100.388
100.233
100.078
100.006
100
100
100
100
100
100
100.288
100.345
100.394
100.429
100.448
100.415
100.289
100.148
100.03
100.001
100
100
100
100
100
100.287
100.312
100.333
100.384
100.412
100.406
100.329
100.208
100.081
100.008
100
100
100
100
100
100.287
100.3
100.298
100.33
100.364
100.381
100.349
100.25
100.14
100.033
100.002
100
100
100
100
100.279
100.285
100.29
100.313
100.322
100.343
100.339
100.279
100.187
100.078
100.008
100
100
100
100
100.259
100.264
100.277
100.295
100.287
100.301
100.316
100.291
100.217
100.129
100.031
100.001
100
100
100
100.229
100.244
100.265
100.273
100.262
100.267
100.281
100.282
100.24
100.169
100.073
100.008
100
100
100
100.201
100.225
100.248
100.243
100.239
100.246
100.245
100.258
100.244
100.192
100.118
100.029
100.001
100
100
100.186
100.205
100.223
100.213
100.209
100.22
100.216
100.228
100.236
100.211
100.154
100.065
100.007
100
100
100.18
100.184
100.197
100.188
100.19
100.197
100.186
100.195
100.215
100.21
100.174
100.107
100.024
100.001
100
100.182
100.164
100.174
100.171
100.179
100.172
100.159
100.17
100.187
100.201
100.186
100.14
100.057
100.005
100
100.228
100.156
100.152
100.153
100.165
100.147
100.132
100.147
100.159
100.182
100.184
100.159
100.097
100.02
100.001
100.309
100.169
100.142
100.134
100.143
100.124
100.114
100.123
100.128
100.156
100.178
100.168
100.127
100.048
100.004
100.364
100.221
100.131
100.114
100.118
100.102
100.099
100.105
100.101
100.125
100.161
100.167
100.146
100.084
100.016
100.368
100.276
100.144
100.101
100.092
100.083
100.091
100.087
100.08
100.1
100.136
100.162
100.154
100.114
100.041
100.363
100.303
100.201
100.094
100.066
100.059
100.067
100.055
100.048
100.069
100.097
100.137
100.15
100.137
100.104
100.43
100.407
100.368
100.317
100.288
100.272
100.27
100.265
100.256
100.233
100.203
100.177
100.176
100.19
100.282
100.37
100.387
100.41
100.41
100.399
100.368
100.345
100.31
100.269
100.256
100.257
100.256
100.251
100.237
100.215
100.178
100.172
100.194
100.292
100.387
100.426
100.42
100.424
100.425
100.417
100.306
100.289
100.256
100.227
100.225
100.233
100.236
100.231
100.216
100.183
100.172
100.205
100.315
100.409
100.437
100.444
100.441
100.439
100.44
100.432
100.238
100.235
100.209
100.194
100.199
100.207
100.21
100.206
100.19
100.179
100.226
100.339
100.426
100.46
100.457
100.458
100.458
100.457
100.456
100.448
100.184
100.183
100.174
100.169
100.17
100.175
100.18
100.173
100.196
100.275
100.37
100.446
100.476
100.479
100.476
100.477
100.483
100.485
100.485
100.478
100.133
100.135
100.127
100.132
100.136
100.136
100.162
100.254
100.361
100.427
100.474
100.5
100.511
100.512
100.511
100.516
100.528
100.534
100.536
100.53
100.077
100.082
100.096
100.094
100.12
100.212
100.361
100.451
100.485
100.524
100.563
100.572
100.576
100.58
100.584
100.594
100.608
100.616
100.617
100.612
100.019
100.09
100.177
100.264
100.428
100.523
100.575
100.614
100.637
100.664
100.686
100.687
100.689
100.691
100.695
100.701
100.709
100.713
100.712
100.703
100.534
100.669
100.711
100.724
100.77
100.809
100.803
100.795
100.802
100.813
100.814
100.806
100.796
100.793
100.794
100.795
100.793
100.787
100.782
100.769
101.033
101.029
101.014
100.994
100.97
100.946
100.913
100.894
100.891
100.887
100.873
100.854
100.84
100.836
100.838
100.837
100.827
100.813
100.805
100.791
)
;

boundaryField
{
    inlet
    {
        type            fixedValue;
        value           uniform 100;
    }
    outlet
    {
        type            inletOutlet;
        inletValue      uniform 100;
        value           nonuniform List<scalar> 
50
(
100.362
100.303
100.201
100.094
100.066
100.059
100.067
100.055
100.049
100.069
100.097
100.137
100.15
100.136
100.104
100.79
100.764
100.698
100.608
100.529
100.477
100.449
100.432
100.417
100.399
100.399
100.417
100.432
100.448
100.477
100.53
100.612
100.703
100.769
100.791
100.363
100.303
100.201
100.094
100.066
100.059
100.067
100.055
100.048
100.069
100.097
100.137
100.15
100.137
100.104
)
;
    }
    airfoil
    {
        type            zeroGradient;
    }
    top
    {
        type            symmetryPlane;
    }
    bottom
    {
        type            symmetryPlane;
    }
    defaultFaces
    {
        type            empty;
    }
}


// ************************************************************************* //
