/*--------------------------------*- C++ -*----------------------------------*\
  =========                 |
  \\      /  F ield         | OpenFOAM: The Open Source CFD Toolbox
   \\    /   O peration     | Website:  https://openfoam.org
    \\  /    A nd           | Version:  7
     \\/     M anipulation  |
\*---------------------------------------------------------------------------*/
FoamFile
{
    version     2.0;
    format      ascii;
    class       volVectorField;
    location    "4";
    object      U;
}
// * * * * * * * * * * * * * * * * * * * * * * * * * * * * * * * * * * * * * //

dimensions      [0 1 -1 0 0 0 0];

internalField   nonuniform List<vector> 
3700
(
(1.37163 -0.577864 0)
(1.27701 -0.626293 0)
(1.18663 -0.479963 0)
(1.19745 -0.452065 0)
(1.25652 -0.38164 0)
(1.39413 -0.390806 0)
(1.47362 -0.385407 0)
(1.48214 -0.34094 0)
(1.4531 -0.188254 0)
(1.51658 -0.0592487 0)
(1.58522 -0.0651091 0)
(1.61595 -0.170174 0)
(1.63964 -0.264582 0)
(1.62162 -0.262973 0)
(1.61857 -0.186185 0)
(1.69943 -0.11881 0)
(1.76986 -0.155572 0)
(1.83277 -0.240824 0)
(1.85588 -0.234558 0)
(1.86538 -0.221184 0)
(1.48627 -1.45704 0)
(1.50509 -1.53535 0)
(1.6309 -1.70546 0)
(1.72986 -1.83216 0)
(1.76197 -1.77182 0)
(1.81153 -1.76771 0)
(1.81149 -1.67411 0)
(1.74248 -1.52949 0)
(1.66242 -1.18439 0)
(1.73555 -0.953343 0)
(1.86482 -0.904253 0)
(2.01484 -1.10582 0)
(2.0399 -1.32672 0)
(1.99387 -1.35713 0)
(1.95284 -1.22205 0)
(2.01 -1.11044 0)
(2.15989 -1.19873 0)
(2.25256 -1.20462 0)
(2.31658 -1.15662 0)
(2.36272 -1.11109 0)
(1.48534 -1.41718 0)
(1.69723 -1.55052 0)
(1.93331 -2.00539 0)
(1.93972 -2.28604 0)
(1.9221 -2.36407 0)
(1.98066 -2.31086 0)
(1.99361 -2.2114 0)
(1.98122 -2.20665 0)
(2.0279 -2.15337 0)
(2.12194 -2.08842 0)
(2.24692 -2.01892 0)
(2.33635 -1.98562 0)
(2.41619 -1.92161 0)
(2.42185 -1.92938 0)
(2.4186 -1.87819 0)
(2.41873 -1.81692 0)
(2.43437 -1.80366 0)
(2.46529 -1.67899 0)
(2.52603 -1.65324 0)
(2.62763 -1.52849 0)
(1.54439 -1.41008 0)
(1.89563 -1.41315 0)
(2.06442 -2.03252 0)
(2.05534 -2.29812 0)
(2.08399 -2.3157 0)
(2.14072 -2.29397 0)
(2.15083 -2.20797 0)
(2.06045 -2.1922 0)
(2.07298 -2.13577 0)
(2.14821 -1.99964 0)
(2.24082 -1.87544 0)
(2.40251 -1.7856 0)
(2.54241 -1.62998 0)
(2.65963 -1.55103 0)
(2.72019 -1.52936 0)
(2.71704 -1.53608 0)
(2.63884 -1.61591 0)
(2.61045 -1.50901 0)
(2.57445 -1.53042 0)
(2.61133 -1.35666 0)
(1.63175 -1.44589 0)
(2.06173 -1.41596 0)
(2.14274 -2.04129 0)
(2.07979 -2.26752 0)
(2.16556 -2.22464 0)
(2.2222 -2.24297 0)
(2.27448 -2.11839 0)
(2.22582 -2.05786 0)
(2.19759 -2.07142 0)
(2.23293 -1.97897 0)
(2.25025 -1.89629 0)
(2.36344 -1.74522 0)
(2.44753 -1.65263 0)
(2.58916 -1.55135 0)
(2.71446 -1.37782 0)
(2.79087 -1.15986 0)
(2.80864 -1.11572 0)
(2.81957 -1.07391 0)
(2.73619 -1.1802 0)
(2.66038 -1.19077 0)
(1.72124 -1.5086 0)
(2.10934 -1.46456 0)
(2.01103 -2.09619 0)
(1.91163 -2.2467 0)
(2.09138 -2.18054 0)
(2.20359 -2.22351 0)
(2.27319 -2.09438 0)
(2.28763 -1.98174 0)
(2.32394 -1.91653 0)
(2.44765 -1.76703 0)
(2.42123 -1.82971 0)
(2.47163 -1.66038 0)
(2.50108 -1.55018 0)
(2.55563 -1.4736 0)
(2.6275 -1.36401 0)
(2.6805 -1.22041 0)
(2.77555 -1.06372 0)
(2.86368 -0.860658 0)
(2.87479 -0.733286 0)
(2.76406 -0.74396 0)
(1.8042 -1.59827 0)
(1.96959 -1.62053 0)
(1.78176 -2.15848 0)
(1.78363 -2.20283 0)
(1.96571 -2.08568 0)
(2.0628 -2.01691 0)
(2.19729 -2.0034 0)
(2.39195 -1.81028 0)
(2.47705 -1.7899 0)
(2.56345 -1.58274 0)
(2.57646 -1.59326 0)
(2.65166 -1.43612 0)
(2.62959 -1.40327 0)
(2.63545 -1.31745 0)
(2.64957 -1.20223 0)
(2.66135 -1.08959 0)
(2.69841 -1.00102 0)
(2.78892 -0.898688 0)
(2.80398 -0.664761 0)
(2.80486 -0.499083 0)
(1.70455 -1.56456 0)
(1.71747 -1.7078 0)
(1.57365 -2.09626 0)
(1.66496 -2.09743 0)
(1.7659 -1.99334 0)
(1.93301 -1.87134 0)
(2.02773 -1.89768 0)
(2.24049 -1.68801 0)
(2.43235 -1.57093 0)
(2.60269 -1.41043 0)
(2.66627 -1.27099 0)
(2.73557 -1.11303 0)
(2.73932 -1.06588 0)
(2.74655 -1.01143 0)
(2.74671 -0.904846 0)
(2.7242 -0.83963 0)
(2.70815 -0.748282 0)
(2.73611 -0.755169 0)
(2.73961 -0.624638 0)
(2.73356 -0.403576 0)
(1.49309 -1.44055 0)
(1.49275 -1.59399 0)
(1.4462 -1.90025 0)
(1.57918 -1.95101 0)
(1.69682 -1.95776 0)
(1.86161 -1.8082 0)
(1.96954 -1.83226 0)
(2.14917 -1.65615 0)
(2.27805 -1.50609 0)
(2.42772 -1.42942 0)
(2.55983 -1.1557 0)
(2.67523 -0.977609 0)
(2.70433 -0.722563 0)
(2.75145 -0.621204 0)
(2.75831 -0.471552 0)
(2.7532 -0.449188 0)
(2.73859 -0.356819 0)
(2.71237 -0.413593 0)
(2.71034 -0.435339 0)
(2.66455 -0.232915 0)
(1.32886 -1.25083 0)
(1.40216 -1.35331 0)
(1.41191 -1.69903 0)
(1.56573 -1.85107 0)
(1.67322 -1.91101 0)
(1.93727 -1.69908 0)
(2.07288 -1.75266 0)
(2.24391 -1.58764 0)
(2.32018 -1.42956 0)
(2.39237 -1.34767 0)
(2.49067 -1.13503 0)
(2.57981 -0.979548 0)
(2.62516 -0.732019 0)
(2.73179 -0.621311 0)
(2.71129 -0.348318 0)
(2.7242 -0.2237 0)
(2.69906 -0.0533452 0)
(2.6626 -0.0352914 0)
(2.64012 -0.102004 0)
(2.61614 -0.0546762 0)
(1.25414 -1.069 0)
(1.3568 -1.12636 0)
(1.45901 -1.55817 0)
(1.5755 -1.84874 0)
(1.70489 -1.81824 0)
(2.0372 -1.64769 0)
(2.25206 -1.57011 0)
(2.45587 -1.24007 0)
(2.5606 -1.13012 0)
(2.57794 -1.06877 0)
(2.60645 -0.891279 0)
(2.63277 -0.720724 0)
(2.62885 -0.552806 0)
(2.6702 -0.463714 0)
(2.64886 -0.280456 0)
(2.66557 -0.175913 0)
(2.63752 0.0134987 0)
(2.59748 0.153838 0)
(2.53009 0.235947 0)
(2.56729 0.120454 0)
(1.19385 -0.970052 0)
(1.32639 -1.03421 0)
(1.60011 -1.4864 0)
(1.62792 -1.90195 0)
(2.12081 -1.65323 0)
(2.55586 -1.56062 0)
(2.78598 -1.35 0)
(2.81261 -0.82217 0)
(2.80283 -0.62728 0)
(2.73198 -0.454473 0)
(2.72081 -0.344756 0)
(2.69408 -0.187825 0)
(2.67201 -0.102781 0)
(2.64822 -0.0155924 0)
(2.61038 0.0481175 0)
(2.58121 0.068494 0)
(2.55689 0.112506 0)
(2.51103 0.228712 0)
(2.44089 0.378413 0)
(2.44767 0.36186 0)
(1.12002 -0.936527 0)
(1.34437 -1.09088 0)
(1.79072 -1.49957 0)
(2.09212 -2.05792 0)
(2.59146 -1.46178 0)
(2.52761 -1.42618 0)
(2.60704 -1.12442 0)
(2.64167 -0.747355 0)
(2.63632 -0.649164 0)
(2.63036 -0.354731 0)
(2.6526 -0.161487 0)
(2.60287 0.0781511 0)
(2.58928 0.210557 0)
(2.52812 0.365868 0)
(2.48696 0.434594 0)
(2.4493 0.449382 0)
(2.41667 0.443249 0)
(2.40281 0.425958 0)
(2.32426 0.538536 0)
(2.31858 0.525823 0)
(0.959866 -0.926957 0)
(1.42595 -1.2632 0)
(2.31841 -1.62642 0)
(2.28835 -1.77419 0)
(2.34284 -1.39509 0)
(2.3654 -1.21777 0)
(2.43589 -0.87252 0)
(2.47561 -0.616796 0)
(2.48399 -0.42803 0)
(2.5116 -0.250104 0)
(2.52764 -0.0412376 0)
(2.48261 0.181043 0)
(2.46468 0.329653 0)
(2.39883 0.490596 0)
(2.3415 0.609375 0)
(2.29932 0.659503 0)
(2.22523 0.740412 0)
(2.20534 0.732083 0)
(2.18782 0.75136 0)
(2.15021 0.774898 0)
(0.78892 -0.911985 0)
(1.70779 -1.87651 0)
(2.23153 -1.67008 0)
(2.09086 -1.42627 0)
(2.20665 -1.19957 0)
(2.39762 -0.79401 0)
(2.47047 -0.338387 0)
(2.49778 -0.123537 0)
(2.44803 0.121791 0)
(2.4602 0.229622 0)
(2.40882 0.402892 0)
(2.34073 0.539567 0)
(2.29026 0.625564 0)
(2.23013 0.709476 0)
(2.17968 0.761543 0)
(2.13695 0.800564 0)
(2.07541 0.871508 0)
(2.04956 0.909698 0)
(2.03037 0.944285 0)
(2.06049 0.957498 0)
(1.10453 -0.829651 0)
(1.52186 -1.79031 0)
(1.96333 -1.54563 0)
(2.15499 -0.914228 0)
(2.3614 -0.568088 0)
(2.43005 -0.0450388 0)
(2.44936 0.195943 0)
(2.3906 0.413414 0)
(2.33474 0.518552 0)
(2.29913 0.655162 0)
(2.20823 0.791829 0)
(2.12024 0.891914 0)
(2.05998 0.94124 0)
(2.00904 0.983748 0)
(1.98197 0.973912 0)
(1.96026 0.982853 0)
(1.95591 1.00847 0)
(1.97123 0.995304 0)
(1.99493 0.996588 0)
(2.06875 0.98206 0)
(1.21853 -0.455374 0)
(1.88381 -0.726666 0)
(2.16549 -0.923631 0)
(2.28975 0.15734 0)
(2.3547 0.295333 0)
(2.3416 0.399909 0)
(2.28852 0.5245 0)
(2.20588 0.664098 0)
(2.14565 0.75737 0)
(2.09383 0.889003 0)
(1.98337 1.00096 0)
(1.91803 1.0603 0)
(1.87868 1.08375 0)
(1.86346 1.09151 0)
(1.86759 1.0581 0)
(1.89563 1.04854 0)
(1.96198 1.02017 0)
(2.16354 0.901499 0)
(2.37968 0.791503 0)
(2.77554 0.444444 0)
(1.16129 -0.0998382 0)
(1.91013 -0.295096 0)
(2.21008 0.488178 0)
(2.25055 0.521042 0)
(2.1994 0.631254 0)
(2.14924 0.738994 0)
(2.03144 0.897238 0)
(1.96349 0.965823 0)
(1.91065 1.03196 0)
(1.85593 1.12052 0)
(1.79297 1.15603 0)
(1.79103 1.14807 0)
(1.80787 1.12748 0)
(1.84804 1.08484 0)
(2.04053 0.947428 0)
(2.25643 0.827306 0)
(2.65902 0.505636 0)
(3.03407 0.0935214 0)
(3.05595 -0.0240477 0)
(3.00415 -0.00476138 0)
(1.00754 0.027565 0)
(1.91122 0.82939 0)
(2.12032 0.804292 0)
(1.99882 0.963027 0)
(1.96033 0.98447 0)
(1.86422 1.08299 0)
(1.78702 1.1342 0)
(1.75944 1.147 0)
(1.75886 1.16266 0)
(1.73912 1.20297 0)
(1.72293 1.19193 0)
(1.86943 1.06277 0)
(2.10059 0.879832 0)
(2.50466 0.574014 0)
(2.9884 0.134187 0)
(3.0743 -0.0301152 0)
(3.00825 -0.0077609 0)
(3.00297 -0.00387189 0)
(3.00124 -0.00221195 0)
(3.00008 -0.000482879 0)
(1.16065 0.772607 0)
(1.83247 1.14163 0)
(1.83612 1.15286 0)
(1.74302 1.19246 0)
(1.71564 1.19792 0)
(1.66127 1.24228 0)
(1.65289 1.21744 0)
(1.72418 1.16894 0)
(1.75852 1.2378 0)
(1.79905 1.14388 0)
(2.28582 0.732047 0)
(2.86652 0.201552 0)
(3.0968 -0.0294256 0)
(3.0204 -0.0123978 0)
(3.00461 -0.00547148 0)
(3.00188 -0.00304082 0)
(3.00006 -0.000589477 0)
(2.99998 -2.32778e-05 0)
(2.99999 1.44743e-05 0)
(3 5.94366e-06 0)
(1.57638 1.25538 0)
(1.58181 1.26038 0)
(1.5934 1.2656 0)
(1.60404 1.26477 0)
(1.60982 1.25864 0)
(1.59706 1.26833 0)
(1.88825 1.18219 0)
(2.97171 0.399921 0)
(3.3455 -0.623019 0)
(3 -1.02737e-11 0)
(3 7.62416e-11 0)
(3 -5.03667e-12 0)
(3 2.22574e-10 0)
(3 -2.03768e-10 0)
(3 3.09588e-13 0)
(3 3.04525e-13 0)
(3 9.68287e-14 0)
(3 2.78667e-14 0)
(3 1.23739e-14 0)
(3 -2.68997e-15 0)
(1.5759 1.24432 0)
(1.59 1.25513 0)
(1.60352 1.26656 0)
(1.61169 1.27587 0)
(1.65559 1.26859 0)
(1.76855 1.19929 0)
(2.26859 0.739853 0)
(2.9971 0.0130536 0)
(3 4.67265e-08 0)
(3 9.72211e-11 0)
(3 -4.30231e-13 0)
(3 1.99519e-14 0)
(3 -1.37776e-13 0)
(3 1.25685e-13 0)
(3 -1.48093e-15 0)
(3 -2.26995e-16 0)
(3 4.2142e-16 0)
(3 1.8297e-15 0)
(3 7.00047e-16 0)
(3 3.06489e-17 0)
(1.58143 1.25211 0)
(1.60085 1.25661 0)
(1.61458 1.25942 0)
(1.60688 1.28195 0)
(1.68272 1.22945 0)
(2.21993 0.783014 0)
(3.00003 -0.00466397 0)
(3.00011 -0.000445361 0)
(3 7.83447e-07 0)
(3 5.35728e-11 0)
(3 -7.58718e-14 0)
(3 -2.48993e-15 0)
(3 -1.25749e-15 0)
(3 -5.89602e-16 0)
(3 -2.07973e-15 0)
(3 -1.28989e-15 0)
(3 3.38267e-16 0)
(3 9.33083e-16 0)
(3 8.77261e-16 0)
(3 7.58803e-16 0)
(1.5866 1.25733 0)
(1.6037 1.26019 0)
(1.62272 1.26087 0)
(1.62883 1.27062 0)
(1.89554 1.06263 0)
(2.75016 0.223528 0)
(3.00466 -0.000948741 0)
(2.99992 6.99871e-05 0)
(3 -9.05938e-07 0)
(3 8.95254e-10 0)
(3 5.47699e-15 0)
(3 -2.34356e-15 0)
(3 -1.73646e-15 0)
(3 -1.86215e-15 0)
(3 -2.2887e-15 0)
(3 -1.65326e-15 0)
(3 -2.36565e-16 0)
(3 -7.33773e-16 0)
(3 4.64115e-16 0)
(3 6.96895e-16 0)
(1.58706 1.26808 0)
(1.59903 1.27252 0)
(1.62818 1.26592 0)
(1.62852 1.2626 0)
(2.32514 0.649777 0)
(3.02167 -0.0197233 0)
(2.99973 0.000141609 0)
(3 -4.31958e-06 0)
(3 8.5365e-08 0)
(3 -9.16799e-10 0)
(3 1.4661e-13 0)
(3 -2.50232e-15 0)
(3 -1.75251e-15 0)
(3 -1.69995e-15 0)
(3 -2.61287e-15 0)
(3 -1.95881e-15 0)
(3 -1.30634e-15 0)
(3 -6.36702e-16 0)
(3 1.49063e-16 0)
(3 -5.44564e-16 0)
(1.5835 1.28348 0)
(1.59149 1.28067 0)
(1.64939 1.25729 0)
(1.78268 1.14476 0)
(2.68217 0.261547 0)
(3 -6.71894e-10 0)
(3 1.47758e-08 0)
(3 -1.31637e-08 0)
(3 5.53662e-10 0)
(3 2.83444e-12 0)
(3 -9.98672e-14 0)
(3 -1.66315e-15 0)
(3 -1.9684e-15 0)
(3 -1.37676e-15 0)
(3 -2.40851e-15 0)
(3 -2.54871e-15 0)
(3 -1.78074e-15 0)
(3 -6.62753e-16 0)
(3 -1.0437e-15 0)
(3 -8.18403e-16 0)
(1.5823 1.29522 0)
(1.5517 1.30451 0)
(1.69151 1.22716 0)
(2.22989 0.806308 0)
(3.02185 -0.0217713 0)
(3 -6.30377e-11 0)
(3 -1.51586e-11 0)
(3 4.52732e-11 0)
(3 -4.0142e-12 0)
(3 -4.4588e-15 0)
(3 -1.00007e-15 0)
(3 -3.13188e-15 0)
(3 -2.48566e-15 0)
(3 -2.30191e-15 0)
(3 -2.24421e-15 0)
(3 -2.82564e-15 0)
(3 -9.83106e-16 0)
(3 -4.01722e-16 0)
(3 -1.81463e-15 0)
(3 -1.82039e-15 0)
(1.59308 1.32813 0)
(1.49944 1.3363 0)
(1.72642 1.19663 0)
(2.39305 0.557498 0)
(3.00004 -1.88813e-05 0)
(3 6.49516e-11 0)
(3 2.43341e-13 0)
(3 -2.8018e-13 0)
(3 4.11043e-14 0)
(3 -3.14798e-16 0)
(3 -2.46187e-15 0)
(3 -3.09729e-15 0)
(3 -3.78688e-15 0)
(3 -2.90051e-15 0)
(3 -2.27252e-15 0)
(3 -2.42386e-15 0)
(3 -9.86876e-16 0)
(3 -1.80642e-16 0)
(3 -1.80487e-15 0)
(3 -1.96459e-15 0)
(1.58896 1.30547 0)
(1.47959 1.34742 0)
(1.97865 1.02784 0)
(2.88001 0.109271 0)
(3 -2.86445e-09 0)
(3 3.03606e-11 0)
(3 -1.42379e-13 0)
(3 -1.06898e-15 0)
(3 -1.0676e-15 0)
(3 -6.5015e-17 0)
(3 -2.18492e-15 0)
(3 -4.87479e-15 0)
(3 -4.99857e-15 0)
(3 -2.98122e-15 0)
(3 -1.83879e-15 0)
(3 -2.41865e-15 0)
(3 -1.61029e-15 0)
(3 -6.03105e-16 0)
(3 -1.78799e-15 0)
(3 -1.82167e-15 0)
(1.60174 1.29147 0)
(1.47492 1.38012 0)
(2.17315 0.822311 0)
(3.01043 -0.00858075 0)
(3 1.2294e-08 0)
(3 -4.91808e-11 0)
(3 1.10946e-13 0)
(3 6.60111e-16 0)
(3 -3.48398e-16 0)
(3 -1.44194e-15 0)
(3 -2.1225e-15 0)
(3 -3.05644e-15 0)
(3 -3.83803e-15 0)
(3 -3.94972e-15 0)
(3 -2.9686e-15 0)
(3 -2.81299e-15 0)
(3 -1.91908e-15 0)
(3 -1.28135e-15 0)
(3 -2.02668e-15 0)
(3 -2.19227e-15 0)
(1.61821 1.28018 0)
(1.55296 1.32778 0)
(2.39678 0.562893 0)
(3 -1.94196e-12 0)
(3 -8.34374e-12 0)
(3 1.9561e-13 0)
(3 -2.01132e-15 0)
(3 2.08259e-16 0)
(3 -2.40448e-16 0)
(3 -1.38197e-15 0)
(3 -2.32514e-15 0)
(3 -2.5331e-15 0)
(3 -3.04423e-15 0)
(3 -3.76528e-15 0)
(3 -3.3773e-15 0)
(3 -3.36589e-15 0)
(3 -1.47908e-15 0)
(3 -1.83e-15 0)
(3 -1.23742e-15 0)
(3 -1.34233e-15 0)
(1.63569 1.26799 0)
(1.64839 1.23862 0)
(2.64918 0.293226 0)
(3 8.74661e-13 0)
(3 -9.22048e-14 0)
(3 -6.30675e-16 0)
(3 2.36986e-16 0)
(3 2.40274e-16 0)
(3 1.53262e-16 0)
(3 -3.24073e-16 0)
(3 -1.22173e-15 0)
(3 -2.11247e-15 0)
(3 -2.26216e-15 0)
(3 -2.8463e-15 0)
(3 -2.2733e-15 0)
(3 -3.82949e-15 0)
(3 -3.96118e-15 0)
(3 -3.00833e-15 0)
(3 -2.2692e-15 0)
(3 -9.55364e-16 0)
(1.65186 1.24024 0)
(1.80984 1.10575 0)
(2.86162 0.103798 0)
(3 1.56246e-16 0)
(3 -1.05393e-15 0)
(3 -2.21633e-16 0)
(3 -1.71031e-16 0)
(3 -1.62631e-16 0)
(3 1.37291e-16 0)
(3 3.77655e-16 0)
(3 1.35239e-16 0)
(3 -3.10253e-16 0)
(3 -7.53787e-16 0)
(3 -1.32889e-15 0)
(3 -1.33523e-15 0)
(3 -1.59502e-15 0)
(3 -3.16761e-15 0)
(3 -3.05439e-15 0)
(3 -2.59248e-15 0)
(3 -2.81835e-15 0)
(1.66199 1.20511 0)
(1.87995 0.980494 0)
(2.97793 0.0143139 0)
(3 -4.98215e-15 0)
(3 -7.65941e-16 0)
(3 4.07392e-17 0)
(3 4.58868e-16 0)
(3 2.91478e-16 0)
(3 2.46387e-16 0)
(3 4.2892e-16 0)
(3 5.54107e-16 0)
(3 3.79822e-16 0)
(3 1.25597e-16 0)
(3 -1.02639e-15 0)
(3 -7.28349e-16 0)
(3 -8.54118e-16 0)
(3 -9.19784e-16 0)
(3 -9.79967e-16 0)
(3 -1.24809e-15 0)
(3 -2.60308e-15 0)
(1.72762 1.16955 0)
(2.07624 0.810397 0)
(3 -1.68197e-15 0)
(3 -9.79291e-16 0)
(3 -8.17341e-16 0)
(3 -4.24752e-16 0)
(3 -6.94527e-17 0)
(3 3.93031e-16 0)
(3 -1.39938e-18 0)
(3 3.26341e-17 0)
(3 -5.4425e-17 0)
(3 -1.35415e-16 0)
(3 7.1446e-17 0)
(3 -1.16322e-17 0)
(3 -3.78174e-16 0)
(3 -4.48213e-16 0)
(3 -4.95667e-16 0)
(3 -6.06964e-16 0)
(3 -1.3164e-15 0)
(3 -1.577e-15 0)
(1.77715 1.09427 0)
(2.24705 0.64289 0)
(3 -9.43488e-16 0)
(3 -1.11477e-15 0)
(3 -1.06554e-15 0)
(3 -3.36073e-16 0)
(3 5.88965e-16 0)
(3 3.75315e-16 0)
(3 -1.70921e-16 0)
(3 -2.52041e-16 0)
(3 -1.66397e-16 0)
(3 -3.04134e-16 0)
(3 -2.99909e-16 0)
(3 -1.78151e-16 0)
(3 1.88254e-16 0)
(3 1.27344e-17 0)
(3 -6.78192e-16 0)
(3 -4.62376e-16 0)
(3 -2.66733e-16 0)
(3 -1.86839e-16 0)
(1.81745 1.00519 0)
(2.44891 0.444546 0)
(3 -9.14344e-16 0)
(3 -5.03541e-16 0)
(3 -1.01884e-15 0)
(3 -7.73319e-16 0)
(3 -2.24466e-16 0)
(3 -7.1717e-16 0)
(3 -1.80815e-15 0)
(3 -1.85092e-15 0)
(3 -2.36323e-15 0)
(3 -2.5172e-15 0)
(3 -2.63369e-15 0)
(3 -2.54705e-15 0)
(3 -2.12066e-15 0)
(3 -1.87159e-15 0)
(3 -1.82866e-15 0)
(3 -1.86691e-15 0)
(3 -1.34515e-15 0)
(3 -1.22641e-15 0)
(1.91483 0.875508 0)
(2.69068 0.220454 0)
(3 -4.95517e-15 0)
(3 -4.40283e-15 0)
(3 -3.73593e-15 0)
(3 -3.41767e-15 0)
(3 -3.24e-15 0)
(3 -2.64196e-15 0)
(3 -2.31527e-15 0)
(3 -2.21886e-15 0)
(3 -2.33134e-15 0)
(3 -2.50354e-15 0)
(3 -2.79504e-15 0)
(3 -3.16321e-15 0)
(3 -3.07404e-15 0)
(3 -3.06459e-15 0)
(3 -3.14437e-15 0)
(3 -3.43846e-15 0)
(3 -3.3212e-15 0)
(3 -2.79737e-15 0)
(2.1004 0.673384 0)
(2.98942 6.10579e-05 0)
(3 -2.80884e-15 0)
(3 -4.70866e-15 0)
(3 -4.63516e-15 0)
(3 -3.28601e-15 0)
(3 -1.95182e-15 0)
(3 -6.71882e-16 0)
(3 -4.62446e-16 0)
(3 -6.01417e-16 0)
(3 -6.08791e-16 0)
(3 -9.60168e-16 0)
(3 -1.10731e-15 0)
(3 -1.37168e-15 0)
(3 -1.4531e-15 0)
(3 -1.43079e-15 0)
(3 -1.39409e-15 0)
(3 -1.76879e-15 0)
(3 -2.02184e-15 0)
(3 -2.4142e-15 0)
(1.99456 0.368757 0)
(2.99991 -1.02586e-05 0)
(3 -1.82442e-15 0)
(3 -1.93351e-15 0)
(3 -1.8954e-15 0)
(3 -1.74723e-15 0)
(3 -1.41932e-15 0)
(3 -5.44005e-16 0)
(3 6.84918e-16 0)
(3 8.67018e-16 0)
(3 1.13669e-15 0)
(3 1.17194e-15 0)
(3 1.51041e-15 0)
(3 1.68414e-15 0)
(3 1.79352e-15 0)
(3 2.1082e-15 0)
(3 2.303e-15 0)
(3 2.15858e-15 0)
(3 1.93048e-15 0)
(3 1.75575e-15 0)
(1.99503 -0.368825 0)
(2.99991 1.00447e-05 0)
(3 -9.84974e-16 0)
(3 2.00601e-16 0)
(3 3.57855e-16 0)
(3 1.09071e-15 0)
(3 1.09626e-15 0)
(3 -6.17848e-17 0)
(3 -1.1185e-16 0)
(3 -1.26164e-17 0)
(3 5.40376e-16 0)
(3 9.11523e-16 0)
(3 1.43629e-15 0)
(3 1.72529e-15 0)
(3 1.84009e-15 0)
(3 1.8035e-15 0)
(3 1.75456e-15 0)
(3 1.88991e-15 0)
(3 2.07134e-15 0)
(3 2.43202e-15 0)
(2.10547 -0.67699 0)
(2.98934 -7.44496e-05 0)
(3 2.6827e-16 0)
(3 9.86759e-16 0)
(3 1.0443e-15 0)
(3 1.13749e-15 0)
(3 6.92955e-16 0)
(3 5.96994e-16 0)
(3 6.53982e-16 0)
(3 6.64577e-16 0)
(3 5.89994e-16 0)
(3 8.3035e-16 0)
(3 1.11916e-15 0)
(3 1.70363e-15 0)
(3 1.67308e-15 0)
(3 1.85161e-15 0)
(3 2.01412e-15 0)
(3 1.9633e-15 0)
(3 1.85235e-15 0)
(3 1.97237e-15 0)
(1.91488 -0.876889 0)
(2.68894 -0.22172 0)
(3 1.63186e-15 0)
(3 1.49e-15 0)
(3 1.14806e-15 0)
(3 1.01922e-15 0)
(3 9.76771e-16 0)
(3 1.01621e-15 0)
(3 4.29014e-16 0)
(3 2.65589e-17 0)
(3 1.68808e-16 0)
(3 1.67277e-15 0)
(3 2.05495e-15 0)
(3 2.72214e-15 0)
(3 2.72068e-15 0)
(3 2.96972e-15 0)
(3 3.05747e-15 0)
(3 2.05126e-15 0)
(3 2.73124e-15 0)
(3 3.0354e-15 0)
(1.8153 -1.00554 0)
(2.44525 -0.44679 0)
(3 8.44629e-16 0)
(3 1.49498e-15 0)
(3 1.13737e-15 0)
(3 1.1145e-15 0)
(3 1.09409e-15 0)
(3 7.01061e-16 0)
(3 3.39385e-16 0)
(3 5.9117e-16 0)
(3 2.33182e-15 0)
(3 3.33314e-15 0)
(3 3.14357e-15 0)
(3 2.97238e-15 0)
(3 2.36727e-15 0)
(3 2.30417e-15 0)
(3 1.18301e-15 0)
(3 9.2043e-16 0)
(3 1.11772e-15 0)
(3 -1.06941e-16 0)
(1.77311 -1.09308 0)
(2.24549 -0.643297 0)
(3 3.23813e-15 0)
(3 1.78855e-15 0)
(3 1.387e-15 0)
(3 2.13598e-16 0)
(3 -5.23589e-16 0)
(3 -1.84821e-16 0)
(3 3.79614e-17 0)
(3 1.1281e-15 0)
(3 6.52744e-16 0)
(3 3.6163e-17 0)
(3 -9.91343e-17 0)
(3 -5.42868e-16 0)
(3 -1.69515e-15 0)
(3 -1.9328e-15 0)
(3 -2.18688e-15 0)
(3 -2.93931e-15 0)
(3 -2.92402e-15 0)
(3 -2.84459e-15 0)
(1.72958 -1.16913 0)
(2.07824 -0.809672 0)
(3 1.38073e-15 0)
(3 1.01637e-15 0)
(3 5.22511e-16 0)
(3 -5.72696e-16 0)
(3 -4.39545e-17 0)
(3 2.32555e-16 0)
(3 9.49062e-16 0)
(3 6.01748e-16 0)
(3 -3.16416e-16 0)
(3 -6.48383e-16 0)
(3 -1.27991e-15 0)
(3 -1.98969e-15 0)
(3 -1.58191e-15 0)
(3 -1.92711e-15 0)
(3 -2.32773e-15 0)
(3 -2.42245e-15 0)
(3 -1.6043e-15 0)
(3 -7.89827e-16 0)
(1.66332 -1.20437 0)
(1.88346 -0.978097 0)
(2.98007 -0.0126863 0)
(3 3.82902e-16 0)
(3 -1.10645e-15 0)
(3 -1.11411e-15 0)
(3 -6.97836e-16 0)
(3 -3.69384e-16 0)
(3 -5.85927e-16 0)
(3 -9.63366e-16 0)
(3 -8.86473e-16 0)
(3 -8.28994e-16 0)
(3 -1.03249e-15 0)
(3 -5.68519e-16 0)
(3 -4.02257e-16 0)
(3 -3.4101e-16 0)
(3 -5.40382e-16 0)
(3 9.0661e-16 0)
(3 1.11993e-15 0)
(3 1.57019e-15 0)
(1.65216 -1.23913 0)
(1.8068 -1.10471 0)
(2.86263 -0.102179 0)
(3 -1.10606e-15 0)
(3 3.17354e-16 0)
(3 7.25048e-17 0)
(3 4.92583e-16 0)
(3 -2.10101e-16 0)
(3 -8.98878e-16 0)
(3 -5.74495e-16 0)
(3 -4.47928e-17 0)
(3 1.53844e-16 0)
(3 5.40907e-16 0)
(3 7.03071e-16 0)
(3 6.96288e-16 0)
(3 1.63229e-15 0)
(3 1.10028e-15 0)
(3 1.99596e-15 0)
(3 2.30059e-15 0)
(3 1.78271e-15 0)
(1.63606 -1.26857 0)
(1.65228 -1.23644 0)
(2.65047 -0.291289 0)
(3 -9.85909e-13 0)
(3 9.86408e-14 0)
(3 1.33639e-16 0)
(3 -1.11908e-17 0)
(3 -3.05726e-16 0)
(3 -1.13257e-16 0)
(3 3.43024e-16 0)
(3 8.41839e-16 0)
(3 1.08207e-15 0)
(3 1.33296e-15 0)
(3 1.02572e-15 0)
(3 1.29693e-15 0)
(3 1.18332e-15 0)
(3 1.1032e-15 0)
(3 1.9618e-15 0)
(3 1.06031e-15 0)
(3 -3.27745e-16 0)
(1.6182 -1.2808 0)
(1.55213 -1.3275 0)
(2.39489 -0.563172 0)
(3 1.99698e-12 0)
(3 7.81246e-12 0)
(3 -1.749e-13 0)
(3 2.77745e-15 0)
(3 5.30771e-16 0)
(3 1.38461e-16 0)
(3 9.36363e-17 0)
(3 2.81819e-16 0)
(3 8.27196e-16 0)
(3 9.31987e-16 0)
(3 4.00331e-16 0)
(3 7.64062e-16 0)
(3 4.04865e-16 0)
(3 -2.82605e-16 0)
(3 -3.83916e-16 0)
(3 -1.3955e-15 0)
(3 -2.49924e-15 0)
(1.60132 -1.29167 0)
(1.47356 -1.3813 0)
(2.16739 -0.82599 0)
(3.01052 0.00858459 0)
(3 -1.19255e-08 0)
(3 3.89786e-11 0)
(3 -3.96695e-14 0)
(3 1.3485e-15 0)
(3 -6.06946e-16 0)
(3 -9.36542e-16 0)
(3 -7.77493e-16 0)
(3 4.1267e-16 0)
(3 7.48892e-16 0)
(3 1.03435e-15 0)
(3 1.27268e-16 0)
(3 -7.85902e-16 0)
(3 -1.12377e-15 0)
(3 -1.0338e-15 0)
(3 -1.22927e-15 0)
(3 -1.43588e-15 0)
(1.58876 -1.30506 0)
(1.48004 -1.34507 0)
(1.98227 -1.027 0)
(2.88097 -0.109026 0)
(3 2.71744e-09 0)
(3 -1.20168e-11 0)
(3 -8.76187e-16 0)
(3 -1.70282e-15 0)
(3 -3.39924e-16 0)
(3 -1.42859e-15 0)
(3 -9.43369e-16 0)
(3 8.81657e-16 0)
(3 1.43204e-15 0)
(3 1.25559e-15 0)
(3 -2.34819e-16 0)
(3 -1.31044e-15 0)
(3 -1.27798e-15 0)
(3 -7.1127e-16 0)
(3 -3.00652e-16 0)
(3 -4.20733e-16 0)
(1.59334 -1.32972 0)
(1.50085 -1.33635 0)
(1.722 -1.19949 0)
(2.38441 -0.563937 0)
(3.00003 1.37771e-05 0)
(3 -5.1913e-11 0)
(3 -2.24082e-13 0)
(3 1.76683e-13 0)
(3 -2.07832e-14 0)
(3 -5.29997e-16 0)
(3 3.66884e-16 0)
(3 1.11414e-15 0)
(3 2.12844e-15 0)
(3 1.09057e-15 0)
(3 -2.10516e-16 0)
(3 -2.82306e-16 0)
(3 -4.14342e-16 0)
(3 -3.75579e-16 0)
(3 4.16191e-16 0)
(3 1.5146e-17 0)
(1.58138 -1.29379 0)
(1.55143 -1.30402 0)
(1.69086 -1.22774 0)
(2.2246 -0.808868 0)
(3.02181 0.021625 0)
(3 2.97696e-11 0)
(3 4.24357e-11 0)
(3 -5.27982e-11 0)
(3 4.04731e-12 0)
(3 3.79809e-15 0)
(3 4.33398e-16 0)
(3 1.86305e-15 0)
(3 2.3608e-15 0)
(3 7.15663e-16 0)
(3 2.51749e-16 0)
(3 9.77229e-16 0)
(3 1.75981e-16 0)
(3 -3.01503e-16 0)
(3 3.95284e-16 0)
(3 6.15688e-16 0)
(1.58244 -1.28155 0)
(1.59044 -1.28097 0)
(1.64975 -1.25753 0)
(1.79508 -1.13906 0)
(2.68863 -0.257067 0)
(3 6.37615e-10 0)
(3 -1.4633e-08 0)
(3 1.306e-08 0)
(3 -5.48077e-10 0)
(3 -2.55741e-12 0)
(3 7.04281e-14 0)
(3 1.72376e-15 0)
(3 1.85418e-15 0)
(3 4.75869e-16 0)
(3 -1.02501e-16 0)
(3 1.27713e-16 0)
(3 5.40127e-16 0)
(3 -7.61967e-17 0)
(3 4.65057e-16 0)
(3 9.07981e-16 0)
(1.58636 -1.2671 0)
(1.59918 -1.2715 0)
(1.62844 -1.26619 0)
(1.62678 -1.26628 0)
(2.32731 -0.649466 0)
(3.02161 0.0197658 0)
(2.99973 -0.000131128 0)
(3 4.25603e-06 0)
(3 -8.4375e-08 0)
(3 9.23112e-10 0)
(3 -1.11833e-13 0)
(3 2.82573e-15 0)
(3 1.23625e-15 0)
(3 2.81387e-16 0)
(3 -2.99892e-16 0)
(3 -4.75063e-16 0)
(3 1.13725e-15 0)
(3 3.19389e-16 0)
(3 -1.84414e-16 0)
(3 7.44439e-16 0)
(1.58672 -1.2568 0)
(1.60409 -1.26013 0)
(1.62309 -1.26166 0)
(1.62638 -1.27288 0)
(1.8949 -1.06269 0)
(2.75005 -0.223635 0)
(3.00457 0.000729833 0)
(2.99992 -6.693e-05 0)
(3 9.03261e-07 0)
(3 -9.08819e-10 0)
(3 -5.57591e-14 0)
(3 -1.69834e-15 0)
(3 7.56326e-16 0)
(3 1.09599e-15 0)
(3 -1.67424e-16 0)
(3 -5.81419e-16 0)
(3 1.89044e-16 0)
(3 1.30492e-15 0)
(3 -1.99336e-16 0)
(3 1.45338e-15 0)
(1.58185 -1.25219 0)
(1.60103 -1.25687 0)
(1.61466 -1.2597 0)
(1.60583 -1.28282 0)
(1.68431 -1.22795 0)
(2.22508 -0.779803 0)
(3.00134 0.00570349 0)
(3.00007 0.000395216 0)
(3 -7.77205e-07 0)
(3 -5.5027e-11 0)
(3 -1.64843e-13 0)
(3 2.54582e-15 0)
(3 1.27612e-15 0)
(3 1.17788e-15 0)
(3 4.02792e-18 0)
(3 -7.56972e-16 0)
(3 5.0806e-16 0)
(3 9.75726e-16 0)
(3 4.40039e-16 0)
(3 2.20056e-15 0)
(1.57561 -1.24438 0)
(1.59019 -1.25487 0)
(1.60342 -1.26644 0)
(1.61171 -1.2757 0)
(1.65772 -1.26836 0)
(1.7693 -1.1991 0)
(2.26836 -0.738867 0)
(2.99737 -0.0126559 0)
(3 -5.28733e-08 0)
(3 -9.17777e-11 0)
(3 7.9479e-13 0)
(3 2.30897e-15 0)
(3 2.20616e-15 0)
(3 6.313e-16 0)
(3 1.25516e-16 0)
(3 -3.33346e-16 0)
(3 3.08189e-16 0)
(3 4.52533e-16 0)
(3 5.85271e-16 0)
(3 1.94213e-15 0)
(1.57589 -1.25467 0)
(1.58139 -1.25951 0)
(1.59387 -1.2652 0)
(1.60443 -1.26465 0)
(1.60936 -1.25856 0)
(1.59657 -1.26805 0)
(1.8873 -1.18103 0)
(2.97206 -0.400208 0)
(3.34937 0.628388 0)
(3 1.47753e-11 0)
(3 -8.52746e-11 0)
(3 1.16317e-13 0)
(3 4.53759e-14 0)
(3 5.63366e-14 0)
(3 -1.28894e-14 0)
(3 7.99438e-15 0)
(3 2.54298e-16 0)
(3 2.29981e-15 0)
(3 1.70388e-15 0)
(3 3.39346e-15 0)
(1.15934 -0.774523 0)
(1.83254 -1.14063 0)
(1.83621 -1.15359 0)
(1.74291 -1.1941 0)
(1.71551 -1.1992 0)
(1.66121 -1.24313 0)
(1.65173 -1.2176 0)
(1.72274 -1.16884 0)
(1.75608 -1.23859 0)
(1.79593 -1.14574 0)
(2.28248 -0.735467 0)
(2.8649 -0.203762 0)
(3.09668 0.0288793 0)
(3.02035 0.0123436 0)
(3.0046 0.00545433 0)
(3.00188 0.00303595 0)
(3.00006 0.000592065 0)
(2.99998 2.34572e-05 0)
(2.99999 -1.44353e-05 0)
(3 -5.93369e-06 0)
(1.00308 -0.0347464 0)
(1.91353 -0.800338 0)
(2.11835 -0.791208 0)
(2.00111 -0.951798 0)
(1.96066 -0.983768 0)
(1.86452 -1.08406 0)
(1.78749 -1.13412 0)
(1.75885 -1.14685 0)
(1.75816 -1.16251 0)
(1.73811 -1.20308 0)
(1.72247 -1.19212 0)
(1.86917 -1.06326 0)
(2.1007 -0.88015 0)
(2.50535 -0.573515 0)
(2.98895 -0.133672 0)
(3.07421 0.0301053 0)
(3.0082 0.00773495 0)
(3.00295 0.00386212 0)
(3.00123 0.00220705 0)
(3.00008 0.000482819 0)
(1.12216 0.116518 0)
(1.93498 0.0122044 0)
(2.22859 -0.479299 0)
(2.24484 -0.524294 0)
(2.20145 -0.61538 0)
(2.14976 -0.735633 0)
(2.03053 -0.898311 0)
(1.96226 -0.966776 0)
(1.91091 -1.03226 0)
(1.85537 -1.12035 0)
(1.79144 -1.15386 0)
(1.79212 -1.14813 0)
(1.80903 -1.1278 0)
(1.84855 -1.08509 0)
(2.04017 -0.947941 0)
(2.25629 -0.827611 0)
(2.65993 -0.504893 0)
(3.03448 -0.0929187 0)
(3.05574 0.0240227 0)
(3.00412 0.00473941 0)
(1.20853 0.597408 0)
(1.64817 1.18701 0)
(2.2263 0.790559 0)
(2.32905 -0.157651 0)
(2.35655 -0.313128 0)
(2.34389 -0.388393 0)
(2.28952 -0.517161 0)
(2.20574 -0.659377 0)
(2.14529 -0.756113 0)
(2.09455 -0.886955 0)
(1.98186 -0.998077 0)
(1.91888 -1.0579 0)
(1.87991 -1.08245 0)
(1.86408 -1.09146 0)
(1.86748 -1.05858 0)
(1.89534 -1.04915 0)
(1.96201 -1.02056 0)
(2.16403 -0.901524 0)
(2.38061 -0.790896 0)
(2.77642 -0.44328 0)
(0.769046 0.688284 0)
(1.62572 1.60643 0)
(1.8937 1.61274 0)
(2.16451 0.882244 0)
(2.38182 0.528494 0)
(2.43466 0.0235692 0)
(2.45424 -0.196708 0)
(2.38986 -0.418587 0)
(2.33535 -0.5171 0)
(2.299 -0.654015 0)
(2.20783 -0.790299 0)
(2.12073 -0.890408 0)
(2.05991 -0.941572 0)
(2.00835 -0.985724 0)
(1.9809 -0.97608 0)
(1.95963 -0.98427 0)
(1.95611 -1.00892 0)
(1.97161 -0.99508 0)
(1.99525 -0.996278 0)
(2.06898 -0.981717 0)
(0.727889 0.603354 0)
(1.60517 1.46702 0)
(2.04562 1.80928 0)
(2.07497 1.40741 0)
(2.19777 1.22991 0)
(2.39579 0.760054 0)
(2.47575 0.323566 0)
(2.50244 0.110583 0)
(2.44858 -0.13611 0)
(2.45914 -0.241979 0)
(2.40798 -0.411815 0)
(2.33994 -0.546078 0)
(2.28881 -0.630669 0)
(2.2297 -0.711946 0)
(2.17993 -0.761159 0)
(2.13777 -0.798777 0)
(2.07688 -0.86894 0)
(2.05046 -0.908312 0)
(2.03008 -0.944506 0)
(2.06019 -0.95778 0)
(0.769671 0.687454 0)
(1.23671 1.08104 0)
(2.05456 1.93766 0)
(2.2939 1.64505 0)
(2.28733 1.45712 0)
(2.34959 1.21643 0)
(2.42947 0.877219 0)
(2.47192 0.625479 0)
(2.48109 0.425073 0)
(2.50897 0.252946 0)
(2.5251 0.045264 0)
(2.48127 -0.174133 0)
(2.46412 -0.3213 0)
(2.40034 -0.480608 0)
(2.34289 -0.60198 0)
(2.30123 -0.654851 0)
(2.22519 -0.740439 0)
(2.20296 -0.736058 0)
(2.18642 -0.754143 0)
(2.15058 -0.775207 0)
(0.910656 0.790394 0)
(1.16794 1.11274 0)
(1.67342 1.86808 0)
(2.25643 2.02611 0)
(2.6052 1.50273 0)
(2.50625 1.45311 0)
(2.58704 1.1368 0)
(2.62603 0.766501 0)
(2.61807 0.671725 0)
(2.61939 0.378844 0)
(2.64857 0.181948 0)
(2.60151 -0.0638667 0)
(2.59042 -0.201805 0)
(2.52839 -0.362804 0)
(2.48605 -0.438025 0)
(2.4476 -0.456857 0)
(2.41395 -0.453115 0)
(2.40287 -0.42875 0)
(2.32498 -0.537562 0)
(2.31962 -0.523872 0)
(1.05901 0.896071 0)
(1.20329 1.20116 0)
(1.59865 1.82811 0)
(1.74689 2.04735 0)
(2.34272 1.59262 0)
(2.58406 1.6771 0)
(2.80259 1.37106 0)
(2.8245 0.832508 0)
(2.80477 0.64148 0)
(2.73318 0.44407 0)
(2.72511 0.33319 0)
(2.69701 0.171899 0)
(2.67608 0.0900949 0)
(2.64955 0.000303612 0)
(2.61206 -0.0583265 0)
(2.58135 -0.0756007 0)
(2.5574 -0.111358 0)
(2.51322 -0.220458 0)
(2.4419 -0.373978 0)
(2.44873 -0.359455 0)
(1.19872 1.03931 0)
(1.22714 1.3001 0)
(1.42648 1.80425 0)
(1.66967 1.97123 0)
(1.85751 1.74212 0)
(2.0485 1.75737 0)
(2.28397 1.57458 0)
(2.4653 1.21893 0)
(2.57814 1.10615 0)
(2.59802 1.05027 0)
(2.62277 0.877335 0)
(2.64428 0.708383 0)
(2.63583 0.54779 0)
(2.67138 0.460108 0)
(2.64948 0.284825 0)
(2.66476 0.185397 0)
(2.63933 0.00302943 0)
(2.59839 -0.147877 0)
(2.53125 -0.235181 0)
(2.56471 -0.128818 0)
(1.3075 1.25698 0)
(1.26581 1.43751 0)
(1.32289 1.83325 0)
(1.62877 1.90779 0)
(1.77891 1.80373 0)
(1.92211 1.78942 0)
(2.10131 1.73313 0)
(2.26499 1.57111 0)
(2.33372 1.42568 0)
(2.39903 1.35046 0)
(2.4911 1.14128 0)
(2.57638 0.989988 0)
(2.61988 0.744896 0)
(2.72694 0.636678 0)
(2.7086 0.365237 0)
(2.72539 0.235695 0)
(2.69978 0.0565106 0)
(2.66277 0.0271013 0)
(2.63674 0.0870888 0)
(2.61574 0.0564429 0)
(1.41729 1.49754 0)
(1.347 1.67525 0)
(1.34679 1.97596 0)
(1.61028 1.95526 0)
(1.70861 1.97317 0)
(1.85554 1.84625 0)
(1.97534 1.82662 0)
(2.1466 1.65391 0)
(2.26751 1.51067 0)
(2.40967 1.44562 0)
(2.54407 1.17589 0)
(2.66617 1.00189 0)
(2.69793 0.731335 0)
(2.75104 0.627065 0)
(2.75569 0.465095 0)
(2.75202 0.441534 0)
(2.73938 0.345452 0)
(2.71137 0.398576 0)
(2.70962 0.434837 0)
(2.6631 0.235269 0)
(1.64646 1.61516 0)
(1.54385 1.83574 0)
(1.45946 2.12372 0)
(1.67262 2.04689 0)
(1.70846 2.0563 0)
(1.91499 1.87468 0)
(2.01659 1.87672 0)
(2.21019 1.6994 0)
(2.40339 1.57763 0)
(2.58603 1.41064 0)
(2.66037 1.24086 0)
(2.73084 1.09221 0)
(2.73524 1.04488 0)
(2.74556 0.999285 0)
(2.74929 0.894714 0)
(2.72736 0.833754 0)
(2.71088 0.739045 0)
(2.73229 0.751642 0)
(2.73823 0.634013 0)
(2.73169 0.413296 0)
(1.86001 1.63035 0)
(1.86 1.67363 0)
(1.70608 2.10533 0)
(1.78806 2.15013 0)
(1.87134 2.14881 0)
(2.03047 2.00604 0)
(2.17643 1.95193 0)
(2.3653 1.77865 0)
(2.49002 1.72986 0)
(2.58653 1.54491 0)
(2.59162 1.57707 0)
(2.6587 1.42659 0)