/*--------------------------------*- C++ -*----------------------------------*\
  =========                 |
  \\      /  F ield         | OpenFOAM: The Open Source CFD Toolbox
   \\    /   O peration     | Website:  https://openfoam.org
    \\  /    A nd           | Version:  7
     \\/     M anipulation  |
\*---------------------------------------------------------------------------*/
FoamFile
{
    version     2.0;
    format      ascii;
    class       volScalarField;
    location    "2";
    object      p;
}
// * * * * * * * * * * * * * * * * * * * * * * * * * * * * * * * * * * * * * //

dimensions      [1 -1 -2 0 0 0 0];

internalField   nonuniform List<scalar> 
3700
(
0.106167
0.192818
0.225113
0.283018
0.308575
0.332692
0.372944
0.409668
0.432559
0.437856
0.454708
0.469027
0.47566
0.470371
0.488635
0.495535
0.505362
0.507772
0.512211
0.51015
0.0840612
0.0889975
0.107134
0.133528
0.123187
0.121883
0.128616
0.139761
0.141229
0.133666
0.143496
0.152829
0.153389
0.15355
0.164634
0.189014
0.214424
0.213602
0.209697
0.197091
0.0944461
0.082674
0.0798404
0.0739413
0.0662432
0.0615569
0.053121
0.0528737
0.0546479
0.0571727
0.0609662
0.0668291
0.0752458
0.0878033
0.10048
0.111134
0.119002
0.122938
0.125855
0.126791
0.10834
0.0821715
0.0725985
0.0643617
0.0609834
0.0631788
0.0658549
0.0746523
0.0813125
0.0900144
0.0827873
0.0845333
0.0882165
0.100286
0.114831
0.130656
0.147742
0.16312
0.177884
0.185429
0.120468
0.0773435
0.0618442
0.0543488
0.0538353
0.0610894
0.0696026
0.0881627
0.10486
0.118233
0.119644
0.12569
0.120605
0.122271
0.126393
0.139298
0.159559
0.185272
0.210662
0.241974
0.121995
0.068488
0.0494645
0.047178
0.0484833
0.0560381
0.0678193
0.0878319
0.109637
0.128334
0.148007
0.16191
0.174276
0.184867
0.182776
0.184747
0.192619
0.211015
0.242603
0.304787
0.115077
0.0605813
0.0441566
0.0453598
0.0480068
0.0557774
0.0671961
0.0843342
0.105911
0.128854
0.161232
0.183072
0.211838
0.2363
0.256791
0.272245
0.286769
0.29911
0.318314
0.38646
0.102684
0.0549815
0.0413522
0.0456211
0.0520827
0.0674879
0.0854707
0.0972697
0.111454
0.128857
0.163086
0.193875
0.238826
0.276851
0.31562
0.357373
0.39278
0.428327
0.452447
0.538008
0.0818773
0.0479628
0.0381551
0.0447249
0.0570647
0.0865863
0.114959
0.14304
0.164136
0.181282
0.200399
0.226212
0.269464
0.318868
0.372046
0.434816
0.500395
0.569365
0.617232
0.738484
0.0615037
0.0391785
0.0338996
0.0374523
0.0576739
0.0912603
0.128611
0.174253
0.220635
0.273644
0.31612
0.358908
0.399634
0.444233
0.484214
0.542849
0.63115
0.732098
0.835391
0.967854
0.0458977
0.0318607
0.0300067
0.0340418
0.0580789
0.0879879
0.1262
0.176305
0.248798
0.343819
0.419318
0.497663
0.57581
0.646076
0.701921
0.767802
0.849989
0.949894
1.15322
1.14236
0.0337263
0.0251798
0.0251762
0.032554
0.0605465
0.0941606
0.126368
0.167638
0.258577
0.397376
0.517935
0.637186
0.761769
0.86464
0.97515
1.08814
1.19936
1.31419
1.53325
1.49973
0.0257969
0.0190044
0.0193373
0.0301843
0.0762748
0.156527
0.223357
0.312072
0.443243
0.572627
0.724503
0.865204
1.01513
1.15088
1.32054
1.50434
1.68095
1.84006
2.08438
2.07401
0.0218438
0.0158076
0.0152815
0.0377568
0.137691
0.281115
0.41941
0.601982
0.808968
1.00163
1.16967
1.32512
1.48797
1.64805
1.85804
2.09791
2.34013
2.58389
2.78348
2.98333
0.0183736
0.0140455
0.0156284
0.0934102
0.244696
0.416475
0.633163
0.891791
1.19971
1.51272
1.73988
1.95683
2.1765
2.41402
2.71382
3.00259
3.27804
3.51073
3.64434
3.76741
0.00894364
0.0149405
0.0443215
0.200848
0.404488
0.656642
1.00776
1.4192
1.8786
2.26872
2.56572
2.84934
3.12723
3.42829
3.74974
3.96369
4.09217
4.12905
4.03362
3.90673
0.00559989
0.0245764
0.163761
0.394022
0.825477
1.43153
2.00862
2.60005
3.21272
3.57611
3.78794
4.02197
4.23418
4.39783
4.47794
4.39991
4.17771
3.63944
2.78224
1.8873
0.0312976
0.170295
0.541748
1.19298
2.06465
2.85432
3.56329
4.27493
4.81552
4.85976
4.75517
4.75114
4.70917
4.54251
4.03003
3.0683
2.08742
1.3276
1.01679
0.99283
0.313376
0.871421
1.94344
3.15747
4.18659
4.85992
5.42678
5.89364
5.76243
5.31565
4.87745
4.3275
3.40387
2.32907
1.42404
1.0286
0.989476
0.994995
0.997346
0.999446
2.31586
3.62687
4.88275
5.71761
6.18354
6.42817
6.57902
6.24435
4.55505
3.21132
2.37031
1.56615
1.0822
0.987648
0.992955
0.996309
0.999164
0.999972
1.00002
1.00001
6.95314
6.89438
6.85081
6.90461
6.97133
6.79629
6.00121
2.22585
0.67233
1
1
1
1
1
1
1
1
1
1
1
6.93736
6.86866
6.79423
6.72588
6.8651
5.70915
2.62738
1.01888
1
1
1
1
1
1
1
1
1
1
1
1
6.79623
6.86384
6.80576
6.61037
6.39074
3.41609
1.05111
0.998942
1
1
1
1
1
1
1
1
1
1
1
1
6.68363
6.85905
6.86366
6.46162
4.7295
1.45111
0.99343
1.00012
0.999999
1
1
1
1
1
1
1
1
1
1
1
6.53886
6.84691
6.87901
6.25813
2.69375
0.975078
1.00037
0.999994
1
1
1
1
1
1
1
1
1
1
1
1
6.42406
6.75246
6.81256
4.94503
1.3439
1
1
1
1
1
1
1
1
1
1
1
1
1
1
1
6.37948
6.65821
6.54906
3.48466
0.985149
1
1
1
1
1
1
1
1
1
1
1
1
1
1
1
6.46156
6.66439
6.11257
2.06622
0.999999
1
1
1
1
1
1
1
1
1
1
1
1
1
1
1
6.92479
6.67844
4.92682
1.18974
1
1
1
1
1
1
1
1
1
1
1
1
1
1
1
1
7.23026
6.36136
3.53522
0.987353
1
1
1
1
1
1
1
1
1
1
1
1
1
1
1
1
7.45922
6.0367
2.29162
1
1
1
1
1
1
1
1
1
1
1
1
1
1
1
1
1
7.53409
5.3646
1.58548
1
1
1
1
1
1
1
1
1
1
1
1
1
1
1
1
1
7.57894
4.69777
1.14144
1
1
1
1
1
1
1
1
1
1
1
1
1
1
1
1
1
7.40165
3.95393
1.00005
1
1
1
1
1
1
1
1
1
1
1
1
1
1
1
1
1
7.16186
3.25142
1
1
1
1
1
1
1
1
1
1
1
1
1
1
1
1
1
1
6.91173
2.60841
1
1
1
1
1
1
1
1
1
1
1
1
1
1
1
1
1
1
6.64973
1.92735
1
1
1
1
1
1
1
1
1
1
1
1
1
1
1
1
1
1
6.25141
1.39303
1
1
1
1
1
1
1
1
1
1
1
1
1
1
1
1
1
1
5.79577
1.00703
1
1
1
1
1
1
1
1
1
1
1
1
1
1
1
1
1
1
4.57626
1.00006
1
1
1
1
1
1
1
1
1
1
1
1
1
1
1
1
1
1
4.57625
1.00006
1
1
1
1
1
1
1
1
1
1
1
1
1
1
1
1
1
1
5.79574
1.00703
1
1
1
1
1
1
1
1
1
1
1
1
1
1
1
1
1
1
6.25142
1.39303
1
1
1
1
1
1
1
1
1
1
1
1
1
1
1
1
1
1
6.64976
1.92735
1
1
1
1
1
1
1
1
1
1
1
1
1
1
1
1
1
1
6.91171
2.60841
1
1
1
1
1
1
1
1
1
1
1
1
1
1
1
1
1
1
7.16187
3.25139
1
1
1
1
1
1
1
1
1
1
1
1
1
1
1
1
1
1
7.40166
3.95393
1.00005
1
1
1
1
1
1
1
1
1
1
1
1
1
1
1
1
1
7.57892
4.69781
1.14145
1
1
1
1
1
1
1
1
1
1
1
1
1
1
1
1
1
7.53407
5.36461
1.5855
1
1
1
1
1
1
1
1
1
1
1
1
1
1
1
1
1
7.4592
6.03668
2.29164
1
1
1
1
1
1
1
1
1
1
1
1
1
1
1
1
1
7.23026
6.36137
3.53521
0.987353
1
1
1
1
1
1
1
1
1
1
1
1
1
1
1
1
6.9248
6.67843
4.92682
1.18974
1
1
1
1
1
1
1
1
1
1
1
1
1
1
1
1
6.46155
6.66436
6.1125
2.0662
1
1
1
1
1
1
1
1
1
1
1
1
1
1
1
1
6.37949
6.65822
6.54911
3.48479
0.985126
1
1
1
1
1
1
1
1
1
1
1
1
1
1
1
6.42409
6.75246
6.81237
4.94435
1.34394
1
1
1
1
1
1
1
1
1
1
1
1
1
1
1
6.53887
6.84691
6.87909
6.25899
2.69359
0.975078
1.00037
0.999994
1
1
1
1
1
1
1
1
1
1
1
1
6.68365
6.85907
6.86376
6.46162
4.72943
1.45139
0.993427
1.00012
0.999999
1
1
1
1
1
1
1
1
1
1
1
6.79627
6.86386
6.80561
6.61024
6.39044
3.41612
1.05108
0.998944
1
1
1
1
1
1
1
1
1
1
1
1
6.93742
6.86872
6.79426
6.72592
6.86568
5.7094
2.62744
1.01888
1
1
1
1
1
1
1
1
1
1
1
1
6.95312
6.8944
6.85091
6.90467
6.97139
6.79574
6.00148
2.2277
0.671962
1
1
1
1
1
1
1
1
1
1
1
2.31675
3.62866
4.88809
5.72327
6.18563
6.42604
6.57617
6.24223
4.55376
3.21069
2.37012
1.56621
1.08226
0.987646
0.992952
0.996307
0.999164
0.999972
1.00002
1.00001
0.310358
0.861591
1.93149
3.1519
4.1918
4.86654
5.42995
5.89327
5.76174
5.3147
4.8766
4.32711
3.40396
2.32943
1.42437
1.02869
0.989475
0.994994
0.997345
0.999446
0.0361435
0.177226
0.53916
1.18713
2.05802
2.85343
3.56689
4.2785
4.8174
4.8599
4.75514
4.75096
4.70904
4.54246
4.0302
3.06856
2.08763
1.32771
1.01682
0.99283
0.00560221
0.0348236
0.164705
0.385101
0.81733
1.42663
2.00719
2.60041
3.21349
3.57684
3.78853
4.02195
4.23356
4.39716
4.47752
4.39961
4.17756
3.63948
2.78238
1.88741
0.00787458
0.0163982
0.046286
0.199469
0.403862
0.656234
1.00696
1.41961
1.87944
2.26969
2.56636
2.84941
3.12689
3.4278
3.74954
3.96367
4.09217
4.12902
4.0336
3.9067
0.0187717
0.014471
0.0159503
0.0951271
0.243547
0.41593
0.633601
0.89225
1.20043
1.51328
1.74051
1.95734
2.17688
2.41418
2.71389
3.0026
3.27795
3.5105
3.64414
3.76733
0.0266356
0.0157885
0.0152818
0.0394151
0.135636
0.28061
0.419091
0.600817
0.807868
1.00086
1.16936
1.32502
1.48794
1.64804
1.85809
2.09801
2.34019
2.58384
2.78325
2.98321
0.031153
0.0195531
0.0181298
0.031204
0.0770103
0.158014
0.223324
0.31102
0.441501
0.571254
0.723417
0.864748
1.01528
1.15133
1.32107
1.50465
1.68101
1.83994
2.08413
2.0738
0.0371228
0.0261976
0.0250313
0.034137
0.0621434
0.0955679
0.127155
0.168268
0.25896
0.397281
0.517779
0.637292
0.762075
0.86496
0.975275
1.0881
1.19918
1.31397
1.53305
1.49964
0.046595
0.03254
0.0305936
0.0356223
0.0591834
0.0885645
0.127199
0.176997
0.249161
0.343778
0.419284
0.497588
0.575616
0.645866
0.70161
0.767456
0.849764
0.949839
1.15338
1.14259
0.0597542
0.0392874
0.0345932
0.0391347
0.0586913
0.0912775
0.129396
0.174434
0.220697
0.273232
0.315491
0.358274
0.399025
0.443752
0.483962
0.542895
0.631482
0.73247
0.835696
0.968
0.0791288
0.0477687
0.0390117
0.0466571
0.0578865
0.0861246
0.115226
0.142153
0.163238
0.180549
0.200018
0.226294
0.269869
0.319275
0.37245
0.435208
0.500762
0.569678
0.617355
0.738488
0.100047
0.0546942
0.0418131
0.0465899
0.0522345
0.066573
0.0849506
0.0960871
0.110906
0.129324
0.164089
0.194557
0.23925
0.277134
0.315826
0.357542
0.392946
0.428433
0.452386
0.537643
0.112334
0.0598028
0.0438828
0.0454896
0.0481161
0.0552063
0.0671293
0.0846283
0.106512
0.129702
0.161721
0.183286
0.211811
0.236207
0.256697
0.272122
0.286583
0.298826
0.317959
0.386019
0.119209
0.0665993
0.048301
0.0468507
0.048562
0.0555532
0.0681987
0.0885667
0.110305
0.128591
0.147886
0.161579
0.173873
0.184425
0.182466
0.184507
0.192382
0.21092
0.242718
0.304923
0.118952
0.0764915
0.0600273
0.0535506
0.0538118
0.0609289
0.0702071
0.0889392
0.105051
0.117841
0.118911
0.124976
0.120156
0.121994
0.126362
0.139492
0.159772
0.185466
0.210897
0.242229
0.108214
0.0824246
0.0723427
0.0637856
0.0608585
0.0631767
0.0662464
0.0750134
0.0808461
0.0890686
0.0822564
0.0842885
0.0883124
0.100552
0.115058
0.130845
0.147944
0.163332
0.178068
0.185473
0.0954955
0.0824548
0.0798409
0.0737621
0.0660143
0.0612039
0.0530331
0.05273
0.0544025
0.0568924
0.0609069
0.0670179
0.0756655
0.088234
0.100733
0.11119
0.119036
0.123092
0.125981
0.126686
0.0833784
0.0879634
0.0997544
0.11202
0.129191
0.135805
0.127313
0.133017
0.144668
0.143274
0.14008
0.133656
0.143725
0.169111
0.188313
0.193908
0.198481
0.209515
0.22232
0.21075
0.113773
0.192122
0.223365
0.259995
0.308765
0.348922
0.376709
0.411667
0.437961
0.444192
0.451381
0.455076
0.473648
0.485483
0.495528
0.489831
0.498634
0.512583
0.520866
0.515446
0.551599
0.640149
0.72754
0.785088
0.802059
0.824317
0.844898
0.844392
0.834532
0.8232
0.809906
0.793454
0.779801
0.779721
0.790096
0.808497
0.834806
0.874767
0.913068
0.920217
0.274617
0.40722
0.541572
0.681408
0.74827
0.795651
0.844772
0.838782
0.833983
0.835574
0.82716
0.810561
0.79064
0.776329
0.777989
0.790214
0.812522
0.855655
0.895154
0.909791
0.135902
0.158208
0.227015
0.351389
0.539517
0.680779
0.765228
0.797625
0.806838
0.835208
0.828543
0.818403
0.807135
0.777776
0.760111
0.764759
0.785334
0.823323
0.885403
0.913769
0.18818
0.212382
0.240623
0.242884
0.261698
0.34159
0.495189
0.6558
0.734043
0.784468
0.827905
0.835809
0.821488
0.786356
0.753821
0.754963
0.767846
0.811235
0.871093
0.907846
0.240929
0.256461
0.27415
0.298441
0.291954
0.2871
0.296868
0.358516
0.470745
0.609041
0.779272
0.819146
0.820034
0.795817
0.754966
0.749465
0.762028
0.806206
0.865832
0.902297
0.315231
0.318944
0.341382
0.35394
0.335707
0.329836
0.332541
0.323426
0.320338
0.365097
0.543262
0.743612
0.805826
0.793566
0.770237
0.759613
0.776405
0.822865
0.87326
0.899661
0.401496
0.392871
0.39313
0.405272
0.391911
0.379903
0.378106
0.367608
0.342261
0.332721
0.362266
0.530925
0.738356
0.779297
0.777034
0.775545
0.793836
0.847372
0.888654
0.898704
0.52693
0.479638
0.45525
0.459249
0.445383
0.426892
0.419353
0.403335
0.374102
0.357244
0.346457
0.370851
0.540582
0.70619
0.769262
0.781574
0.807358
0.866896
0.905633
0.897416
0.686551
0.598731
0.520225
0.504062
0.504342
0.481901
0.467708
0.452911
0.416898
0.384623
0.369997
0.34729
0.382189
0.545866
0.702088
0.763142
0.810822
0.882409
0.917304
0.90275
0.880955
0.756054
0.617194
0.564864
0.566649
0.545378
0.515683
0.498477
0.474468
0.416712
0.393081
0.355424
0.348941
0.38661
0.527974
0.678449
0.788466
0.869742
0.91389
0.899349
1.27234
0.990881
0.795291
0.643861
0.602244
0.608206
0.594741
0.580301
0.555951
0.502801
0.434602
0.404577
0.360457
0.35978
0.384291
0.476078
0.60733
0.728188
0.845235
0.872143
2.02303
1.49561
1.21205
0.971643
0.797509
0.730643
0.683013
0.652744
0.62549
0.584056
0.535223
0.494262
0.445803
0.397284
0.391844
0.39596
0.420745
0.475581
0.591362
0.765237
2.50256
2.17021
1.72002
1.35452
1.11411
0.961066
0.802756
0.693832
0.673563
0.645896
0.614449
0.592014
0.551624
0.484763
0.452726
0.434201
0.427641
0.451841
0.516367
0.682504
2.36476
2.34903
2.23975
1.9249
1.55279
1.3064
1.09041
0.926676
0.835928
0.739768
0.660161
0.64339
0.620459
0.565213
0.515793
0.49058
0.493508
0.506229
0.532935
0.665226
1.6829
2.14219
2.2231
2.19733
2.06023
1.77769
1.48917
1.23584
1.05651
0.918055
0.770291
0.698554
0.65533
0.60299
0.561272
0.563445
0.57858
0.607409
0.638004
0.715108
1.10795
1.4343
1.8459
2.11711
2.11691
2.07496
1.93311
1.66221
1.38726
1.21212
1.04638
0.889696
0.78354
0.6911
0.641075
0.639671
0.645951
0.665242
0.703952
0.788869
1.00444
1.04441
1.20555
1.54863
1.87416
2.01888
2.00507
1.94297
1.79133
1.57648
1.34569
1.12702
1.00412
0.908027
0.804896
0.742073
0.737404
0.745044
0.770888
0.855607
1.00009
1.00112
1.01058
1.07949
1.27432
1.57349
1.82849
1.89854
1.87232
1.79933
1.67803
1.50729
1.31964
1.171
1.04917
0.94732
0.928099
0.93458
0.956216
1.00178
1
1.00001
1.00016
1.00249
1.01984
1.10226
1.29565
1.53516
1.73096
1.75436
1.71756
1.64946
1.55441
1.44794
1.33902
1.2323
1.15984
1.13041
1.12456
1.10291
1
1
1
1.00002
1.00038
1.00369
1.02652
1.1029
1.26122
1.44468
1.57306
1.58582
1.5537
1.49345
1.42376
1.3509
1.28192
1.22354
1.17836
1.10666
1
1
1
1
1
1.00004
1.00055
1.00403
1.02356
1.07712
1.18515
1.29661
1.37435
1.39
1.37078
1.32851
1.27143
1.21083
1.15565
1.07598
1
1
1
1
1
1
1
1.00005
1.00045
1.00279
1.01326
1.03965
1.08597
1.13121
1.16235
1.16057
1.14418
1.11088
1.07084
1.02421
1
1
1
1
1
1
1
1
1
1.00003
1.00021
1.00104
1.00383
1.00969
1.01736
1.02151
1.02085
1.01653
1.00931
1.00227
1
1
1
1
1
1
1
1
1
1
1
1.00001
1.00004
1.00014
1.00035
1.00055
1.00057
1.00048
1.00026
1.00005
1
1
1
1
1
1
1
1
1
1
1
1
1
1
1
1
1
1
1
1
1.62235
2.46978
2.58793
2.0857
1.3089
1.03677
1.00187
1.00005
1
1
1
1
1
1
1
2.34814
2.82009
2.53064
1.54083
1.04804
1.0008
1
1
1
1
1
1
1
1
1
2.93053
2.87451
1.98379
1.15267
1.00523
1.00005
1
1
1
1
1
1
1
1
1
3.24977
2.55577
1.36448
1.01901
1.00017
1
1
1
1
1
1
1
1
1
1
3.31422
1.6863
1.04801
1.00055
1
1
1
1
1
1
1
1
1
1
1
2.06913
1.07384
1.00049
0.999998
0.999999
1
1
1
1
1
1
1
1
1
1
1.10243
1.00058
0.999997
1
1
1
1
1
1
1
1
1
1
1
1
0.998117
0.999863
0.999996
1
1
1
1
1
1
1
1
1
1
1
1
0.999967
1
1
1
1
1
1
1
1
1
1
1
1
1
1
1
1
1
1
1
1
1
1
1
1
1
1
1
1
1
1
1
1
1
1
1
1
1
1
1
1
1
1
1
1
1
1
1
1
1
1
1
1
1
1
1
1
1
1
1
1
1
1
1
1
1
1
1
1
1
1
1
1
1
1
1
1
1
1
1
1
1
1
1
1
1
1
1
1
1
1
1
1
1
1
1
1
1
1
1
1
1
1
1
1
1
1
1
1
1
1
1
1
1
1
1
1
1
1
1
1
1
1
1
1
1
1
1
1
1
1
1
1
1
1
1
1
1
1
1
1
1
1
1
1
1
1
1
1
1
1
1
1
1
1
1
1
1
1
1
1
1
1
1
1
1
1
1
1
1
1
1
1
1
1
1
1
1
1
1
1
1
1
1
1
1
1
1
1
1
1
1
1
1
1
1
1
1
1
1
1
1
1
1
1
1
1
1
1
1
1
1
1
1
1
1
1
1
1
1
1
1
1
1
1
1
1
1
1
1
1
1
1
1
1
1
1
1
1
1
1
1
1
1
1
1
1
1
1
1
1
1
1
1
1
1
1
1
1
1
1
1
1
1
1
1
1
1
1
1
1
1
1
1
1
1
1
1
1
1
1
1
1
1
1
1
1
1
1
1
1
1
1
1
1
1
1
1
1
1
1
1
1
1
1
1
1
1
1
1
1
1
1
1
1
1
1
1
1
1
1
1
1
1
1
1
1
1
1
1
1
1
1
1
1
1
1
1
1
1
1
1
1
1
1
1
1
1
1
1
1
1
1
1
1
1
1
1
1
1
1
1
1
1
1
1
1
1
1
1
1
1
1
1
1
1
1
1
1
1
1
1
1
1
1
1
1
1
1
1
1
1
1
1
1
1
1
1
1
1
1
1
1
1
1
1
1
1
1
1
1
1
1
1
1
1
1
1
1
1
1
1
1
1
1
1
1
1
1
1
1
1
1
1
1
1
1
1
1
1
1
1
1
1
1
1
1
1
1
1
1
1
1
1
1
1
1
1
1
1
1
1
1
1
1
1
1
1
1
1
1
1
1
1
1
1
1
1
1
1
1
1
1
1
1
1
1
1
1
1
1
1
1
1
1
1
1
1
1
1
1
1
1
1
1
1
1
1
1
1
1
1
1
1
1
1
1
1
1
1
1
1
1
1
1
1
1
1
1
1
1
1
1
1
1
1
1
1
1
1
1
1
1
1
1
1
1
1
1
1
1
1
1
1
1
1
1
1
1
1
1
1
1
1
1
1
1
1
1
1
1
1
1
1
1
1
1
1
1
1
1
1
1
1
1
1
1
1
1
1
1
1
1
1
1
1
1
1
1
1
1
1
1
1
1
1
1
1
1
1
1
1
1
1
1
1
1
1
1
1
1
1
1
1
1
1
1
1
1
1
1
1
1
1
1
1
1
1
1
1
1
1
1
1
1
1
1
1
1
1
1
1
1
1
1
1
1
1
1
1
1
1
1
1
1
1
1
1
1
1
1
1
1
1
1
1
1
1
1
1
1
1
1
1
1
1
1
1
1
1
1
1
1
1
1
1
1
1
1
1
1
1
1
1
1
1
1
1
1
1
1
1
1
1
1
1
1
1
1
1
1
1
1
1
1
1
1
1
1
1
1
1
1
1
1
1
1
1
1
1
1
1
1
1
1
1
1
1
1
1
1
1
1
1
1
1
1
1
1
1
1
1
1
1
1
1
1
1
1
1
1
1
1
1
1
1
1
1
1
1
1
1
1
1
1
1
1
1
1
1
1
1
1
1
1
1
1
1
1
1
1
1
1
1
1
1
1
1
1
1
1
1
1
1
1
1
1
1
1
1
1
1
1
1
1
1
1
1
1
1
1
1
1
1
1
1
1
1
1
1
1
1
1
1
1
0.999967
1
1
1
1
1
1
1
1
1
1
1
1
1
1
0.998118
0.999863
0.999996
1
1
1
1
1
1
1
1
1
1
1
1
1.10244
1.00058
0.999997
1
1
1
1
1
1
1
1
1
1
1
1
2.06911
1.07384
1.00049
0.999998
0.999999
1
1
1
1
1
1
1
1
1
1
3.31419
1.6863
1.04801
1.00055
1
1
1
1
1
1
1
1
1
1
1
3.24978
2.55576
1.36449
1.01901
1.00017
1
1
1
1
1
1
1
1
1
1
2.93055
2.87454
1.98376
1.15265
1.00523
1.00005
1
1
1
1
1
1
1
1
1
2.34818
2.82014
2.53065
1.54079
1.04804
1.0008
1
1
1
1
1
1
1
1
1
1.62237
2.4698
2.58796
2.08566
1.30887
1.03677
1.00187
1.00005
1
1
1
1
1
1
1
1.27263
2.02336
2.50229
2.36479
1.68298
1.10794
1.00444
1.00009
1
1
1
1
1
1
1
0.989886
1.49523
2.17089
2.34909
2.14226
1.43434
1.04441
1.00112
1.00001
1
1
1
1
1
1
0.795539
1.21137
1.71963
2.23974
2.22306
1.84595
1.20559
1.01058
1.00016
1
1
1
1
1
1
0.644895
0.972699
1.35393
1.92463
2.19736
2.11718
1.54871
1.07952
1.00249
1.00002
1
1
1
1
1
0.60178
0.796681
1.1139
1.55327
2.06041
2.11694
1.87413
1.27431
1.01984
1.00038
1
1
1
1
1
0.607853
0.731527
0.961516
1.30556
1.77755
2.07503
2.01891
1.5734
1.10221
1.00369
1.00004
1
1
1
1
0.594327
0.683435
0.80325
1.09021
1.48892
1.93309
2.00509
1.82844
1.29555
1.02651
1.00055
1
1
1
1
0.579478
0.652233
0.694083
0.927988
1.23622
1.66218
1.94299
1.89855
1.53512
1.10288
1.00403
1.00005
1
1
1
0.55593
0.625317
0.673616
0.836566
1.05692
1.3876
1.7915
1.87236
1.73098
1.26123
1.02356
1.00045
1
1
1
0.504547
0.583817
0.644826
0.73976
0.918413
1.21237
1.57698
1.79941
1.75438
1.4447
1.07713
1.00279
1.00003
1
1
0.43653
0.535005
0.613237
0.659358
0.771346
1.04721
1.34556
1.67795
1.71756
1.57307
1.18517
1.01326
1.00021
1
1
0.404257
0.495054
0.591859
0.642195
0.698401
0.890398
1.12652
1.50719
1.64944
1.58581
1.29662
1.03965
1.00104
1.00001
1
0.359233
0.44663
0.552458
0.619781
0.654214
0.783948
1.00427
1.31966
1.55439
1.55369
1.37435
1.08597
1.00383
1.00004
1
0.358883
0.398211
0.48811
0.566567
0.601057
0.690262
0.908222
1.17077
1.44791
1.49344
1.38999
1.13121
1.00969
1.00014
1
0.38337
0.391899
0.454603
0.517488
0.560587
0.639359
0.805399
1.0488
1.33893
1.42376
1.37077
1.16234
1.01736
1.00035
1
0.473119
0.395388
0.434329
0.492507
0.563006
0.637838
0.74277
0.947138
1.23237
1.35091
1.32851
1.16057
1.02151
1.00055
1
0.603577
0.419357
0.427321
0.496133
0.578325
0.64425
0.738003
0.927894
1.15988
1.28192
1.27143
1.14418
1.02085
1.00057
1
0.724093
0.47312
0.451425
0.510263
0.608016
0.663901
0.745419
0.934423
1.13029
1.22351
1.21082
1.11087
1.01653
1.00048
1
0.838487
0.588652
0.516234
0.53647
0.640199
0.703489
0.77079
0.95592
1.12432
1.17829
1.15561
1.07084
1.00931
1.00026
1
0.867038
0.763525
0.682523
0.666451
0.717757
0.789314
0.855024
1.00116
1.10265
1.10653
1.07595
1.02422
1.00227
1.00005
1
0.880958
0.75575
0.617746
0.565194
0.566431
0.54461
0.515311
0.497925
0.474542
0.41744
0.39288
0.354553
0.348479
0.385356
0.525383
0.674733
0.785054
0.870107
0.91581
0.900973
0.686284
0.59786
0.521937
0.504854
0.503894
0.480732
0.467434
0.453005
0.416749
0.384459
0.370124
0.346526
0.379655
0.542609
0.69623
0.762607
0.811673
0.88458
0.920487
0.90519
0.526899
0.478917
0.456217
0.459603
0.444853
0.426056
0.419212
0.40357
0.37394
0.35767
0.346625
0.369778
0.536381
0.701928
0.772441
0.785116
0.811217
0.870729
0.910187
0.901722
0.402027
0.39275
0.393181
0.405335
0.391617
0.379762
0.378283
0.367858
0.342207
0.332867
0.361565
0.527399
0.734276
0.779941
0.780402
0.782702
0.800692
0.853829
0.89437
0.901845
0.315288
0.319035
0.341175
0.353628
0.335411
0.329713
0.332623
0.323567
0.320489
0.366078
0.540945
0.740266
0.807465
0.794678
0.774422
0.767157
0.786002
0.832901
0.878593
0.901068
0.240769
0.256752
0.273597
0.297701
0.291709
0.287293
0.296758
0.357768
0.469956
0.609647
0.779093
0.820605
0.822217
0.79945
0.758326
0.752713
0.765452
0.807934
0.866353
0.90175
0.188171
0.21227
0.240309
0.242702
0.261693
0.34048
0.492878
0.652726
0.733313
0.784471
0.829888
0.837444
0.822956
0.788799
0.751614
0.752074
0.764453
0.805576
0.867707
0.906204
0.135971
0.15759
0.227269
0.352542
0.540343
0.679033
0.762528
0.794494
0.804289
0.836297
0.831553
0.822259
0.810862
0.779183
0.758821
0.762037
0.779885
0.821807
0.880288
0.911431
0.273937
0.404696
0.541737
0.682129
0.748102
0.795219
0.843834
0.838923
0.833031
0.834871
0.828717
0.813895
0.795991
0.773785
0.771444
0.780855
0.801382
0.836963
0.884835
0.908163
0.550443
0.639708
0.727721
0.785194
0.80186
0.825369
0.853182
0.85478
0.846707
0.838063
0.824019
0.799964
0.780982
0.778486
0.785767
0.801022
0.82954
0.867064
0.908396
0.91942
)
;

boundaryField
{
    inlet
    {
        type            fixedValue;
        value           uniform 1;
    }
    outlet
    {
        type            zeroGradient;
    }
    airfoil
    {
        type            zeroGradient;
    }
    top
    {
        type            symmetryPlane;
    }
    bottom
    {
        type            symmetryPlane;
    }
    defaultFaces
    {
        type            empty;
    }
}


// ************************************************************************* //
