/*--------------------------------*- C++ -*----------------------------------*\
  =========                 |
  \\      /  F ield         | OpenFOAM: The Open Source CFD Toolbox
   \\    /   O peration     | Website:  https://openfoam.org
    \\  /    A nd           | Version:  7
     \\/     M anipulation  |
\*---------------------------------------------------------------------------*/
FoamFile
{
    version     2.0;
    format      ascii;
    class       volScalarField;
    location    "2";
    object      rho;
}
// * * * * * * * * * * * * * * * * * * * * * * * * * * * * * * * * * * * * * //

dimensions      [1 -3 0 0 0 0 0];

internalField   nonuniform List<scalar> 
3700
(
0.147926
0.268069
0.312821
0.393078
0.428497
0.461693
0.516759
0.566995
0.598624
0.606047
0.629435
0.649332
0.658615
0.65146
0.676766
0.68622
0.699792
0.703161
0.709417
0.70676
0.11749
0.124359
0.149567
0.186259
0.171903
0.170021
0.179069
0.194351
0.19644
0.186075
0.199736
0.212711
0.213605
0.21408
0.229544
0.263408
0.298613
0.29748
0.292136
0.274748
0.132
0.115587
0.111655
0.103438
0.0927047
0.0861845
0.0744238
0.0740962
0.0765881
0.0801271
0.0854321
0.0936267
0.105387
0.122928
0.140638
0.155531
0.166534
0.172041
0.176132
0.177463
0.151316
0.114866
0.101539
0.0900559
0.0853512
0.0884315
0.0921855
0.104493
0.113826
0.126013
0.11595
0.118411
0.123564
0.140412
0.160718
0.182825
0.206695
0.228171
0.248802
0.259355
0.168119
0.108101
0.0865159
0.0760729
0.075365
0.0855085
0.0974098
0.123336
0.146667
0.165366
0.167359
0.175839
0.168784
0.171144
0.176912
0.194935
0.223225
0.259118
0.294565
0.338254
0.170182
0.0957346
0.0692633
0.0660891
0.0679181
0.0784774
0.0949302
0.122873
0.153326
0.179446
0.206913
0.226351
0.243643
0.258473
0.255601
0.258394
0.269419
0.295121
0.33919
0.425891
0.160539
0.0847442
0.0618784
0.0635679
0.0672676
0.078125
0.0940769
0.118013
0.148151
0.180181
0.225376
0.25587
0.29601
0.330183
0.358804
0.380395
0.4007
0.417954
0.444781
0.5398
0.143366
0.0769727
0.0579764
0.0639431
0.0729841
0.0945214
0.11965
0.136116
0.155921
0.180212
0.227999
0.270975
0.333672
0.386724
0.440803
0.499026
0.548425
0.598016
0.631652
0.75083
0.11448
0.0671986
0.0535173
0.0626983
0.0799408
0.121172
0.160799
0.200004
0.229478
0.253403
0.280109
0.31614
0.37647
0.445351
0.519475
0.606949
0.698318
0.794425
0.861116
1.02985
0.0860985
0.0549357
0.0475696
0.0525283
0.0807858
0.127669
0.179789
0.243478
0.308194
0.382096
0.441347
0.501002
0.557782
0.619979
0.675742
0.757456
0.880407
1.02093
1.16467
1.34888
0.0643101
0.0447034
0.0421215
0.0477547
0.0813452
0.123081
0.176385
0.246289
0.347377
0.479772
0.584995
0.69415
0.80299
0.900898
0.978684
1.07044
1.18484
1.32386
1.60652
1.59145
0.0472924
0.0353484
0.0353518
0.0456609
0.0847267
0.13159
0.176549
0.234162
0.360957
0.554323
0.722252
0.888303
1.06171
1.20492
1.35867
1.51584
1.67044
1.83002
2.13433
2.08782
0.0361967
0.0266948
0.0271608
0.0423201
0.106591
0.218478
0.311703
0.435296
0.617948
0.798166
1.00964
1.2055
1.41411
1.60293
1.83874
2.09406
2.33927
2.56011
2.89914
2.8848
0.0306616
0.0222152
0.0214691
0.0528472
0.192207
0.392009
0.584649
0.838696
1.1266
1.3945
1.62828
1.8445
2.07097
2.29345
2.58507
2.91795
3.25392
3.59194
3.86881
4.14622
0.0257991
0.0197459
0.0219336
0.130517
0.34131
0.580423
0.881913
1.24154
1.66947
2.10439
2.42015
2.72156
3.0266
3.35612
3.77185
4.1722
4.55412
4.87684
5.06266
5.23392
0.0125877
0.021001
0.0620392
0.28028
0.563674
0.914418
1.40254
1.97414
2.61208
3.15385
3.56618
3.95965
4.34488
4.76193
5.20733
5.50387
5.68236
5.73397
5.60286
5.42896
0.00789744
0.0345111
0.228747
0.549207
1.14892
1.9905
2.79161
3.61226
4.46226
4.96635
5.26001
5.5842
5.8779
6.1048
6.21606
6.10843
5.80297
5.06106
3.87522
2.63492
0.0440222
0.238072
0.754741
1.65918
2.86869
3.96408
4.94717
5.93365
6.68313
6.74408
6.59896
6.59338
6.53527
6.3055
5.59895
4.26915
2.91201
1.8568
1.42344
1.39
0.438203
1.21364
2.70114
4.38406
5.80988
6.74292
7.52836
8.17576
7.99403
7.37487
6.76779
6.00787
4.73103
3.24551
1.99077
1.43991
1.38532
1.39302
1.3963
1.39923
3.21985
5.03565
6.77413
7.9295
8.57474
8.91455
9.12381
8.66175
6.32351
4.46161
3.29928
2.18744
1.51462
1.38277
1.39017
1.39485
1.39884
1.39997
1.40003
1.40002
9.63841
9.55718
9.49705
9.57191
9.66524
9.42507
8.32832
3.10262
0.942594
1.40001
1.40001
1.40001
1.40001
1.40001
1.40001
1.40001
1.40001
1.40001
1.40001
1.40001
9.61652
9.52162
9.41896
9.32522
9.51959
7.92499
3.66038
1.42623
1.40001
1.40001
1.40001
1.40001
1.40001
1.40001
1.40001
1.40001
1.40001
1.40001
1.40001
1.40001
9.42147
9.51501
9.43503
9.16606
8.8649
4.75198
1.47094
1.39854
1.40001
1.40001
1.40001
1.40001
1.40001
1.40001
1.40001
1.40001
1.40001
1.40001
1.40001
1.40001
9.26574
9.50838
9.51526
8.9615
6.5691
2.02642
1.39086
1.40017
1.4
1.40001
1.40001
1.40001
1.40001
1.40001
1.40001
1.40001
1.40001
1.40001
1.40001
1.40001
9.06548
9.49159
9.53674
8.68172
3.75052
1.36522
1.40052
1.4
1.40001
1.40001
1.40001
1.40001
1.40001
1.40001
1.40001
1.40001
1.40001
1.40001
1.40001
1.40001
8.90667
9.36102
9.44509
6.86659
1.87745
1.40001
1.40001
1.40001
1.40001
1.40001
1.40001
1.40001
1.40001
1.40001
1.40001
1.40001
1.40001
1.40001
1.40001
1.40001
8.84499
9.23085
9.08105
4.84475
1.37919
1.40001
1.40001
1.40001
1.40001
1.40001
1.40001
1.40001
1.40001
1.40001
1.40001
1.40001
1.40001
1.40001
1.40001
1.40001
8.95806
9.2396
8.47921
2.87897
1.40001
1.40001
1.40001
1.40001
1.40001
1.40001
1.40001
1.40001
1.40001
1.40001
1.40001
1.40001
1.40001
1.40001
1.40001
1.40001
9.59862
9.25978
6.84108
1.66327
1.40001
1.40001
1.40001
1.40001
1.40001
1.40001
1.40001
1.40001
1.40001
1.40001
1.40001
1.40001
1.40001
1.40001
1.40001
1.40001
10.0209
8.82283
4.91547
1.38235
1.40001
1.40001
1.40001
1.40001
1.40001
1.40001
1.40001
1.40001
1.40001
1.40001
1.40001
1.40001
1.40001
1.40001
1.40001
1.40001
10.3373
8.37548
3.19225
1.40001
1.40001
1.40001
1.40001
1.40001
1.40001
1.40001
1.40001
1.40001
1.40001
1.40001
1.40001
1.40001
1.40001
1.40001
1.40001
1.40001
10.4406
7.44729
2.21283
1.40001
1.40001
1.40001
1.40001
1.40001
1.40001
1.40001
1.40001
1.40001
1.40001
1.40001
1.40001
1.40001
1.40001
1.40001
1.40001
1.40001
10.5023
6.52537
1.59647
1.40001
1.40001
1.40001
1.40001
1.40001
1.40001
1.40001
1.40001
1.40001
1.40001
1.40001
1.40001
1.40001
1.40001
1.40001
1.40001
1.40001
10.2568
5.49549
1.40008
1.40001
1.40001
1.40001
1.40001
1.40001
1.40001
1.40001
1.40001
1.40001
1.40001
1.40001
1.40001
1.40001
1.40001
1.40001
1.40001
1.40001
9.92562
4.52162
1.40001
1.40001
1.40001
1.40001
1.40001
1.40001
1.40001
1.40001
1.40001
1.40001
1.40001
1.40001
1.40001
1.40001
1.40001
1.40001
1.40001
1.40001
9.58097
3.63041
1.40001
1.40001
1.40001
1.40001
1.40001
1.40001
1.40001
1.40001
1.40001
1.40001
1.40001
1.40001
1.40001
1.40001
1.40001
1.40001
1.40001
1.40001
9.22104
2.68643
1.40001
1.40001
1.40001
1.40001
1.40001
1.40001
1.40001
1.40001
1.40001
1.40001
1.40001
1.40001
1.40001
1.40001
1.40001
1.40001
1.40001
1.40001
8.67329
1.94539
1.40001
1.40001
1.40001
1.40001
1.40001
1.40001
1.40001
1.40001
1.40001
1.40001
1.40001
1.40001
1.40001
1.40001
1.40001
1.40001
1.40001
1.40001
8.04541
1.40976
1.40001
1.40001
1.40001
1.40001
1.40001
1.40001
1.40001
1.40001
1.40001
1.40001
1.40001
1.40001
1.40001
1.40001
1.40001
1.40001
1.40001
1.40001
6.35643
1.40008
1.40001
1.40001
1.40001
1.40001
1.40001
1.40001
1.40001
1.40001
1.40001
1.40001
1.40001
1.40001
1.40001
1.40001
1.40001
1.40001
1.40001
1.40001
6.35642
1.40008
1.40001
1.40001
1.40001
1.40001
1.40001
1.40001
1.40001
1.40001
1.40001
1.40001
1.40001
1.40001
1.40001
1.40001
1.40001
1.40001
1.40001
1.40001
8.04538
1.40976
1.40001
1.40001
1.40001
1.40001
1.40001
1.40001
1.40001
1.40001
1.40001
1.40001
1.40001
1.40001
1.40001
1.40001
1.40001
1.40001
1.40001
1.40001
8.67331
1.9454
1.40001
1.40001
1.40001
1.40001
1.40001
1.40001
1.40001
1.40001
1.40001
1.40001
1.40001
1.40001
1.40001
1.40001
1.40001
1.40001
1.40001
1.40001
9.22108
2.68643
1.40001
1.40001
1.40001
1.40001
1.40001
1.40001
1.40001
1.40001
1.40001
1.40001
1.40001
1.40001
1.40001
1.40001
1.40001
1.40001
1.40001
1.40001
9.58095
3.6304
1.40001
1.40001
1.40001
1.40001
1.40001
1.40001
1.40001
1.40001
1.40001
1.40001
1.40001
1.40001
1.40001
1.40001
1.40001
1.40001
1.40001
1.40001
9.92563
4.52159
1.40001
1.40001
1.40001
1.40001
1.40001
1.40001
1.40001
1.40001
1.40001
1.40001
1.40001
1.40001
1.40001
1.40001
1.40001
1.40001
1.40001
1.40001
10.2568
5.4955
1.40008
1.40001
1.40001
1.40001
1.40001
1.40001
1.40001
1.40001
1.40001
1.40001
1.40001
1.40001
1.40001
1.40001
1.40001
1.40001
1.40001
1.40001
10.5023
6.52542
1.59648
1.40001
1.40001
1.40001
1.40001
1.40001
1.40001
1.40001
1.40001
1.40001
1.40001
1.40001
1.40001
1.40001
1.40001
1.40001
1.40001
1.40001
10.4405
7.44731
2.21286
1.40001
1.40001
1.40001
1.40001
1.40001
1.40001
1.40001
1.40001
1.40001
1.40001
1.40001
1.40001
1.40001
1.40001
1.40001
1.40001
1.40001
10.3373
8.37546
3.19227
1.40001
1.40001
1.40001
1.40001
1.40001
1.40001
1.40001
1.40001
1.40001
1.40001
1.40001
1.40001
1.40001
1.40001
1.40001
1.40001
1.40001
10.0209
8.82285
4.91546
1.38235
1.40001
1.40001
1.40001
1.40001
1.40001
1.40001
1.40001
1.40001
1.40001
1.40001
1.40001
1.40001
1.40001
1.40001
1.40001
1.40001
9.59863
9.25977
6.84108
1.66327
1.40001
1.40001
1.40001
1.40001
1.40001
1.40001
1.40001
1.40001
1.40001
1.40001
1.40001
1.40001
1.40001
1.40001
1.40001
1.40001
8.95804
9.23956
8.47912
2.87895
1.40001
1.40001
1.40001
1.40001
1.40001
1.40001
1.40001
1.40001
1.40001
1.40001
1.40001
1.40001
1.40001
1.40001
1.40001
1.40001
8.845
9.23086
9.08112
4.84492
1.37916
1.40001
1.40001
1.40001
1.40001
1.40001
1.40001
1.40001
1.40001
1.40001
1.40001
1.40001
1.40001
1.40001
1.40001
1.40001
8.90671
9.36102
9.44482
6.86564
1.87749
1.40001
1.40001
1.40001
1.40001
1.40001
1.40001
1.40001
1.40001
1.40001
1.40001
1.40001
1.40001
1.40001
1.40001
1.40001
9.0655
9.49159
9.53686
8.68292
3.7503
1.36522
1.40052
1.4
1.40001
1.40001
1.40001
1.40001
1.40001
1.40001
1.40001
1.40001
1.40001
1.40001
1.40001
1.40001
9.26577
9.50841
9.51539
8.96149
6.569
2.02682
1.39085
1.40017
1.4
1.40001
1.40001
1.40001
1.40001
1.40001
1.40001
1.40001
1.40001
1.40001
1.40001
1.40001
9.42153
9.51503
9.43482
9.16588
8.86449
4.75202
1.47089
1.39854
1.40001
1.40001
1.40001
1.40001
1.40001
1.40001
1.40001
1.40001
1.40001
1.40001
1.40001
1.40001
9.61661
9.52171
9.419
9.32527
9.52039
7.92535
3.66046
1.42623
1.40001
1.40001
1.40001
1.40001
1.40001
1.40001
1.40001
1.40001
1.40001
1.40001
1.40001
1.40001
9.63838
9.55722
9.49719
9.57199
9.66533
9.42431
8.32868
3.10517
0.942082
1.40001
1.40001
1.40001
1.40001
1.40001
1.40001
1.40001
1.40001
1.40001
1.40001
1.40001
3.22109
5.03814
6.78152
7.93731
8.57764
8.9116
9.11986
8.6588
6.32174
4.46074
3.299
2.18752
1.5147
1.38277
1.39017
1.39485
1.39884
1.39997
1.40003
1.40002
0.433965
1.19995
2.68456
4.37632
5.81708
6.75208
7.53275
8.17525
7.99308
7.37355
6.76661
6.00734
4.73115
3.24601
1.99122
1.44003
1.38532
1.39302
1.3963
1.39923
0.0508244
0.247744
0.751141
1.65103
2.85947
3.96281
4.95215
5.93859
6.68574
6.74427
6.59891
6.59313
6.53509
6.30543
5.59919
4.2695
2.91229
1.85695
1.42348
1.39
0.00790051
0.0488666
0.230087
0.536815
1.1376
1.98368
2.78962
3.61275
4.46332
4.96736
5.26083
5.58417
5.87704
6.10386
6.21548
6.10801
5.80277
5.06111
3.87542
2.63507
0.011087
0.023055
0.0647997
0.278388
0.562811
0.913837
1.40141
1.97469
2.61323
3.15519
3.56705
3.95975
4.34441
4.76125
5.20705
5.50385
5.68236
5.73392
5.60282
5.42893
0.0263476
0.0203452
0.0223877
0.13293
0.339709
0.579645
0.882507
1.24217
1.67048
2.10517
2.42101
2.72227
3.02714
3.35635
3.77195
4.17222
4.55399
4.87652
5.06238
5.2338
0.0373492
0.0221887
0.0214721
0.0551729
0.189336
0.391292
0.5842
0.837076
1.12507
1.39344
1.62785
1.84436
2.07093
2.29345
2.58514
2.9181
3.25401
3.59186
3.86849
4.14606
0.0436663
0.0274597
0.0254693
0.0437476
0.107619
0.220546
0.311653
0.433829
0.615522
0.796257
1.00813
1.20487
1.41432
1.60356
1.83948
2.09449
2.33935
2.55994
2.8988
2.88451
0.0520139
0.0367636
0.0351447
0.0478737
0.0869596
0.13355
0.177642
0.235039
0.361491
0.554192
0.722038
0.888452
1.06213
1.20537
1.35885
1.51577
1.67019
1.82972
2.13406
2.0877
0.0652554
0.0456411
0.0429357
0.0499644
0.0828887
0.123882
0.177776
0.247255
0.347885
0.47972
0.58495
0.694049
0.802722
0.900606
0.978252
1.06995
1.18453
1.32379
1.60676
1.59176
0.0836285
0.0550756
0.0485325
0.0548797
0.0822084
0.127692
0.180884
0.243733
0.308285
0.381525
0.440472
0.500119
0.556936
0.619311
0.675391
0.757521
0.880869
1.02144
1.1651
1.34908
0.110625
0.0669182
0.0547106
0.0653978
0.0810914
0.120529
0.161174
0.19877
0.228226
0.252381
0.279579
0.316255
0.377034
0.445917
0.520037
0.607494
0.698828
0.794861
0.861287
1.02986
0.139686
0.0765676
0.0586188
0.0652981
0.0731979
0.0932434
0.118923
0.134463
0.155156
0.180864
0.229397
0.271924
0.334261
0.387117
0.441089
0.499261
0.548657
0.598164
0.631567
0.750322
0.156733
0.0836606
0.0614957
0.0637489
0.0674211
0.0773269
0.0939836
0.118424
0.14899
0.181364
0.226057
0.256168
0.295971
0.330053
0.358672
0.380223
0.400441
0.417559
0.444289
0.539185
0.166321
0.0931059
0.0676416
0.0656325
0.0680278
0.0777995
0.0954593
0.123898
0.154257
0.179805
0.206743
0.225888
0.243081
0.257858
0.255169
0.25806
0.269088
0.294988
0.339349
0.426079
0.166027
0.106916
0.0839805
0.0749573
0.0753311
0.0852837
0.0982536
0.124419
0.146936
0.164819
0.166336
0.174843
0.168159
0.170757
0.176868
0.195205
0.223521
0.259389
0.294891
0.33861
0.151155
0.115224
0.101181
0.0892494
0.0851755
0.0884281
0.092732
0.104999
0.113177
0.124694
0.11521
0.118069
0.123697
0.140782
0.161034
0.183089
0.206976
0.228465
0.249059
0.259415
0.133471
0.115287
0.111657
0.103187
0.0923849
0.0856916
0.0743011
0.0738956
0.0762456
0.0797357
0.0853496
0.0938912
0.105973
0.123529
0.140991
0.155609
0.166581
0.172257
0.176306
0.177316
0.116546
0.122933
0.139357
0.156429
0.180183
0.189221
0.177332
0.185153
0.201201
0.199278
0.194997
0.186304
0.200316
0.235518
0.262232
0.270133
0.276584
0.291908
0.309664
0.293641
0.158494
0.267063
0.310526
0.361366
0.42872
0.483941
0.521976
0.569881
0.606099
0.614773
0.624855
0.630227
0.655975
0.672175
0.686054
0.678272
0.690527
0.709883
0.721412
0.714012
0.764324
0.887128
1.00837
1.08831
1.11213
1.14336
1.17221
1.17177
1.15842
1.14303
1.12471
1.10189
1.08302
1.08341
1.09935
1.12748
1.16657
1.22386
1.27811
1.28849
0.382344
0.566528
0.753009
0.946926
1.03946
1.10516
1.17343
1.16522
1.15874
1.16111
1.1494
1.12615
1.09843
1.07889
1.08246
1.10163
1.13498
1.19681
1.25299
1.27394
0.190214
0.221376
0.317325
0.49048
0.751987
0.948121
1.06542
1.11024
1.12297
1.16234
1.15288
1.13831
1.12219
1.08148
1.05769
1.06564
1.09613
1.15093
1.23905
1.27946
0.263247
0.297068
0.336532
0.339709
0.365913
0.477187
0.691048
0.914413
1.0232
1.09325
1.15339
1.16379
1.1432
1.09426
1.0493
1.05178
1.07114
1.1334
1.21867
1.27113
0.336852
0.358566
0.383302
0.417227
0.408226
0.401437
0.415041
0.500905
0.657213
0.849716
1.08648
1.14149
1.14206
1.10824
1.05148
1.04432
1.0629
1.12609
1.21106
1.26331
0.44048
0.445738
0.477062
0.494591
0.469183
0.461
0.464776
0.452078
0.447783
0.510171
0.758295
1.03693
1.12292
1.10576
1.07332
1.05885
1.08307
1.14928
1.2213
1.25957
0.560741
0.548797
0.549193
0.566122
0.547509
0.530765
0.528265
0.513655
0.478364
0.465117
0.506321
0.741207
1.02958
1.0864
1.08331
1.08152
1.10769
1.1836
1.24276
1.25818
0.735457
0.669679
0.63573
0.641298
0.621989
0.596231
0.585738
0.563448
0.522756
0.499311
0.48433
0.518362
0.75475
0.985057
1.07296
1.09036
1.12692
1.21106
1.26648
1.25636
0.957617
0.835446
0.726176
0.703684
0.704095
0.672872
0.653124
0.632542
0.582407
0.53748
0.517152
0.485565
0.534265
0.762247
0.979784
1.06511
1.1321
1.23292
1.28281
1.26378
1.22795
1.05425
0.861104
0.788321
0.790864
0.761305
0.719987
0.696061
0.662648
0.582209
0.549342
0.496906
0.487967
0.540538
0.737581
0.947466
1.1013
1.21548
1.27813
1.25902
1.77178
1.38082
1.10894
0.898339
0.840508
0.848857
0.830164
0.810113
0.776238
0.702223
0.607248
0.565485
0.504029
0.503195
0.537512
0.665694
0.849236
1.01851
1.18265
1.22105
2.81489
2.08256
1.68864
1.35443
1.11232
1.01941
0.953211
0.911141
0.873245
0.815577
0.747599
0.690594
0.62313
0.555572
0.548165
0.554153
0.589224
0.666288
0.828416
1.07184
3.48242
3.02059
2.39514
1.88726
1.55306
1.34026
1.12007
0.968534
0.940398
0.901925
0.858181
0.827018
0.77086
0.677767
0.633274
0.607695
0.599001
0.633255
0.723731
0.956331
3.2946
3.27075
3.11877
2.68104
2.16378
1.82122
1.52078
1.29298
1.16677
1.03296
0.92214
0.898911
0.867099
0.790218
0.721478
0.686603
0.691174
0.709436
0.747006
0.932202
2.35018
2.98782
3.09854
3.06149
2.87072
2.47771
2.07638
1.72394
1.47441
1.28166
1.07591
0.976109
0.916039
0.843229
0.785229
0.78862
0.810228
0.850981
0.894007
1.00197
1.55047
2.00512
2.57774
2.95402
2.95218
2.89296
2.69544
2.31838
1.93571
1.69192
1.46118
1.243
1.09523
0.966521
0.896959
0.895367
0.904608
0.93199
0.98625
1.1051
1.4062
1.46196
1.68667
2.16473
2.61767
2.81826
2.79783
2.71088
2.4996
2.20038
1.87902
1.57448
1.40341
1.26967
1.12604
1.03866
1.03263
1.04362
1.07984
1.19834
1.40013
1.40157
1.41477
1.51092
1.78265
2.1996
2.55456
2.65145
2.61415
2.51229
2.34322
2.10537
1.84402
1.63704
1.46741
1.32556
1.29914
1.30845
1.33875
1.40245
1.40001
1.40002
1.40022
1.40347
1.4277
1.54268
1.81244
2.14631
2.41908
2.45112
2.39967
2.30465
2.1722
2.02393
1.87227
1.72364
1.62278
1.58187
1.5738
1.54363
1.40001
1.40001
1.40001
1.40004
1.40054
1.40516
1.43702
1.54359
1.76446
2.02026
2.19918
2.21683
2.17202
2.08803
1.99093
1.88943
1.7933
1.71193
1.64891
1.54886
1.40001
1.40001
1.40001
1.40001
1.40001
1.40006
1.40078
1.40564
1.43289
1.50763
1.65835
1.81382
1.92227
1.94413
1.91732
1.85836
1.77876
1.69422
1.61723
1.50605
1.40001
1.40001
1.40001
1.40001
1.40001
1.40001
1.40001
1.40007
1.40064
1.40389
1.41851
1.45534
1.51998
1.58311
1.62657
1.62409
1.60122
1.55475
1.49888
1.4338
1.40001
1.40001
1.40001
1.40001
1.40001
1.40001
1.40001
1.40001
1.40001
1.40005
1.40029
1.40145
1.40535
1.41352
1.42423
1.43002
1.42911
1.42308
1.413
1.40318
1.40001
1.40001
1.40001
1.40001
1.40001
1.40001
1.40001
1.40001
1.40001
1.40001
1.40001
1.40002
1.40006
1.4002
1.40049
1.40077
1.4008
1.40067
1.40037
1.40008
1.40001
1.40001
1.40001
1.40001
1.40001
1.40001
1.40001
1.40001
1.40001
1.40001
1.40001
1.40001
1.40001
1.40001
1.40001
1.40001
1.40001
1.40001
1.40001
1.40001
2.25783
3.43524
3.60116
2.90793
1.82987
1.45124
1.40262
1.40007
1.40001
1.40001
1.40001
1.40001
1.40001
1.40001
1.40001
3.2655
3.92214
3.52467
2.1525
1.46695
1.40112
1.40001
1.4
1.40001
1.40001
1.40001
1.40001
1.40001
1.40001
1.40001
4.07408
3.9989
2.76696
1.61255
1.40729
1.40008
1.40001
1.40001
1.40001
1.40001
1.40001
1.40001
1.40001
1.40001
1.40001
4.5172
3.55961
1.90708
1.42648
1.40025
1.40001
1.40001
1.40001
1.40001
1.40001
1.40001
1.40001
1.40001
1.40001
1.40001
4.60992
2.3541
1.46685
1.40077
1.40001
1.40001
1.40001
1.40001
1.40001
1.40001
1.40001
1.40001
1.40001
1.40001
1.40001
2.88539
1.50281
1.40068
1.4
1.4
1.40001
1.40001
1.40001
1.40001
1.40001
1.40001
1.40001
1.40001
1.40001
1.40001
1.54275
1.40082
1.4
1.4
1.40001
1.40001
1.40001
1.40001
1.40001
1.40001
1.40001
1.40001
1.40001
1.40001
1.40001
1.39738
1.39981
1.4
1.40001
1.40001
1.40001
1.40001
1.40001
1.40001
1.40001
1.40001
1.40001
1.40001
1.40001
1.40001
1.39996
1.40001
1.40001
1.40001
1.40001
1.40001
1.40001
1.40001
1.40001
1.40001
1.40001
1.40001
1.40001
1.40001
1.40001
1.40001
1.40001
1.40001
1.40001
1.40001
1.40001
1.40001
1.40001
1.40001
1.40001
1.40001
1.40001
1.40001
1.40001
1.40001
1.40001
1.40001
1.40001
1.40001
1.40001
1.40001
1.40001
1.40001
1.40001
1.40001
1.40001
1.40001
1.40001
1.40001
1.40001
1.40001
1.40001
1.40001
1.40001
1.40001
1.40001
1.40001
1.40001
1.40001
1.40001
1.40001
1.40001
1.40001
1.40001
1.40001
1.40001
1.40001
1.40001
1.40001
1.40001
1.40001
1.40001
1.40001
1.40001
1.40001
1.40001
1.40001
1.40001
1.40001
1.40001
1.40001
1.40001
1.40001
1.40001
1.40001
1.40001
1.40001
1.40001
1.40001
1.40001
1.40001
1.40001
1.40001
1.40001
1.40001
1.40001
1.40001
1.40001
1.40001
1.40001
1.40001
1.40001
1.40001
1.40001
1.40001
1.40001
1.40001
1.40001
1.40001
1.40001
1.40001
1.40001
1.40001
1.40001
1.40001
1.40001
1.40001
1.40001
1.40001
1.40001
1.40001
1.40001
1.40001
1.40001
1.40001
1.40001
1.40001
1.40001
1.40001
1.40001
1.40001
1.40001
1.40001
1.40001
1.40001
1.40001
1.40001
1.40001
1.40001
1.40001
1.40001
1.40001
1.40001
1.40001
1.40001
1.40001
1.40001
1.40001
1.40001
1.40001
1.40001
1.40001
1.40001
1.40001
1.40001
1.40001
1.40001
1.40001
1.40001
1.40001
1.40001
1.40001
1.40001
1.40001
1.40001
1.40001
1.40001
1.40001
1.40001
1.40001
1.40001
1.40001
1.40001
1.40001
1.40001
1.40001
1.40001
1.40001
1.40001
1.40001
1.40001
1.40001
1.40001
1.40001
1.40001
1.40001
1.40001
1.40001
1.40001
1.40001
1.40001
1.40001
1.40001
1.40001
1.40001
1.40001
1.40001
1.40001
1.40001
1.40001
1.40001
1.40001
1.40001
1.40001
1.40001
1.40001
1.40001
1.40001
1.40001
1.40001
1.40001
1.40001
1.40001
1.40001
1.40001
1.40001
1.40001
1.40001
1.40001
1.40001
1.40001
1.40001
1.40001
1.40001
1.40001
1.40001
1.40001
1.40001
1.40001
1.40001
1.40001
1.40001
1.40001
1.40001
1.40001
1.40001
1.40001
1.40001
1.40001
1.40001
1.40001
1.40001
1.40001
1.40001
1.40001
1.40001
1.40001
1.40001
1.40001
1.40001
1.40001
1.40001
1.40001
1.40001
1.40001
1.40001
1.40001
1.40001
1.40001
1.40001
1.40001
1.40001
1.40001
1.40001
1.40001
1.40001
1.40001
1.40001
1.40001
1.40001
1.40001
1.40001
1.40001
1.40001
1.40001
1.40001
1.40001
1.40001
1.40001
1.40001
1.40001
1.40001
1.40001
1.40001
1.40001
1.40001
1.40001
1.40001
1.40001
1.40001
1.40001
1.40001
1.40001
1.40001
1.40001
1.40001
1.40001
1.40001
1.40001
1.40001
1.40001
1.40001
1.40001
1.40001
1.40001
1.40001
1.40001
1.40001
1.40001
1.40001
1.40001
1.40001
1.40001
1.40001
1.40001
1.40001
1.40001
1.40001
1.40001
1.40001
1.40001
1.40001
1.40001
1.40001
1.40001
1.40001
1.40001
1.40001
1.40001
1.40001
1.40001
1.40001
1.40001
1.40001
1.40001
1.40001
1.40001
1.40001
1.40001
1.40001
1.40001
1.40001
1.40001
1.40001
1.40001
1.40001
1.40001
1.40001
1.40001
1.40001
1.40001
1.40001
1.40001
1.40001
1.40001
1.40001
1.40001
1.40001
1.40001
1.40001
1.40001
1.40001
1.40001
1.40001
1.40001
1.40001
1.40001
1.40001
1.40001
1.40001
1.40001
1.40001
1.40001
1.40001
1.40001
1.40001
1.40001
1.40001
1.40001
1.40001
1.40001
1.40001
1.40001
1.40001
1.40001
1.40001
1.40001
1.40001
1.40001
1.40001
1.40001
1.40001
1.40001
1.40001
1.40001
1.40001
1.40001
1.40001
1.40001
1.40001
1.40001
1.40001
1.40001
1.40001
1.40001
1.40001
1.40001
1.40001
1.40001
1.40001
1.40001
1.40001
1.40001
1.40001
1.40001
1.40001
1.40001
1.40001
1.40001
1.40001
1.40001
1.40001
1.40001
1.40001
1.40001
1.40001
1.40001
1.40001
1.40001
1.40001
1.40001
1.40001
1.40001
1.40001
1.40001
1.40001
1.40001
1.40001
1.40001
1.40001
1.40001
1.40001
1.40001
1.40001
1.40001
1.40001
1.40001
1.40001
1.40001
1.40001
1.40001
1.40001
1.40001
1.40001
1.40001
1.40001
1.40001
1.40001
1.40001
1.40001
1.40001
1.40001
1.40001
1.40001
1.40001
1.40001
1.40001
1.40001
1.40001
1.40001
1.40001
1.40001
1.40001
1.40001
1.40001
1.40001
1.40001
1.40001
1.40001
1.40001
1.40001
1.40001
1.40001
1.40001
1.40001
1.40001
1.40001
1.40001
1.40001
1.40001
1.40001
1.40001
1.40001
1.40001
1.40001
1.40001
1.40001
1.40001
1.40001
1.40001
1.40001
1.40001
1.40001
1.40001
1.40001
1.40001
1.40001
1.40001
1.40001
1.40001
1.40001
1.40001
1.40001
1.40001
1.40001
1.40001
1.40001
1.40001
1.40001
1.40001
1.40001
1.40001
1.40001
1.40001
1.40001
1.40001
1.40001
1.40001
1.40001
1.40001
1.40001
1.40001
1.40001
1.40001
1.40001
1.40001
1.40001
1.40001
1.40001
1.40001
1.40001
1.40001
1.40001
1.40001
1.40001
1.40001
1.40001
1.40001
1.40001
1.40001
1.40001
1.40001
1.40001
1.40001
1.40001
1.40001
1.40001
1.40001
1.40001
1.40001
1.40001
1.40001
1.40001
1.40001
1.40001
1.40001
1.40001
1.40001
1.40001
1.40001
1.40001
1.40001
1.40001
1.40001
1.40001
1.40001
1.40001
1.40001
1.40001
1.40001
1.40001
1.40001
1.40001
1.40001
1.40001
1.40001
1.40001
1.40001
1.40001
1.40001
1.40001
1.40001
1.40001
1.40001
1.40001
1.40001
1.40001
1.40001
1.40001
1.40001
1.40001
1.40001
1.40001
1.40001
1.40001
1.40001
1.40001
1.40001
1.40001
1.40001
1.40001
1.40001
1.40001
1.40001
1.40001
1.40001
1.40001
1.40001
1.40001
1.40001
1.40001
1.40001
1.40001
1.40001
1.40001
1.40001
1.40001
1.40001
1.40001
1.40001
1.40001
1.40001
1.40001
1.40001
1.40001
1.40001
1.40001
1.40001
1.40001
1.40001
1.40001
1.40001
1.40001
1.40001
1.40001
1.40001
1.40001
1.40001
1.40001
1.40001
1.40001
1.40001
1.40001
1.40001
1.40001
1.40001
1.40001
1.40001
1.40001
1.40001
1.40001
1.40001
1.40001
1.40001
1.40001
1.40001
1.40001
1.40001
1.40001
1.40001
1.40001
1.40001
1.40001
1.40001
1.40001
1.40001
1.40001
1.40001
1.40001
1.40001
1.40001
1.40001
1.40001
1.40001
1.40001
1.40001
1.40001
1.40001
1.40001
1.40001
1.40001
1.40001
1.40001
1.40001
1.40001
1.40001
1.40001
1.40001
1.40001
1.40001
1.40001
1.40001
1.40001
1.40001
1.40001
1.40001
1.40001
1.40001
1.40001
1.40001
1.40001
1.40001
1.40001
1.40001
1.40001
1.40001
1.40001
1.40001
1.40001
1.40001
1.40001
1.40001
1.40001
1.40001
1.40001
1.40001
1.40001
1.40001
1.40001
1.40001
1.40001
1.40001
1.40001
1.40001
1.40001
1.40001
1.40001
1.40001
1.40001
1.40001
1.40001
1.40001
1.40001
1.40001
1.40001
1.40001
1.40001
1.40001
1.40001
1.40001
1.40001
1.40001
1.40001
1.40001
1.40001
1.40001
1.40001
1.40001
1.40001
1.40001
1.40001
1.40001
1.40001
1.40001
1.40001
1.40001
1.40001
1.40001
1.40001
1.40001
1.40001
1.40001
1.40001
1.40001
1.40001
1.40001
1.40001
1.40001
1.40001
1.40001
1.40001
1.40001
1.40001
1.40001
1.40001
1.40001
1.40001
1.40001
1.40001
1.40001
1.40001
1.40001
1.40001
1.40001
1.40001
1.40001
1.40001
1.40001
1.40001
1.40001
1.40001
1.40001
1.40001
1.40001
1.40001
1.40001
1.40001
1.40001
1.40001
1.40001
1.40001
1.40001
1.40001
1.40001
1.40001
1.40001
1.40001
1.40001
1.40001
1.40001
1.40001
1.40001
1.40001
1.40001
1.40001
1.40001
1.40001
1.40001
1.40001
1.40001
1.40001
1.40001
1.40001
1.40001
1.40001
1.40001
1.40001
1.40001
1.40001
1.40001
1.40001
1.40001
1.40001
1.40001
1.40001
1.40001
1.40001
1.40001
1.40001
1.40001
1.39996
1.40001
1.40001
1.40001
1.40001
1.40001
1.40001
1.40001
1.40001
1.40001
1.40001
1.40001
1.40001
1.40001
1.40001
1.39738
1.39981
1.4
1.40001
1.40001
1.40001
1.40001
1.40001
1.40001
1.40001
1.40001
1.40001
1.40001
1.40001
1.40001
1.54276
1.40082
1.4
1.4
1.40001
1.40001
1.40001
1.40001
1.40001
1.40001
1.40001
1.40001
1.40001
1.40001
1.40001
2.88536
1.5028
1.40068
1.4
1.4
1.40001
1.40001
1.40001
1.40001
1.40001
1.40001
1.40001
1.40001
1.40001
1.40001
4.60988
2.35411
1.46685
1.40077
1.40001
1.40001
1.40001
1.40001
1.40001
1.40001
1.40001
1.40001
1.40001
1.40001
1.40001
4.51721
3.5596
1.90709
1.42648
1.40025
1.40001
1.40001
1.40001
1.40001
1.40001
1.40001
1.40001
1.40001
1.40001
1.40001
4.07411
3.99895
2.76692
1.61253
1.40729
1.40008
1.40001
1.40001
1.40001
1.40001
1.40001
1.40001
1.40001
1.40001
1.40001
3.26556
3.92221
3.52467
2.15245
1.46694
1.40112
1.40001
1.4
1.40001
1.40001
1.40001
1.40001
1.40001
1.40001
1.40001
2.25785
3.43527
3.60121
2.90787
1.82983
1.45123
1.40262
1.40007
1.40001
1.40001
1.40001
1.40001
1.40001
1.40001
1.40001
1.77218
2.81535
3.48205
3.29465
2.3503
1.55047
1.4062
1.40013
1.40001
1.40001
1.40001
1.40001
1.40001
1.40001
1.40001
1.37943
2.08203
3.02153
3.27084
2.98792
2.00518
1.46197
1.40157
1.40002
1.40001
1.40001
1.40001
1.40001
1.40001
1.40001
1.10929
1.68769
2.3946
3.11876
3.09848
2.57781
1.68674
1.41477
1.40022
1.40001
1.40001
1.40001
1.40001
1.40001
1.40001
0.899779
1.3559
1.88644
2.68066
3.06152
2.95411
2.16484
1.51095
1.40347
1.40004
1.40001
1.40001
1.40001
1.40001
1.40001
0.839863
1.11116
1.55277
2.16444
2.87097
2.95222
2.61762
1.78262
1.42769
1.40054
1.40001
1.40001
1.40001
1.40001
1.40001
0.848365
1.02064
1.34089
1.82006
2.47751
2.89306
2.8183
2.19948
1.54262
1.40516
1.40006
1.40001
1.40001
1.40001
1.40001
0.829588
0.953798
1.12076
1.52051
2.07603
2.69541
2.79786
2.5545
1.81231
1.437
1.40078
1.40001
1.40001
1.40001
1.40001
0.808968
0.91043
0.968884
1.29481
1.72446
2.31834
2.71091
2.65147
2.14625
1.54356
1.40563
1.40007
1.40001
1.40001
1.40001
0.776209
0.873005
0.940471
1.16766
1.47499
1.93617
2.49984
2.61421
2.41912
1.76447
1.43289
1.40064
1.40001
1.40001
1.40001
0.704657
0.815245
0.900434
1.03295
1.28216
1.69226
2.20109
2.51239
2.45115
2.02029
1.50765
1.40389
1.40005
1.40001
1.40001
0.609935
0.747296
0.856493
0.921019
1.07737
1.46232
1.87884
2.34311
2.39967
2.1992
1.65837
1.41851
1.40029
1.40001
1.40001
0.565037
0.691699
0.826803
0.897246
0.975893
1.24398
1.5738
2.10524
2.30462
2.21682
1.81383
1.45534
1.40145
1.40002
1.40001
0.502317
0.624281
0.772023
0.866154
0.914481
1.09579
1.40362
1.84404
2.17219
2.17201
1.92227
1.51997
1.40535
1.40006
1.40001
0.501941
0.556863
0.682439
0.792109
0.840532
0.965348
1.26995
1.63673
2.02389
2.08802
1.94412
1.5831
1.41352
1.4002
1.40001
0.536229
0.548241
0.635891
0.723842
0.784275
0.894566
1.12674
1.4669
1.87215
1.99092
1.91731
1.62656
1.42423
1.40049
1.40001
0.661573
0.553353
0.60787
0.689293
0.788009
0.89281
1.03963
1.32531
1.72374
1.88944
1.85835
1.62409
1.43002
1.40077
1.40001
0.844008
0.587288
0.598555
0.694839
0.809871
0.902233
1.03346
1.29885
1.62283
1.79331
1.77875
1.60122
1.42911
1.4008
1.40001
1.01281
0.66285
0.632668
0.71507
0.851828
0.930116
1.04415
1.30824
1.58171
1.71188
1.6942
1.55475
1.42308
1.40067
1.40001
1.17324
0.82463
0.723539
0.75195
0.897074
0.985602
1.0797
1.33833
1.57346
1.64882
1.61718
1.49888
1.413
1.40037
1.40001
1.21393
1.06945
0.956357
0.933913
1.00567
1.10572
1.19753
1.4016
1.54326
1.54869
1.50601
1.43381
1.40318
1.40008
1.40001
1.22796
1.05383
0.861873
0.788781
0.790561
0.760236
0.71947
0.695294
0.662753
0.583224
0.549061
0.495688
0.487324
0.538791
0.733977
0.942304
1.09656
1.21599
1.28081
1.26128
0.957244
0.834234
0.728561
0.704786
0.703471
0.671244
0.652743
0.632676
0.5822
0.537252
0.517329
0.484498
0.530734
0.757719
0.971637
1.06438
1.13329
1.23594
1.28725
1.26719
0.735414
0.668675
0.637076
0.64179
0.621251
0.595066
0.585542
0.563777
0.522531
0.499904
0.484564
0.516867
0.748911
0.979133
1.07739
1.09529
1.13228
1.2164
1.27284
1.26237
0.561481
0.548629
0.549264
0.566209
0.547099
0.530569
0.528513
0.514006
0.478288
0.465318
0.505344
0.736307
1.02392
1.08729
1.08799