/*--------------------------------*- C++ -*----------------------------------*\
  =========                 |
  \\      /  F ield         | OpenFOAM: The Open Source CFD Toolbox
   \\    /   O peration     | Website:  https://openfoam.org
    \\  /    A nd           | Version:  7
     \\/     M anipulation  |
\*---------------------------------------------------------------------------*/
FoamFile
{
    version     2.0;
    format      ascii;
    class       volScalarField;
    location    "2";
    object      T;
}
// * * * * * * * * * * * * * * * * * * * * * * * * * * * * * * * * * * * * * //

dimensions      [0 0 0 1 0 0 0];

internalField   nonuniform List<scalar> 
3700
(
100.479
100.7
100.748
100.801
100.819
100.883
101.038
101.154
101.163
101.147
101.137
101.125
101.11
101.084
101.082
101.098
101.103
101.098
101.083
101.054
100.167
100.192
100.281
100.366
100.326
100.362
100.555
100.677
100.652
100.569
100.58
100.588
100.534
100.417
100.412
100.46
100.53
100.526
100.493
100.43
100.17
100.136
100.11
100.078
100.039
99.9948
99.9273
99.9019
99.8946
99.8939
99.9073
99.93
99.96
99.9972
100.024
100.037
100.042
100.042
100.037
100.025
100.238
100.152
100.098
100.056
100.03
100.022
100.013
100.019
100.01
100.006
99.9591
99.9463
99.9515
99.9917
100.029
100.051
100.07
100.087
100.095
100.095
100.32
100.167
100.077
100.021
100.006
100.02
100.035
100.075
100.094
100.098
100.086
100.073
100.038
100.021
100.022
100.043
100.071
100.102
100.123
100.151
100.359
100.156
99.9816
99.9401
99.9393
99.9697
100.018
100.075
100.109
100.124
100.144
100.144
100.141
100.132
100.112
100.098
100.092
100.102
100.134
100.191
100.355
100.083
99.9048
99.8995
99.914
99.9534
99.9978
100.047
100.084
100.12
100.155
100.169
100.191
100.193
100.197
100.197
100.194
100.192
100.193
100.231
100.273
100.002
99.8566
99.8853
99.9068
99.9598
100.008
100.046
100.074
100.104
100.142
100.167
100.206
100.225
100.242
100.26
100.268
100.275
100.281
100.317
100.13
99.9249
99.813
99.8673
99.9375
100.041
100.09
100.126
100.137
100.155
100.161
100.177
100.207
100.239
100.268
100.296
100.32
100.338
100.35
100.391
100.008
99.8443
99.7689
99.8193
99.9479
100.075
100.149
100.196
100.226
100.264
100.277
100.294
100.306
100.314
100.32
100.335
100.364
100.393
100.419
100.454
99.9175
99.78
99.734
99.7989
99.9577
100.083
100.168
100.218
100.271
100.328
100.351
100.372
100.392
100.401
100.41
100.419
100.435
100.453
100.497
100.494
99.8408
99.7269
99.7032
99.8137
100.046
100.179
100.208
100.227
100.292
100.362
100.396
100.423
100.45
100.463
100.482
100.499
100.519
100.538
100.573
100.565
99.7766
99.6684
99.6741
99.8538
100.182
100.302
100.32
100.369
100.42
100.44
100.463
100.481
100.501
100.518
100.545
100.574
100.601
100.624
100.655
100.653
99.7382
99.6195
99.651
100.024
100.292
100.396
100.432
100.487
100.529
100.558
100.569
100.579
100.589
100.603
100.627
100.655
100.684
100.711
100.726
100.734
99.7054
99.5843
99.7549
100.197
100.371
100.456
100.512
100.561
100.607
100.638
100.649
100.662
100.678
100.701
100.729
100.754
100.772
100.783
100.779
100.773
99.4715
99.5988
100.018
100.324
100.463
100.534
100.594
100.645
100.688
100.709
100.725
100.743
100.765
100.792
100.813
100.823
100.822
100.815
100.789
100.746
99.2711
99.6987
100.227
100.442
100.587
100.686
100.733
100.77
100.797
100.81
100.82
100.834
100.85
100.855
100.854
100.843
100.79
100.675
100.514
100.278
99.5336
100.143
100.491
100.663
100.761
100.807
100.838
100.864
100.877
100.884
100.884
100.883
100.881
100.857
100.77
100.621
100.357
100.1
100.005
99.9978
100.12
100.524
100.729
100.831
100.884
100.905
100.919
100.922
100.918
100.909
100.896
100.843
100.727
100.468
100.146
100.01
99.9967
99.9985
99.9992
99.9998
100.694
100.834
100.912
100.948
100.959
100.953
100.952
100.928
100.847
100.768
100.581
100.237
100.031
99.9958
99.9978
99.9989
99.9998
100
100
100
100.996
100.994
100.991
100.988
100.979
100.952
100.881
100.438
99.859
100
100
100
100
100
100
100
100
100
100
100
100.996
100.993
100.987
100.976
100.962
100.856
100.491
100.014
100
100
100
100
100
100
100
100
100
100
100
100
100.99
100.992
100.986
100.965
100.927
100.643
100.042
99.9992
100
100
100
100
100
100
100
100
100
100
100
100
100.986
100.992
100.987
100.946
100.795
100.253
99.9963
100
100
100
100
100
100
100
100
100
100
100
100
100
100.981
100.992
100.985
100.918
100.553
99.9922
100
100
100
100
100
100
100
100
100
100
100
100
100
100
100.977
100.988
100.98
100.823
100.214
100
100
100
100
100
100
100
100
100
100
100
100
100
100
100
100.976
100.982
100.965
100.698
100.002
100
100
100
100
100
100
100
100
100
100
100
100
100
100
100
100.984
100.98
100.925
100.477
99.9999
100
100
100
100
100
100
100
100
100
100
100
100
100
100
100
101.001
100.973
100.826
100.142
100
100
100
100
100
100
100
100
100
100
100
100
100
100
100
100
101.013
100.942
100.689
99.9963
100
100
100
100
100
100
100
100
100
100
100
100
100
100
100
100
101.022
100.907
100.502
100
100
100
100
100
100
100
100
100
100
100
100
100
100
100
100
100
101.027
100.848
100.309
100
100
100
100
100
100
100
100
100
100
100
100
100
100
100
100
100
101.031
100.79
100.098
100
100
100
100
100
100
100
100
100
100
100
100
100
100
100
100
100
101.029
100.728
100
100
100
100
100
100
100
100
100
100
100
100
100
100
100
100
100
100
101.018
100.672
100
100
100
100
100
100
100
100
100
100
100
100
100
100
100
100
100
100
100.997
100.589
100
100
100
100
100
100
100
100
100
100
100
100
100
100
100
100
100
100
100.961
100.442
100
100
100
100
100
100
100
100
100
100
100
100
100
100
100
100
100
100
100.907
100.249
100
100
100
100
100
100
100
100
100
100
100
100
100
100
100
100
100
100
100.854
100.006
100
100
100
100
100
100
100
100
100
100
100
100
100
100
100
100
100
100
100.792
100
100
100
100
100
100
100
100
100
100
100
100
100
100
100
100
100
100
100
100.792
100
100
100
100
100
100
100
100
100
100
100
100
100
100
100
100
100
100
100
100.854
100.006
100
100
100
100
100
100
100
100
100
100
100
100
100
100
100
100
100
100
100.907
100.249
100
100
100
100
100
100
100
100
100
100
100
100
100
100
100
100
100
100
100.961
100.442
100
100
100
100
100
100
100
100
100
100
100
100
100
100
100
100
100
100
100.997
100.589
100
100
100
100
100
100
100
100
100
100
100
100
100
100
100
100
100
100
101.018
100.672
100
100
100
100
100
100
100
100
100
100
100
100
100
100
100
100
100
100
101.029
100.728
100
100
100
100
100
100
100
100
100
100
100
100
100
100
100
100
100
100
101.031
100.79
100.098
100
100
100
100
100
100
100
100
100
100
100
100
100
100
100
100
100
101.027
100.848
100.309
100
100
100
100
100
100
100
100
100
100
100
100
100
100
100
100
100
101.022
100.907
100.502
100
100
100
100
100
100
100
100
100
100
100
100
100
100
100
100
100
101.013
100.942
100.689
99.9963
100
100
100
100
100
100
100
100
100
100
100
100
100
100
100
100
101.001
100.973
100.826
100.142
100
100
100
100
100
100
100
100
100
100
100
100
100
100
100
100
100.984
100.98
100.925
100.477
100
100
100
100
100
100
100
100
100
100
100
100
100
100
100
100
100.976
100.982
100.965
100.698
100.002
100
100
100
100
100
100
100
100
100
100
100
100
100
100
100
100.977
100.988
100.98
100.823
100.214
100
100
100
100
100
100
100
100
100
100
100
100
100
100
100
100.981
100.992
100.985
100.918
100.553
99.9922
100
100
100
100
100
100
100
100
100
100
100
100
100
100
100.986
100.992
100.987
100.946
100.795
100.253
99.9963
100
100
100
100
100
100
100
100
100
100
100
100
100
100.99
100.992
100.986
100.965
100.927
100.643
100.042
99.9992
100
100
100
100
100
100
100
100
100
100
100
100
100.996
100.993
100.987
100.976
100.962
100.856
100.491
100.014
100
100
100
100
100
100
100
100
100
100
100
100
100.996
100.994
100.991
100.988
100.979
100.952
100.882
100.438
99.8587
100
100
100
100
100
100
100
100
100
100
100
100.695
100.834
100.912
100.949
100.959
100.953
100.952
100.928
100.847
100.768
100.581
100.237
100.031
99.9958
99.9978
99.9989
99.9998
100
100
100
100.124
100.523
100.728
100.831
100.885
100.905
100.919
100.922
100.918
100.909
100.896
100.843
100.727
100.469
100.146
100.01
99.9967
99.9985
99.9992
99.9998
99.5607
100.151
100.491
100.664
100.762
100.808
100.838
100.864
100.877
100.884
100.884
100.883
100.881
100.857
100.77
100.621
100.357
100.1
100.005
99.9978
99.2738
99.7681
100.218
100.434
100.586
100.686
100.733
100.77
100.797
100.81
100.82
100.834
100.85
100.855
100.854
100.843
100.79
100.675
100.514
100.278
99.4355
99.5773
100.001
100.313
100.462
100.535
100.595
100.646
100.688
100.71
100.725
100.743
100.765
100.792
100.813
100.823
100.822
100.815
100.789
100.746
99.7449
99.5785
99.7444
100.187
100.37
100.459
100.514
100.562
100.607
100.638
100.649
100.662
100.678
100.701
100.729
100.754
100.772
100.783
100.779
100.773
99.8414
99.618
99.639
100.015
100.293
100.399
100.433
100.486
100.528
100.558
100.569
100.579
100.589
100.603
100.627
100.655
100.684
100.711
100.726
100.734
99.8811
99.6892
99.6565
99.8587
100.181
100.306
100.321
100.369
100.419
100.44
100.462
100.48
100.501
100.518
100.545
100.574
100.601
100.625
100.655
100.653
99.9195
99.7638
99.7133
99.8293
100.048
100.184
100.211
100.229
100.292
100.361
100.395
100.423
100.45
100.463
100.482
100.499
100.519
100.538
100.573
100.565
99.9662
99.8138
99.7567
99.8139
99.9618
100.088
100.17
100.219
100.27
100.328
100.35
100.371
100.392
100.401
100.41
100.419
100.434
100.453
100.497
100.494
100.033
99.8675
99.7902
99.8343
99.951
100.076
100.149
100.195
100.225
100.263
100.276
100.293
100.306
100.314
100.319
100.335
100.364
100.393
100.419
100.454
100.141
99.9375
99.8281
99.8815
99.9383
100.038
100.089
100.123
100.135
100.154
100.16
100.177
100.208
100.24
100.268
100.296
100.321
100.339
100.35
100.391
100.272
100.006
99.863
99.8898
99.9054
99.9561
100.007
100.044
100.073
100.105
100.143
100.168
100.206
100.225
100.242
100.26
100.268
100.275
100.281
100.317
100.341
100.076
99.9031
99.9008
99.9135
99.951
99.9976
100.047
100.085
100.121
100.156
100.169
100.191
100.193
100.196
100.197
100.194
100.191
100.193
100.231
100.344
100.143
99.9706
99.9372
99.9401
99.9681
100.02
100.077
100.11
100.124
100.144
100.143
100.141
100.131
100.111
100.097
100.092
100.102
100.135
100.191
100.306
100.162
100.069
100.018
100.008
100.02
100.037
100.077
100.093
100.097
100.084
100.071
100.036
100.02
100.023
100.044
100.072
100.102
100.124
100.151
100.229
100.148
100.098
100.057
100.031
100.022
100.014
100.019
100.007
100.002
99.9558
99.9453
99.9522
99.9935
100.03
100.052
100.07
100.088
100.095
100.096
100.167
100.13
100.108
100.078
100.038
99.9931
99.9267
99.9008
99.8928
99.892
99.9067
99.9299
99.9617
99.9994
100.025
100.037
100.042
100.042
100.038
100.025
100.158
100.176
100.215
100.256
100.38
100.479
100.511
100.579
100.664
100.656
100.572
100.437
100.449
100.526
100.536
100.496
100.466
100.485
100.512
100.48
100.498
100.715
100.704
100.727
100.829
100.941
101.038
101.133
101.163
101.155
101.133
101.092
101.088
101.116
101.121
101.105
101.095
101.09
101.081
101.067
101.036
101.024
101.01
100.994
100.967
100.934
100.909
100.886
100.857
100.827
100.815
100.812
100.803
100.757
100.618
100.392
100.185
100.067
100.015
99.9856
100.555
100.632
100.69
100.744
100.782
100.792
100.789
100.779
100.763
100.75
100.751
100.767
100.771
100.739
100.621
100.425
100.225
100.093
100.018
99.9825
100.026
100.053
100.157
100.299
100.444
100.525
100.554
100.58
100.588
100.599
100.614
100.655
100.696
100.685
100.612
100.472
100.305
100.15
100.042
99.9861
100.078
100.09
100.101
100.097
100.127
100.218
100.321
100.406
100.436
100.458
100.493
100.545
100.602
100.607
100.577
100.492
100.359
100.206
100.071
99.9893
100.134
100.134
100.133
100.142
100.125
100.126
100.139
100.203
100.279
100.347
100.415
100.466
100.525
100.533
100.521
100.473
100.371
100.232
100.092
99.993
100.192
100.176
100.183
100.187
100.172
100.167
100.168
100.16
100.155
100.189
100.3
100.398
100.467
100.473
100.467
100.435
100.36
100.238
100.104
99.9969
100.242
100.223
100.217
100.223
100.213
100.207
100.205
100.194
100.168
100.149
100.168
100.282
100.401
100.425
100.419
100.393
100.332
100.23
100.11
100
100.306
100.271
100.255
100.258
100.249
100.238
100.232
100.217
100.189
100.167
100.147
100.16
100.274
100.367
100.374
100.353
100.3
100.214
100.111
100.003
100.372
100.333
100.295
100.285
100.282
100.266
100.256
100.243
100.215
100.185
100.163
100.132
100.15
100.258
100.321
100.309
100.27
100.2
100.111
100.006
100.439
100.401
100.345
100.316
100.309
100.293
100.274
100.26
100.243
100.204
100.177
100.139
100.113
100.133
100.215
100.25
100.232
100.178
100.103
100.006
100.536
100.465
100.403
100.342
100.314
100.31
100.298
100.285
100.27
100.242
100.197
100.164
100.122
100.099
100.092
100.123
100.121
100.094
100.057
99.9961
100.617
100.543
100.488
100.434
100.378
100.343
100.316
100.297
100.28
100.258
100.23
100.199
100.16
100.113
100.076
100.035
99.9696
99.9291
99.9389
99.953
100.608
100.587
100.538
100.481
100.432
100.391
100.338
100.293
100.276
100.259
100.239
100.218
100.184
100.133
100.086
100.031
99.9497
99.8934
99.8874
99.9141
100.488
100.547
100.541
100.516
100.469
100.425
100.381
100.338
100.303
100.263
100.227
100.204
100.178
100.137
100.088
100.031
99.9623
99.8994
99.8803
99.9053
100.25
100.377
100.446
100.483
100.474
100.447
100.408
100.362
100.319
100.283
100.233
100.192
100.156
100.114
100.071
100.026
99.9736
99.9289
99.9107
99.9191
100.043
100.145
100.253
100.337
100.39
100.414
100.405
100.376
100.334
100.299
100.258
100.207
100.158
100.106
100.061
100.02
99.9698
99.9305
99.9276
99.9386
100.002
100.015
100.065
100.155
100.235
100.29
100.332
100.342
100.331
100.304
100.264
100.212
100.169
100.124
100.073
100.024
99.975
99.9465
99.9451
99.9593
100
100
100.003
100.025
100.079
100.15
100.209
100.246
100.272
100.27
100.257
100.23
100.189
100.144
100.097
100.052
100.016
99.9971
99.997
100.003
100
100
100
100.001
100.006
100.031
100.081
100.136
100.177
100.204
100.205
100.2
100.183
100.157
100.126
100.092
100.062
100.044
100.038
100.029
100
100
100
100
100
100.001
100.008
100.031
100.071
100.114
100.141
100.15
100.146
100.135
100.118
100.097
100.077
100.061
100.048
100.03
100
100
100
100
100
100
100
100.001
100.007
100.023
100.053
100.08
100.095
100.097
100.093
100.084
100.071
100.056
100.042
100.022
100
100
100
100
100
100
100
100
100
100.001
100.004
100.012
100.026
100.037
100.044
100.044
100.04
100.031
100.02
100.007
100
100
100
100
100
100
100
100
100
100
100
100
100.001
100.003
100.005
100.006
100.006
100.005
100.003
100.001
100
100
100
100
100
100
100
100
100
100
100
100
100
100
100
100
100
100
100
100
100
100
100
100
100
100
100
100
100
100
100
100
100
100
100
100
100
100
100
100
100.597
100.654
100.61
100.415
100.141
100.017
100.001
100
100
100
100
100
100
100
100
100.671
100.663
100.518
100.217
100.022
100
100
100
100
100
100
100
100
100
100
100.704
100.636
100.374
100.074
100.002
100
100
100
100
100
100
100
100
100
100
100.719
100.519
100.168
100.009
100
100
100
100
100
100
100
100
100
100
100
100.651
100.286
100.025
100
100
100
100
100
100
100
100
100
100
100
100
100.395
100.038
100
100
100
100
100
100
100
100
100
100
100
100
100
100.043
100
100
100
100
100
100
100
100
100
100
100
100
100
100
99.9995
100
100
100
100
100
100
100
100
100
100
100
100
100
100
100
100
100
100
100
100
100
100
100
100
100
100
100
100
100
100
100
100
100
100
100
100
100
100
100
100
100
100
100
100
100
100
100
100
100
100
100
100
100
100
100
100
100
100
100
100
100
100
100
100
100
100
100
100
100
100
100
100
100
100
100
100
100
100
100
100
100
100
100
100
100
100
100
100
100
100
100
100
100
100
100
100
100
100
100
100
100
100
100
100
100
100
100
100
100
100
100
100
100
100
100
100
100
100
100
100
100
100
100
100
100
100
100
100
100
100
100
100
100
100
100
100
100
100
100
100
100
100
100
100
100
100
100
100
100
100
100
100
100
100
100
100
100
100
100
100
100
100
100
100
100
100
100
100
100
100
100
100
100
100
100
100
100
100
100
100
100
100
100
100
100
100
100
100
100
100
100
100
100
100
100
100
100
100
100
100
100
100
100
100
100
100
100
100
100
100
100
100
100
100
100
100
100
100
100
100
100
100
100
100
100
100
100
100
100
100
100
100
100
100
100
100
100
100
100
100
100
100
100
100
100
100
100
100
100
100
100
100
100
100
100
100
100
100
100
100
100
100
100
100
100
100
100
100
100
100
100
100
100
100
100
100
100
100
100
100
100
100
100
100
100
100
100
100
100
100
100
100
100
100
100
100
100
100
100
100
100
100
100
100
100
100
100
100
100
100
100
100
100
100
100
100
100
100
100
100
100
100
100
100
100
100
100
100
100
100
100
100
100
100
100
100
100
100
100
100
100
100
100
100
100
100
100
100
100
100
100
100
100
100
100
100
100
100
100
100
100
100
100
100
100
100
100
100
100
100
100
100
100
100
100
100
100
100
100
100
100
100
100
100
100
100
100
100
100
100
100
100
100
100
100
100
100
100
100
100
100
100
100
100
100
100
100
100
100
100
100
100
100
100
100
100
100
100
100
100
100
100
100
100
100
100
100
100
100
100
100
100
100
100
100
100
100
100
100
100
100
100
100
100
100
100
100
100
100
100
100
100
100
100
100
100
100
100
100
100
100
100
100
100
100
100
100
100
100
100
100
100
100
100
100
100
100
100
100
100
100
100
100
100
100
100
100
100
100
100
100
100
100
100
100
100
100
100
100
100
100
100
100
100
100
100
100
100
100
100
100
100
100
100
100
100
100
100
100
100
100
100
100
100
100
100
100
100
100
100
100
100
100
100
100
100
100
100
100
100
100
100
100
100
100
100
100
100
100
100
100
100
100
100
100
100
100
100
100
100
100
100
100
100
100
100
100
100
100
100
100
100
100
100
100
100
100
100
100
100
100
100
100
100
100
100
100
100
100
100
100
100
100
100
100
100
100
100
100
100
100
100
100
100
100
100
100
100
100
100
100
100
100
100
100
100
100
100
100
100
100
100
100
100
100
100
100
100
100
100
100
100
100
100
100
100
100
100
100
100
100
100
100
100
100
100
100
100
100
100
100
100
100
100
100
100
100
100
100
100
100
100
100
100
100
100
100
100
100
100
100
100
100
100
100
100
100
100
100
100
100
100
100
100
100
100
100
100
100
100
100
100
100
100
100
100
100
100
100
100
100
100
100
100
100
100
100
100
100
100
100
100
100
100
100
100
100
100
100
100
100
100
100
100
100
100
100
100
100
100
100
100
100
100
100
100
100
100
100
100
100
100
100
100
100
100
100
100
100
100
100
100
100
100
100
100
100
100
100
100
100
100
100
100
100
100
100
100
100
100
100
100
100
100
100
100
100
100
100
100
100
100
100
100
100
100
100
100
100
100
100
100
100
100
100
100
100
100
100
100
100
100
100
100
100
100
100
100
100
100
100
100
100
100
100
100
100
100
100
100
100
100
100
100
100
100
100
100
100
100
100
100
100
100
100
100
100
100
100
100
100
100
100
100
100
100
100
100
100
100
100
100
100
100
100
100
100
100
100
100
100
100
100
100
100
100
100
100
100
100
100
100
100
100
99.9995
100
100
100
100
100
100
100
100
100
100
100
100
100
100
100.043
100
100
100
100
100
100
100
100
100
100
100
100
100
100
100.395
100.038
100
100
100
100
100
100
100
100
100
100
100
100
100
100.651
100.286
100.025
100
100
100
100
100
100
100
100
100
100
100
100
100.719
100.519
100.168
100.009
100
100
100
100
100
100
100
100
100
100
100
100.704
100.636
100.374
100.074
100.002
100
100
100
100
100
100
100
100
100
100
100.671
100.663
100.518
100.217
100.022
100
100
100
100
100
100
100
100
100
100
100.597
100.654
100.61
100.415
100.141
100.017
100.001
100
100
100
100
100
100
100
100
100.536
100.617
100.608
100.488
100.25
100.043
100.002
100
100
100
100
100
100
100
100
100.465
100.543
100.587
100.547
100.377
100.145
100.015
100
100
100
100
100
100
100
100
100.403
100.488
100.538
100.542
100.446
100.253
100.065
100.003
100
100
100
100
100
100
100
100.342
100.434
100.481
100.516
100.483
100.337
100.155
100.025
100.001
100
100
100
100
100
100
100.313
100.377
100.431
100.469
100.474
100.39
100.235
100.079
100.006
100
100
100
100
100
100
100.31
100.343
100.391
100.425
100.447
100.414
100.29
100.15
100.031
100.001
100
100
100
100
100
100.298
100.316
100.339
100.381
100.408
100.405
100.331
100.209
100.081
100.008
100
100
100
100
100
100.285
100.297
100.293
100.338
100.362
100.376
100.342
100.246
100.136
100.031
100.001
100
100
100
100
100.27
100.28
100.276
100.303
100.319
100.334
100.331
100.272
100.177
100.071
100.007
100
100
100
100
100.243
100.258
100.258
100.263
100.283
100.299
100.304
100.27
100.204
100.114
100.023
100.001
100
100
100
100.198
100.229
100.238
100.226
100.233
100.258
100.264
100.257
100.205
100.141
100.053
100.004
100
100
100
100.164
100.199
100.218
100.204
100.192
100.207
100.212
100.23
100.2
100.15
100.08
100.012
100
100
100
100.121
100.161
100.184
100.178
100.155
100.159
100.169
100.189
100.183
100.146
100.095
100.026
100.001
100
100
100.099
100.114
100.134
100.137
100.113
100.106
100.124
100.144
100.157
100.135
100.097
100.037
100.003
100
100
100.092
100.077
100.087
100.089
100.07
100.06
100.073
100.097
100.126
100.118
100.093
100.044
100.005
100
100
100.12
100.035
100.032
100.032
100.026
100.019
100.024
100.052
100.092
100.097
100.084
100.044
100.006
100
100
100.119
99.9684
99.9492
99.9641
99.9737
99.969
99.9753
100.016
100.062
100.077
100.071
100.04
100.006
100
100
100.092
99.9276
99.894
99.9023
99.9293
99.9299
99.9466
99.997
100.044
100.061
100.056
100.031
100.005
100
100
100.055
99.9376
99.8881
99.8816
99.9116
99.9275
99.945
99.9969
100.038
100.048
100.042
100.02
100.003
100
100
99.9939
99.9519
99.914
99.9059
99.92
99.9388
99.9591
100.003
100.029
100.03
100.022
100.007
100.001
100
100
100.439
100.401
100.345
100.316
100.309
100.292
100.274
100.259
100.243
100.205
100.177
100.139
100.112
100.132
100.213
100.247
100.23
100.178
100.104
100.007
100.372
100.332
100.296
100.285
100.282
100.266
100.255
100.242
100.215
100.185
100.164
100.132
100.148
100.255
100.318
100.307
100.269
100.2
100.112
100.006
100.306
100.271
100.256
100.258
100.249
100.238
100.232
100.217
100.189
100.167
100.147
100.159
100.27
100.365
100.374
100.354
100.302
100.216
100.112
100.004
100.242
100.223
100.217
100.223
100.213
100.207
100.205
100.194
100.168
100.15
100.168
100.279
100.397
100.426
100.42
100.397
100.336
100.233
100.111
100.001
100.192
100.176
100.183
100.187
100.172
100.167
100.168
100.16
100.155
100.191
100.298
100.395
100.466
100.474
100.469
100.439
100.365
100.243
100.106
99.9976
100.133
100.134
100.132
100.141
100.125
100.126
100.138
100.202
100.278
100.347
100.415
100.466
100.525
100.534
100.522
100.473
100.372
100.233
100.093
99.9932
100.078
100.09
100.101
100.097
100.128
100.217
100.319
100.403
100.435
100.458
100.494
100.546
100.602
100.607
100.576
100.489
100.357
100.204
100.07
99.9891
100.026
100.051
100.157
100.301
100.445
100.522
100.552
100.578
100.588
100.6
100.617
100.657
100.697
100.685
100.61
100.469
100.302
100.15
100.041
99.9855
100.558
100.628
100.69
100.746
100.782
100.79
100.787
100.78
100.768
100.756
100.756
100.769
100.773
100.738
100.617
100.42
100.224
100.09
100.017
99.982
101.039
101.022
101.009
100.994
100.967
100.934
100.911
100.891
100.866
100.839
100.823
100.816
100.804
100.756
100.616
100.39
100.185
100.067
100.015
99.9853
)
;

boundaryField
{
    inlet
    {
        type            fixedValue;
        value           uniform 100;
    }
    outlet
    {
        type            inletOutlet;
        inletValue      uniform 100;
        value           nonuniform List<scalar> 
50
(
99.9957
99.9528
99.9141
99.9054
99.9191
99.9388
99.9596
100.003
100.029
100.03
100.022
100.007
100.001
100
100
99.9855
99.9824
99.986
99.989
99.9926
99.9966
100
100.002
100.005
100.006
100.006
100.006
100.003
100.001
99.9972
99.9928
99.9888
99.9854
99.9819
99.9852
99.9936
99.9518
99.9141
99.906
99.92
99.9389
99.9594
100.003
100.029
100.03
100.022
100.007
100.001
100
100
)
;
    }
    airfoil
    {
        type            zeroGradient;
    }
    top
    {
        type            symmetryPlane;
    }
    bottom
    {
        type            symmetryPlane;
    }
    defaultFaces
    {
        type            empty;
    }
}


// ************************************************************************* //
