/*--------------------------------*- C++ -*----------------------------------*\
  =========                 |
  \\      /  F ield         | OpenFOAM: The Open Source CFD Toolbox
   \\    /   O peration     | Website:  https://openfoam.org
    \\  /    A nd           | Version:  7
     \\/     M anipulation  |
\*---------------------------------------------------------------------------*/
FoamFile
{
    version     2.0;
    format      ascii;
    class       volVectorField;
    location    "2";
    object      U;
}
// * * * * * * * * * * * * * * * * * * * * * * * * * * * * * * * * * * * * * //

dimensions      [0 1 -1 0 0 0 0];

internalField   nonuniform List<vector> 
3700
(
(1.45238 -0.583342 0)
(1.24998 -0.632307 0)
(1.19141 -0.346435 0)
(1.25881 -0.295545 0)
(1.42533 -0.39361 0)
(1.49902 -0.341856 0)
(1.50786 -0.20409 0)
(1.57091 -0.0947344 0)
(1.59764 -0.138117 0)
(1.58984 -0.192055 0)
(1.54536 -0.208886 0)
(1.54136 -0.157273 0)
(1.59917 -0.175727 0)
(1.66676 -0.272906 0)
(1.71799 -0.308518 0)
(1.711 -0.262445 0)
(1.75698 -0.156055 0)
(1.82061 -0.149039 0)
(1.84812 -0.173836 0)
(1.87894 -0.229437 0)
(1.52737 -1.46498 0)
(1.46443 -1.5674 0)
(1.49468 -1.42206 0)
(1.65016 -1.29465 0)
(1.78328 -1.49672 0)
(1.80849 -1.5219 0)
(1.74342 -1.27224 0)
(1.76827 -1.0604 0)
(1.81843 -1.17225 0)
(1.84933 -1.27203 0)
(1.80042 -1.30471 0)
(1.81265 -1.22183 0)
(1.92608 -1.28675 0)
(2.0107 -1.4237 0)
(2.06601 -1.45223 0)
(2.0906 -1.32563 0)
(2.16443 -1.1172 0)
(2.27665 -1.06011 0)
(2.3536 -1.04762 0)
(2.44654 -1.12204 0)
(1.39451 -1.49251 0)
(1.52736 -1.71513 0)
(1.66467 -1.85878 0)
(1.79378 -2.00224 0)
(1.88074 -2.14362 0)
(1.93047 -2.23464 0)
(1.96361 -2.2086 0)
(1.99377 -2.17695 0)
(2.00854 -2.19466 0)
(2.12999 -2.13592 0)
(2.18119 -2.11818 0)
(2.22003 -2.05801 0)
(2.27868 -1.97487 0)
(2.28253 -1.94649 0)
(2.31257 -1.8587 0)
(2.36862 -1.81511 0)
(2.43868 -1.73083 0)
(2.53273 -1.66369 0)
(2.63563 -1.58773 0)
(2.7511 -1.49502 0)
(1.35798 -1.52162 0)
(1.54023 -1.76062 0)
(1.75978 -2.04735 0)
(1.87095 -2.23855 0)
(1.94929 -2.3231 0)
(1.93588 -2.35277 0)
(1.99503 -2.18675 0)
(2.0137 -2.10627 0)
(2.08686 -2.01026 0)
(2.24786 -1.97634 0)
(2.41497 -1.80684 0)
(2.52514 -1.76513 0)
(2.61837 -1.68356 0)
(2.58761 -1.73208 0)
(2.56263 -1.69689 0)
(2.51569 -1.70759 0)
(2.51272 -1.62732 0)
(2.5431 -1.50397 0)
(2.61649 -1.45513 0)
(2.72681 -1.24258 0)
(1.36938 -1.58103 0)
(1.64915 -1.87172 0)
(1.91865 -2.19644 0)
(2.00652 -2.2832 0)
(2.14913 -2.28342 0)
(2.08121 -2.37215 0)
(2.13416 -2.14573 0)
(2.06046 -2.1034 0)
(2.11478 -1.99781 0)
(2.21626 -1.92643 0)
(2.3217 -1.80688 0)
(2.49556 -1.73543 0)
(2.59778 -1.5527 0)
(2.72824 -1.40823 0)
(2.77389 -1.28813 0)
(2.74098 -1.29327 0)
(2.69594 -1.35178 0)
(2.67079 -1.26921 0)
(2.62736 -1.34514 0)
(2.66008 -1.18519 0)
(1.48441 -1.63589 0)
(1.85551 -1.9005 0)
(2.04817 -2.21745 0)
(2.0953 -2.25463 0)
(2.21584 -2.20748 0)
(2.21505 -2.25115 0)
(2.27935 -2.03923 0)
(2.228 -2.00979 0)
(2.27356 -1.94199 0)
(2.31432 -1.86828 0)
(2.36719 -1.75286 0)
(2.46961 -1.65902 0)
(2.52177 -1.51636 0)
(2.65823 -1.42843 0)
(2.71116 -1.25445 0)
(2.80072 -1.02825 0)
(2.82986 -0.931607 0)
(2.82452 -0.828394 0)
(2.74414 -0.931083 0)
(2.69468 -0.939865 0)
(1.60591 -1.6822 0)
(1.98379 -1.86542 0)
(1.9753 -2.20906 0)
(2.00272 -2.22568 0)
(2.14796 -2.1722 0)
(2.21439 -2.17928 0)
(2.30698 -1.99043 0)
(2.34573 -1.84765 0)
(2.4211 -1.78416 0)
(2.52973 -1.6736 0)
(2.50902 -1.65756 0)
(2.55291 -1.53309 0)
(2.56101 -1.39352 0)
(2.61253 -1.3299 0)
(2.64753 -1.17845 0)
(2.70476 -1.03893 0)
(2.79307 -0.908272 0)
(2.83008 -0.658352 0)
(2.82141 -0.536178 0)
(2.73932 -0.507868 0)
(1.73814 -1.72661 0)
(1.91635 -1.86638 0)
(1.80996 -2.20698 0)
(1.87364 -2.20766 0)
(1.95157 -1.99867 0)
(2.10241 -1.87874 0)
(2.2408 -1.87726 0)
(2.40644 -1.62154 0)
(2.51979 -1.63694 0)
(2.6355 -1.39824 0)
(2.66007 -1.41557 0)
(2.70798 -1.22586 0)
(2.67008 -1.18586 0)
(2.67724 -1.11323 0)
(2.68245 -0.9938 0)
(2.68469 -0.885909 0)
(2.71591 -0.820167 0)
(2.76308 -0.686752 0)
(2.76642 -0.478317 0)
(2.73952 -0.31004 0)
(1.75103 -1.69502 0)
(1.74413 -1.8654 0)
(1.6711 -2.10861 0)
(1.73969 -2.08541 0)
(1.86019 -1.92182 0)
(1.97242 -1.82394 0)
(2.07793 -1.78705 0)
(2.27559 -1.51622 0)
(2.44482 -1.46808 0)
(2.5564 -1.17627 0)
(2.6544 -1.06163 0)
(2.70092 -0.811561 0)
(2.72119 -0.754558 0)
(2.75172 -0.675544 0)
(2.76185 -0.620886 0)
(2.73769 -0.569746 0)
(2.71428 -0.516332 0)
(2.72468 -0.526127 0)
(2.70231 -0.386968 0)
(2.66436 -0.176231 0)
(1.62851 -1.58908 0)
(1.64621 -1.73924 0)
(1.64934 -1.88106 0)
(1.69106 -1.786 0)
(1.79627 -1.80815 0)
(1.93893 -1.77154 0)
(2.06614 -1.70631 0)
(2.21317 -1.51844 0)
(2.31224 -1.41933 0)
(2.43829 -1.24757 0)
(2.57194 -1.06975 0)
(2.63993 -0.808815 0)
(2.68604 -0.582916 0)
(2.74206 -0.418328 0)
(2.72972 -0.222418 0)
(2.71863 -0.176565 0)
(2.7002 -0.105721 0)
(2.67545 -0.196903 0)
(2.64981 -0.181039 0)
(2.61291 -0.0421221 0)
(1.49525 -1.44065 0)
(1.64211 -1.57026 0)
(1.73984 -1.69001 0)
(1.72229 -1.51425 0)
(1.76666 -1.74631 0)
(1.98663 -1.70194 0)
(2.2396 -1.48463 0)
(2.36723 -1.39413 0)
(2.44304 -1.23292 0)
(2.46844 -1.15556 0)
(2.54102 -0.951015 0)
(2.586 -0.756909 0)
(2.61531 -0.550789 0)
(2.69198 -0.414912 0)
(2.65988 -0.158946 0)
(2.66846 -0.0253075 0)
(2.62806 0.162029 0)
(2.5887 0.152297 0)
(2.54039 0.168218 0)
(2.58269 0.0604521 0)
(1.40898 -1.3205 0)
(1.64389 -1.43758 0)
(1.83529 -1.57146 0)
(1.81257 -1.34865 0)
(1.84887 -1.60815 0)
(2.2516 -1.63633 0)
(2.48546 -1.29182 0)
(2.60674 -0.95452 0)
(2.70606 -0.655465 0)
(2.67703 -0.687245 0)
(2.66645 -0.498899 0)
(2.65497 -0.370383 0)
(2.62684 -0.233686 0)
(2.63091 -0.15603 0)
(2.58895 -0.0138509 0)
(2.59193 0.0507877 0)
(2.54362 0.208252 0)
(2.49431 0.328549 0)
(2.42853 0.406615 0)
(2.44736 0.346781 0)
(1.32187 -1.24964 0)
(1.61153 -1.38444 0)
(1.85981 -1.50742 0)
(1.8876 -1.29381 0)
(2.28849 -1.36264 0)
(2.49236 -1.43153 0)
(2.69579 -1.05564 0)
(2.73815 -0.609695 0)
(2.74167 -0.466995 0)
(2.66775 -0.155922 0)
(2.65197 -0.0316814 0)
(2.61295 0.117585 0)
(2.57802 0.217027 0)
(2.53491 0.303929 0)
(2.49243 0.354696 0)
(2.46634 0.351343 0)
(2.43394 0.37264 0)
(2.38794 0.445023 0)
(2.30941 0.570351 0)
(2.30302 0.552593 0)
(1.1986 -1.2087 0)
(1.52014 -1.38382 0)
(1.95535 -1.35639 0)
(2.35889 -1.33019 0)
(2.4108 -1.28864 0)
(2.37072 -1.17939 0)
(2.4747 -0.881427 0)
(2.50962 -0.555474 0)
(2.52527 -0.434118 0)
(2.53668 -0.167274 0)
(2.55259 0.0463403 0)
(2.4978 0.276651 0)
(2.46296 0.420915 0)
(2.3822 0.574142 0)
(2.3261 0.652267 0)
(2.28413 0.674292 0)
(2.23995 0.701578 0)
(2.23807 0.68109 0)
(2.18707 0.734892 0)
(2.13852 0.777499 0)
(0.979805 -1.24851 0)
(1.48165 -1.40956 0)
(2.17997 -0.996623 0)
(2.29564 -1.27506 0)
(2.25646 -1.21552 0)
(2.38409 -0.7661 0)
(2.46157 -0.471324 0)
(2.47331 -0.187717 0)
(2.4415 0.0343091 0)
(2.44709 0.148396 0)
(2.40943 0.329075 0)
(2.34995 0.48782 0)
(2.30366 0.598443 0)
(2.23087 0.715187 0)
(2.17181 0.788736 0)
(2.11935 0.83437 0)
(2.06156 0.901563 0)
(2.04848 0.914003 0)
(2.03755 0.931854 0)
(2.06127 0.950382 0)
(1.01958 -0.892515 0)
(1.3619 -1.40558 0)
(2.33158 -0.465308 0)
(2.15139 -1.02039 0)
(2.34864 -0.626947 0)
(2.43279 -0.093404 0)
(2.42894 0.216815 0)
(2.39519 0.370599 0)
(2.31879 0.523916 0)
(2.28165 0.651799 0)
(2.19791 0.7801 0)
(2.12922 0.86497 0)
(2.07496 0.912955 0)
(2.02532 0.95984 0)
(1.99205 0.961294 0)
(1.95916 0.981089 0)
(1.95614 1.01156 0)
(1.96889 0.995417 0)
(1.99254 0.995526 0)
(2.06824 0.978828 0)
(1.0919 -0.430821 0)
(1.90259 -0.131904 0)
(2.17531 -0.726797 0)
(2.37109 -0.149805 0)
(2.35153 0.291214 0)
(2.3514 0.344299 0)
(2.29473 0.518583 0)
(2.20016 0.688852 0)
(2.14405 0.763914 0)
(2.0828 0.90454 0)
(1.97025 1.01655 0)
(1.91247 1.07059 0)
(1.87874 1.0888 0)
(1.8677 1.09415 0)
(1.87064 1.05782 0)
(1.89733 1.04826 0)
(1.96399 1.01903 0)
(2.16899 0.897032 0)
(2.38384 0.786421 0)
(2.77605 0.439331 0)
(1.12819 -0.0674134 0)
(1.86003 -0.163353 0)
(2.25573 0.148755 0)
(2.22695 0.527649 0)
(2.21472 0.610087 0)
(2.13075 0.787729 0)
(2.04355 0.903129 0)
(1.97465 0.959839 0)
(1.90725 1.03001 0)
(1.85227 1.12424 0)
(1.78994 1.15616 0)
(1.79218 1.15125 0)
(1.81224 1.13105 0)
(1.85339 1.08773 0)
(2.04042 0.953029 0)
(2.2571 0.831379 0)
(2.66726 0.502594 0)
(3.03874 0.0894524 0)
(3.05531 -0.0245361 0)
(3.00405 -0.0046868 0)
(1.01436 0.0273494 0)
(1.93308 0.768303 0)
(2.10412 0.850691 0)
(2.00019 0.973287 0)
(1.95027 1.00444 0)
(1.88347 1.0784 0)
(1.79868 1.13592 0)
(1.761 1.14923 0)
(1.75727 1.16479 0)
(1.73326 1.20479 0)
(1.71073 1.19918 0)
(1.86113 1.0754 0)
(2.1044 0.887964 0)
(2.51196 0.576112 0)
(2.99173 0.133579 0)
(3.07315 -0.0294068 0)
(3.0079 -0.00757692 0)
(3.00286 -0.00379183 0)
(3.00121 -0.0021769 0)
(3.00008 -0.000478526 0)
(1.16164 0.775921 0)
(1.83561 1.14523 0)
(1.83211 1.15819 0)
(1.74423 1.19199 0)
(1.72158 1.20162 0)
(1.667 1.24716 0)
(1.66261 1.2187 0)
(1.72694 1.16888 0)
(1.75854 1.22498 0)
(1.78551 1.13898 0)
(2.26643 0.743328 0)
(2.85426 0.21341 0)
(3.09507 -0.0257501 0)
(3.02045 -0.0122115 0)
(3.00445 -0.00536728 0)
(3.00184 -0.00299462 0)
(3.00007 -0.000605006 0)
(2.99998 -2.45365e-05 0)
(2.99999 1.42963e-05 0)
(3 5.92687e-06 0)
(1.57847 1.25885 0)
(1.58365 1.26573 0)
(1.58974 1.27199 0)
(1.60183 1.26784 0)
(1.61774 1.25782 0)
(1.61059 1.26572 0)
(1.89126 1.15357 0)
(2.95196 0.344589 0)
(3.32677 -0.542506 0)
(3 6.46747e-11 0)
(3 7.05063e-12 0)
(3 -2.68355e-13 0)
(3 1.25641e-12 0)
(3 -9.79623e-13 0)
(3 2.48064e-15 0)
(3 2.05997e-15 0)
(3 1.64611e-15 0)
(3 -2.8793e-16 0)
(3 7.39962e-19 0)
(3 -1.54041e-15 0)
(1.58067 1.24981 0)
(1.59052 1.26172 0)
(1.59605 1.27422 0)
(1.59757 1.27018 0)
(1.65531 1.24067 0)
(1.70784 1.23103 0)
(2.28373 0.724615 0)
(2.99793 0.0152744 0)
(3 3.64105e-08 0)
(3 1.50125e-11 0)
(3 5.1198e-14 0)
(3 3.54048e-15 0)
(3 -1.44805e-15 0)
(3 4.49298e-15 0)
(3 2.90964e-15 0)
(3 1.4783e-15 0)
(3 9.93994e-16 0)
(3 1.07362e-15 0)
(3 1.25315e-15 0)
(3 2.81838e-15 0)
(1.58808 1.25636 0)
(1.60445 1.25842 0)
(1.60348 1.26235 0)
(1.57068 1.28612 0)
(1.74961 1.19235 0)
(2.20852 0.828719 0)
(2.9901 0.0038482 0)
(3.00042 -0.000801107 0)
(3 8.65753e-07 0)
(3 5.45725e-11 0)
(3 1.02251e-13 0)
(3 2.75671e-15 0)
(3 2.30845e-16 0)
(3 2.0116e-15 0)
(3 1.76913e-15 0)
(3 1.16775e-15 0)
(3 3.39692e-16 0)
(3 1.40501e-15 0)
(3 1.8751e-15 0)
(3 2.25509e-15 0)
(1.59102 1.25656 0)
(1.61006 1.26048 0)
(1.62722 1.26159 0)
(1.57678 1.32257 0)
(1.84057 1.09313 0)
(2.7322 0.232528 0)
(3.00499 -0.00192236 0)
(2.99991 8.24267e-05 0)
(3 -9.42524e-07 0)
(3 8.35237e-10 0)
(3 -2.311e-13 0)
(3 2.44508e-15 0)
(3 1.97858e-16 0)
(3 8.3155e-16 0)
(3 1.52154e-15 0)
(3 2.00488e-15 0)
(3 9.27479e-16 0)
(3 2.44148e-15 0)
(3 1.8287e-15 0)
(3 2.5969e-15 0)
(1.58822 1.26677 0)
(1.60991 1.26354 0)
(1.64006 1.2543 0)
(1.70659 1.21698 0)
(2.33306 0.637658 0)
(3.0216 -0.0185411 0)
(2.99972 0.00017316 0)
(3 -4.54322e-06 0)
(3 8.68042e-08 0)
(3 -8.82609e-10 0)
(3 2.79615e-13 0)
(3 2.02164e-15 0)
(3 1.26855e-15 0)
(3 4.34443e-16 0)
(3 1.38524e-15 0)
(3 2.67096e-15 0)
(3 3.25864e-15 0)
(3 2.83911e-15 0)
(3 1.47133e-15 0)
(3 2.52056e-16 0)
(1.58324 1.28097 0)
(1.58481 1.27417 0)
(1.64907 1.24397 0)
(1.90137 1.07476 0)
(2.77266 0.199733 0)
(3 -5.98099e-10 0)
(3 1.43641e-08 0)
(3 -1.29776e-08 0)
(3 5.67702e-10 0)
(3 3.44343e-12 0)
(3 -9.28777e-14 0)
(3 4.37853e-15 0)
(3 2.05109e-15 0)
(3 8.4495e-16 0)
(3 9.25986e-16 0)
(3 2.35344e-15 0)
(3 3.73951e-15 0)
(3 3.26316e-15 0)
(3 1.81586e-15 0)
(3 9.63004e-16 0)
(1.58239 1.29233 0)
(1.54839 1.28464 0)
(1.65282 1.24987 0)
(2.08355 0.874757 0)
(3.01432 -0.00910743 0)
(3 -1.43672e-12 0)
(3 -1.93541e-11 0)
(3 2.61594e-11 0)
(3 -3.77721e-12 0)
(3 5.76197e-16 0)
(3 5.07538e-15 0)
(3 3.44145e-15 0)
(3 2.33218e-15 0)
(3 1.5964e-15 0)
(3 1.62461e-15 0)
(3 2.90925e-15 0)
(3 5.13382e-15 0)
(3 3.59281e-15 0)
(3 3.59498e-15 0)
(3 3.05829e-15 0)
(1.58388 1.32448 0)
(1.50821 1.32386 0)
(1.7669 1.18797 0)
(2.42634 0.545076 0)
(3 -7.57611e-08 0)
(3 7.48243e-15 0)
(3 3.13228e-14 0)
(3 -4.90894e-14 0)
(3 2.45055e-14 0)
(3 4.56034e-15 0)
(3 4.63859e-15 0)
(3 4.97272e-15 0)
(3 3.17895e-15 0)
(3 2.35639e-15 0)
(3 2.62055e-15 0)
(3 2.29541e-15 0)
(3 4.31143e-15 0)
(3 4.09534e-15 0)
(3 4.19771e-15 0)
(3 4.19985e-15 0)
(1.58805 1.3065 0)
(1.47229 1.34199 0)
(1.9738 1.04189 0)
(2.87418 0.127834 0)
(3 -2.47615e-14 0)
(3 4.15598e-15 0)
(3 4.00098e-15 0)
(3 3.33285e-15 0)
(3 2.32307e-15 0)
(3 3.11931e-15 0)
(3 4.13821e-15 0)
(3 4.03235e-15 0)
(3 3.59357e-15 0)
(3 3.08018e-15 0)
(3 2.49696e-15 0)
(3 2.44374e-15 0)
(3 3.04069e-15 0)
(3 3.30083e-15 0)
(3 4.1645e-15 0)
(3 4.04653e-15 0)
(1.60368 1.29719 0)
(1.47822 1.39378 0)
(2.1132 0.855681 0)
(3.01145 -0.00952106 0)
(3 5.19658e-13 0)
(3 1.83209e-15 0)
(3 3.79412e-15 0)
(3 3.94617e-15 0)
(3 3.92445e-15 0)
(3 3.16351e-15 0)
(3 2.48061e-15 0)
(3 1.97884e-15 0)
(3 2.81904e-15 0)
(3 2.98362e-15 0)
(3 2.31662e-15 0)
(3 2.86549e-15 0)
(3 3.3356e-15 0)
(3 2.9312e-15 0)
(3 3.23084e-15 0)
(3 3.92538e-15 0)
(1.62189 1.28072 0)
(1.57143 1.30582 0)
(2.42618 0.522862 0)
(3 3.83468e-15 0)
(3 1.68692e-15 0)
(3 2.26788e-15 0)
(3 2.60013e-15 0)
(3 3.9742e-15 0)
(3 3.88541e-15 0)
(3 3.75141e-15 0)
(3 2.24432e-15 0)
(3 1.06921e-15 0)
(3 1.20951e-15 0)
(3 1.58926e-15 0)
(3 2.86248e-15 0)
(3 3.27674e-15 0)
(3 3.93521e-15 0)
(3 3.81011e-15 0)
(3 3.57151e-15 0)
(3 4.16394e-15 0)
(1.64112 1.26461 0)
(1.63436 1.24007 0)
(2.65277 0.282406 0)
(3 -1.3881e-16 0)
(3 1.98925e-15 0)
(3 1.67341e-15 0)
(3 2.76632e-15 0)
(3 4.33784e-15 0)
(3 4.47815e-15 0)
(3 4.06792e-15 0)
(3 3.19111e-15 0)
(3 1.79695e-15 0)
(3 5.23402e-16 0)
(3 9.51554e-17 0)
(3 -6.24079e-16 0)
(3 9.45097e-16 0)
(3 2.35719e-15 0)
(3 3.48497e-15 0)
(3 2.98285e-15 0)
(3 2.65634e-15 0)
(1.66104 1.24418 0)
(1.84488 1.09202 0)
(2.88958 0.0813935 0)
(3 3.09078e-15 0)
(3 2.19304e-15 0)
(3 1.78929e-15 0)
(3 2.53295e-15 0)
(3 4.01316e-15 0)
(3 4.64149e-15 0)
(3 4.51356e-15 0)
(3 4.17929e-15 0)
(3 3.53521e-15 0)
(3 2.55252e-15 0)
(3 1.8051e-15 0)
(3 -1.28633e-17 0)
(3 9.74096e-17 0)
(3 -8.61175e-16 0)
(3 1.31819e-16 0)
(3 1.81504e-16 0)
(3 4.59882e-16 0)
(1.68259 1.1964 0)
(1.90037 0.982909 0)
(2.99996 1.05532e-05 0)
(3 2.16233e-15 0)
(3 1.99689e-15 0)
(3 1.24864e-15 0)
(3 1.48872e-15 0)
(3 3.53108e-15 0)
(3 3.95564e-15 0)
(3 3.98602e-15 0)
(3 3.91465e-15 0)
(3 3.59522e-15 0)
(3 3.20781e-15 0)
(3 2.79009e-15 0)
(3 2.44997e-15 0)
(3 2.176e-15 0)
(3 1.77473e-15 0)
(3 1.40852e-15 0)
(3 4.40947e-16 0)
(3 4.60029e-16 0)
(1.70543 1.16627 0)
(2.05822 0.830195 0)
(3 9.31628e-16 0)
(3 1.57208e-15 0)
(3 1.27499e-15 0)
(3 6.8038e-16 0)
(3 9.40089e-16 0)
(3 2.12845e-15 0)
(3 2.80856e-15 0)
(3 3.63546e-15 0)
(3 3.75782e-15 0)
(3 3.89559e-15 0)
(3 3.74136e-15 0)
(3 3.05405e-15 0)
(3 2.94632e-15 0)
(3 2.83404e-15 0)
(3 2.58569e-15 0)
(3 1.75516e-15 0)
(3 1.13807e-15 0)
(3 7.96018e-16 0)
(1.73524 1.10613 0)
(2.19478 0.673909 0)
(3 1.82468e-15 0)
(3 7.55491e-16 0)
(3 6.93704e-16 0)
(3 9.13424e-16 0)
(3 1.34454e-15 0)
(3 1.73931e-15 0)
(3 2.55921e-15 0)
(3 3.1561e-15 0)
(3 3.43818e-15 0)
(3 3.91686e-15 0)
(3 4.10217e-15 0)
(3 3.2817e-15 0)
(3 2.59452e-15 0)
(3 2.1723e-15 0)
(3 2.64429e-15 0)
(3 2.47808e-15 0)
(3 1.94731e-15 0)
(3 1.48647e-15 0)
(1.82723 1.00905 0)
(2.42833 0.460551 0)
(3 3.80551e-15 0)
(3 3.52055e-15 0)
(3 2.23758e-15 0)
(3 1.73711e-15 0)
(3 1.83931e-15 0)
(3 2.35087e-15 0)
(3 2.25956e-15 0)
(3 2.39796e-15 0)
(3 1.73048e-15 0)
(3 1.58046e-15 0)
(3 1.77027e-15 0)
(3 2.37252e-15 0)
(3 2.48261e-15 0)
(3 2.24982e-15 0)
(3 2.69259e-15 0)
(3 2.93626e-15 0)
(3 2.60689e-15 0)
(3 2.1359e-15 0)
(1.91061 0.87201 0)
(2.6886 0.21734 0)
(3 3.6055e-15 0)
(3 3.20668e-15 0)
(3 1.20125e-15 0)
(3 -2.1373e-15 0)
(3 -2.8386e-15 0)
(3 -2.26021e-15 0)
(3 -1.3297e-15 0)
(3 -6.02881e-16 0)
(3 -2.82585e-16 0)
(3 6.7025e-17 0)
(3 1.80697e-16 0)
(3 3.43324e-16 0)
(3 1.18209e-15 0)
(3 1.06207e-15 0)
(3 9.9695e-16 0)
(3 1.0151e-15 0)
(3 1.07536e-15 0)
(3 4.34803e-16 0)
(2.12821 0.711025 0)
(2.98941 5.46269e-05 0)
(3 1.24074e-15 0)
(3 5.13706e-16 0)
(3 -3.07992e-16 0)
(3 -1.15942e-15 0)
(3 -1.39552e-15 0)
(3 -1.53074e-15 0)
(3 -1.13628e-15 0)
(3 -1.37113e-15 0)
(3 -1.60023e-15 0)
(3 -1.33597e-15 0)
(3 -1.173e-15 0)
(3 -1.27095e-15 0)
(3 -1.05956e-15 0)
(3 -8.00907e-16 0)
(3 -9.20968e-16 0)
(3 -1.06608e-15 0)
(3 -1.15155e-15 0)
(3 -6.92833e-16 0)
(2.00919 0.358906 0)
(2.99993 -1.45188e-05 0)
(3 9.16486e-17 0)
(3 2.64749e-16 0)
(3 4.93372e-16 0)
(3 7.16599e-17 0)
(3 -6.8707e-16 0)
(3 -9.55492e-16 0)
(3 -9.67153e-16 0)
(3 -6.18131e-16 0)
(3 -8.31932e-16 0)
(3 -7.68911e-16 0)
(3 -5.29516e-16 0)
(3 -5.84556e-16 0)
(3 -7.21265e-16 0)
(3 -5.3288e-16 0)
(3 -1.84455e-16 0)
(3 -1.42593e-16 0)
(3 -2.86523e-16 0)
(3 -2.02933e-16 0)
(2.00919 -0.358905 0)
(2.99993 1.45177e-05 0)
(3 -9.34962e-16 0)
(3 -4.87405e-16 0)
(3 -1.03225e-15 0)
(3 -1.28333e-15 0)
(3 -1.53171e-15 0)
(3 -1.88776e-15 0)
(3 -2.51184e-15 0)
(3 -2.82024e-15 0)
(3 -3.57733e-15 0)
(3 -3.46222e-15 0)
(3 -3.31977e-15 0)
(3 -2.43501e-15 0)
(3 -2.09185e-15 0)
(3 -2.07146e-15 0)
(3 -2.32324e-15 0)
(3 -2.11418e-15 0)
(3 -1.77032e-15 0)
(3 -1.71488e-15 0)
(2.12822 -0.711023 0)
(2.98941 -5.46468e-05 0)
(3 -3.82562e-15 0)
(3 -3.18614e-15 0)
(3 -3.37773e-15 0)
(3 -3.5451e-15 0)
(3 -3.70919e-15 0)
(3 -3.73434e-15 0)
(3 -4.75813e-15 0)
(3 -5.07198e-15 0)
(3 -5.63574e-15 0)
(3 -5.5305e-15 0)
(3 -4.89655e-15 0)
(3 -4.01719e-15 0)
(3 -4.10421e-15 0)
(3 -4.27031e-15 0)
(3 -3.45508e-15 0)
(3 -2.50131e-15 0)
(3 -1.46475e-15 0)
(3 -8.84508e-16 0)
(1.9106 -0.872014 0)
(2.68859 -0.217344 0)
(3 -2.86425e-15 0)
(3 -4.39359e-15 0)
(3 -4.77822e-15 0)
(3 -5.52575e-15 0)
(3 -6.19702e-15 0)
(3 -6.31824e-15 0)
(3 -6.05578e-15 0)
(3 -4.86575e-15 0)
(3 -3.54188e-15 0)
(3 -1.97105e-15 0)
(3 -8.98759e-16 0)
(3 -1.21642e-16 0)
(3 1.67345e-16 0)
(3 1.19939e-15 0)
(3 2.51637e-15 0)
(3 3.0276e-15 0)
(3 3.9243e-15 0)
(3 4.33512e-15 0)
(1.82723 -1.00906 0)
(2.42832 -0.460554 0)
(3 -3.25979e-15 0)
(3 -5.88674e-15 0)
(3 -5.68726e-15 0)
(3 -5.61162e-15 0)
(3 -3.34207e-15 0)
(3 -2.40522e-15 0)
(3 -1.77259e-15 0)
(3 -3.59165e-17 0)
(3 1.52123e-15 0)
(3 2.30041e-15 0)
(3 3.38972e-15 0)
(3 4.06465e-15 0)
(3 3.9984e-15 0)
(3 4.74143e-15 0)
(3 4.70423e-15 0)
(3 4.52407e-15 0)
(3 4.15579e-15 0)
(3 3.72656e-15 0)
(1.73524 -1.10613 0)
(2.19478 -0.673907 0)
(3 -1.30618e-15 0)
(3 -1.11986e-15 0)
(3 -8.94587e-16 0)
(3 5.07642e-17 0)
(3 1.18863e-15 0)
(3 1.5621e-15 0)
(3 2.44478e-15 0)
(3 3.05608e-15 0)
(3 3.72877e-15 0)
(3 3.84681e-15 0)
(3 3.63769e-15 0)
(3 3.25436e-15 0)
(3 2.93407e-15 0)
(3 3.14052e-15 0)
(3 2.71045e-15 0)
(3 2.336e-15 0)
(3 2.30825e-15 0)
(3 2.28607e-15 0)
(1.70543 -1.16627 0)
(2.05822 -0.83019 0)
(3 -1.39314e-15 0)
(3 -1.7875e-15 0)
(3 -1.27932e-15 0)
(3 -1.21752e-16 0)
(3 8.19699e-16 0)
(3 1.44493e-15 0)
(3 2.01482e-15 0)
(3 2.80158e-15 0)
(3 2.82284e-15 0)
(3 2.52406e-15 0)
(3 2.34034e-15 0)
(3 2.28754e-15 0)
(3 2.63816e-15 0)
(3 2.3871e-15 0)
(3 1.62247e-15 0)
(3 6.07787e-16 0)
(3 1.05908e-15 0)
(3 2.02365e-15 0)
(1.68259 -1.1964 0)
(1.90036 -0.982912 0)
(2.99996 -1.0557e-05 0)
(3 -4.47177e-16 0)
(3 -1.9363e-15 0)
(3 -1.45441e-15 0)
(3 -9.03806e-16 0)
(3 -4.62909e-16 0)
(3 5.10098e-16 0)
(3 9.41989e-16 0)
(3 1.04894e-15 0)
(3 6.1278e-16 0)
(3 1.44435e-15 0)
(3 1.35169e-15 0)
(3 1.13459e-15 0)
(3 3.10732e-16 0)
(3 -9.92556e-17 0)
(3 5.4433e-16 0)
(3 9.43939e-16 0)
(3 1.21508e-15 0)
(1.66103 -1.24419 0)
(1.84489 -1.09202 0)
(2.88958 -0.0813987 0)
(3 -2.79879e-15 0)
(3 -2.63119e-15 0)
(3 -2.05196e-15 0)
(3 -9.4477e-16 0)
(3 -5.52543e-17 0)
(3 6.69631e-16 0)
(3 5.44251e-16 0)
(3 1.46547e-16 0)
(3 -2.06784e-16 0)
(3 2.7416e-16 0)
(3 -3.20146e-16 0)
(3 -1.70949e-17 0)
(3 7.22432e-16 0)
(3 1.52763e-15 0)
(3 1.80813e-15 0)
(3 1.41406e-15 0)
(3 -2.98275e-16 0)
(1.64112 -1.26461 0)
(1.63435 -1.24008 0)
(2.65276 -0.282417 0)
(3 -1.92765e-15 0)
(3 -3.64206e-15 0)
(3 -2.62156e-15 0)
(3 -6.10315e-16 0)
(3 2.59628e-16 0)
(3 3.22146e-17 0)
(3 -6.12128e-16 0)
(3 -1.5546e-15 0)
(3 -2.07967e-15 0)
(3 -1.6123e-15 0)
(3 -1.18853e-15 0)
(3 -3.43661e-16 0)
(3 5.74873e-16 0)
(3 1.46569e-15 0)
(3 1.58552e-15 0)
(3 2.28271e-16 0)
(3 -2.72452e-15 0)
(1.62189 -1.28072 0)
(1.57143 -1.30583 0)
(2.42617 -0.522873 0)
(3 -5.57209e-15 0)
(3 -3.97779e-15 0)
(3 -2.88669e-15 0)
(3 -1.13004e-15 0)
(3 -6.54942e-16 0)
(3 -9.7738e-16 0)
(3 -1.66487e-15 0)
(3 -2.62335e-15 0)
(3 -3.10128e-15 0)
(3 -1.93623e-15 0)
(3 -5.4167e-16 0)
(3 -9.29399e-17 0)
(3 1.64881e-16 0)
(3 -2.961e-16 0)
(3 -1.90097e-15 0)
(3 -2.80822e-15 0)
(3 -5.74383e-15 0)
(1.60368 -1.29719 0)
(1.47821 -1.39378 0)
(2.11322 -0.855673 0)
(3.01145 0.0095208 0)
(3 -5.27846e-13 0)
(3 -1.25215e-15 0)
(3 -5.88562e-16 0)
(3 -2.49353e-15 0)
(3 -3.18238e-15 0)
(3 -2.68695e-15 0)
(3 -2.44867e-15 0)
(3 -2.87216e-15 0)
(3 -1.13537e-15 0)
(3 8.86764e-16 0)
(3 9.00575e-16 0)
(3 2.78231e-16 0)
(3 -6.00514e-16 0)
(3 -3.87636e-15 0)
(3 -5.7713e-15 0)
(3 -6.99259e-15 0)
(1.58805 -1.3065 0)
(1.47229 -1.34199 0)
(1.97381 -1.04188 0)
(2.87418 -0.127827 0)
(3 2.95639e-14 0)
(3 -4.66361e-16 0)
(3 -8.61276e-16 0)
(3 -3.39343e-15 0)
(3 -3.64381e-15 0)
(3 -2.78275e-15 0)
(3 -2.40993e-15 0)
(3 -2.77539e-15 0)
(3 -1.64516e-15 0)
(3 1.24062e-16 0)
(3 -1.16071e-16 0)
(3 -1.12281e-15 0)
(3 -1.14275e-15 0)
(3 -5.19292e-15 0)
(3 -6.11383e-15 0)
(3 -5.06959e-15 0)
(1.58388 -1.32448 0)
(1.5082 -1.32387 0)
(1.76689 -1.18798 0)
(2.4263 -0.545104 0)
(3 7.43147e-08 0)
(3 -3.11003e-15 0)
(3 -2.22764e-14 0)
(3 4.11698e-14 0)
(3 -2.34758e-14 0)
(3 -3.1084e-15 0)
(3 -2.45627e-15 0)
(3 -2.63983e-15 0)
(3 -1.1301e-15 0)
(3 -4.18535e-16 0)
(3 -4.6631e-16 0)
(3 -1.34038e-15 0)
(3 -4.14827e-15 0)
(3 -7.38405e-15 0)
(3 -6.61409e-15 0)
(3 -3.78157e-15 0)
(1.58239 -1.29234 0)
(1.54839 -1.28464 0)
(1.65283 -1.24987 0)
(2.08371 -0.874671 0)
(3.01434 0.00912997 0)
(3 1.44215e-12 0)
(3 1.9374e-11 0)
(3 -2.61807e-11 0)
(3 3.77899e-12 0)
(3 4.08687e-16 0)
(3 -3.61962e-15 0)
(3 -2.40542e-15 0)
(3 -7.70623e-16 0)
(3 1.06375e-16 0)
(3 -2.9242e-16 0)
(3 -1.70609e-15 0)
(3 -4.37438e-15 0)
(3 -5.89585e-15 0)
(3 -4.99684e-15 0)
(3 -2.34594e-15 0)
(1.58324 -1.28096 0)
(1.58481 -1.27418 0)
(1.64907 -1.24398 0)
(1.90101 -1.07488 0)
(2.77257 -0.199741 0)
(3 5.98126e-10 0)
(3 -1.4365e-08 0)
(3 1.29784e-08 0)
(3 -5.67758e-10 0)
(3 -3.44733e-12 0)
(3 9.61153e-14 0)
(3 -2.99205e-15 0)
(3 -5.84437e-16 0)
(3 -3.44088e-16 0)
(3 -5.58071e-16 0)
(3 -3.54027e-15 0)
(3 -3.89405e-15 0)
(3 -4.46497e-15 0)
(3 -4.45385e-15 0)
(3 -2.05415e-15 0)
(1.58822 -1.26677 0)
(1.60992 -1.26353 0)
(1.64006 -1.25431 0)
(1.7069 -1.21685 0)
(2.33331 -0.63753 0)
(3.02159 0.0185471 0)
(2.99972 -0.000173134 0)
(3 4.54255e-06 0)
(3 -8.68135e-08 0)
(3 8.8255e-10 0)
(3 -3.1792e-13 0)
(3 -2.21678e-15 0)
(3 -1.3455e-15 0)
(3 -3.88576e-16 0)
(3 -7.06745e-16 0)
(3 -4.85469e-15 0)
(3 -5.18571e-15 0)
(3 -4.10275e-15 0)
(3 -4.12779e-15 0)
(3 -1.40665e-15 0)
(1.59103 -1.25656 0)
(1.61007 -1.26048 0)
(1.62724 -1.26159 0)
(1.57686 -1.32257 0)
(1.84034 -1.09332 0)
(2.73197 -0.232703 0)
(3.005 0.0019232 0)
(2.99991 -8.23946e-05 0)
(3 9.42526e-07 0)
(3 -8.35101e-10 0)
(3 2.72522e-13 0)
(3 -2.72808e-15 0)
(3 -1.843e-15 0)
(3 2.27411e-16 0)
(3 -6.01911e-16 0)
(3 -3.85116e-15 0)
(3 -4.95795e-15 0)
(3 -3.39979e-15 0)
(3 -3.46718e-15 0)
(3 -1.74079e-15 0)
(1.58809 -1.25637 0)
(1.60445 -1.25842 0)
(1.60347 -1.26236 0)
(1.57065 -1.28617 0)
(1.74952 -1.19239 0)
(2.20868 -0.828643 0)
(2.99011 -0.00385592 0)
(3.00042 0.000799241 0)
(3 -8.65733e-07 0)
(3 -5.4567e-11 0)
(3 -9.82141e-14 0)
(3 9.62178e-16 0)
(3 -1.71486e-15 0)
(3 -8.73257e-16 0)
(3 -2.92105e-15 0)
(3 -3.82603e-15 0)
(3 -3.78041e-15 0)
(3 -2.6245e-15 0)
(3 -3.02177e-15 0)
(3 -1.55359e-15 0)
(1.58067 -1.24982 0)
(1.59052 -1.26172 0)
(1.59604 -1.27419 0)
(1.59754 -1.27015 0)
(1.65539 -1.24062 0)
(1.7079 -1.23103 0)
(2.2838 -0.724547 0)
(2.99794 -0.015222 0)
(3 -3.64196e-08 0)
(3 -1.49686e-11 0)
(3 -4.25049e-14 0)
(3 7.23523e-16 0)
(3 1.37328e-15 0)
(3 -4.04393e-15 0)
(3 -3.22093e-15 0)
(3 -3.27317e-15 0)
(3 -3.00985e-15 0)
(3 -1.74609e-15 0)
(3 -2.68762e-15 0)
(3 -1.59935e-15 0)
(1.57847 -1.25886 0)
(1.58365 -1.26573 0)
(1.58975 -1.27199 0)
(1.60183 -1.26783 0)
(1.6177 -1.25778 0)
(1.6105 -1.26575 0)
(1.89113 -1.15387 0)
(2.95153 -0.34554 0)
(3.32722 0.543481 0)
(3 -6.47135e-11 0)
(3 -7.01593e-12 0)
(3 2.73185e-13 0)
(3 -1.25718e-12 0)
(3 9.80513e-13 0)
(3 -3.0972e-15 0)
(3 -3.24441e-15 0)
(3 -9.0652e-16 0)
(3 4.71885e-15 0)
(3 -6.64175e-15 0)
(3 -8.24023e-16 0)
(1.16056 -0.777773 0)
(1.83647 -1.14304 0)
(1.83102 -1.15762 0)
(1.74494 -1.18982 0)
(1.72229 -1.2005 0)
(1.66749 -1.24665 0)
(1.66272 -1.2184 0)
(1.72705 -1.16865 0)
(1.75866 -1.22485 0)
(1.78574 -1.13882 0)
(2.26649 -0.743225 0)
(2.85417 -0.213416 0)
(3.09508 0.0257608 0)
(3.02047 0.012222 0)
(3.00445 0.00537087 0)
(3.00184 0.00299586 0)
(3.00007 0.000604818 0)
(2.99998 2.45343e-05 0)
(2.99999 -1.42979e-05 0)
(3 -5.92696e-06 0)
(1.02273 -0.0195894 0)
(1.935 -0.783376 0)
(2.10569 -0.858288 0)
(1.9991 -0.979622 0)
(1.94984 -1.00566 0)
(1.88432 -1.07757 0)
(1.79856 -1.13564 0)
(1.7609 -1.14908 0)
(1.75721 -1.16464 0)
(1.73331 -1.20464 0)
(1.71082 -1.19901 0)
(1.86116 -1.07522 0)
(2.10431 -0.887861 0)
(2.51168 -0.576267 0)
(2.99154 -0.133781 0)
(3.07317 0.0293873 0)
(3.00791 0.00758067 0)
(3.00286 0.00379272 0)
(3.00121 0.00217722 0)
(3.00008 0.000478548 0)
(1.10324 0.0558905 0)
(1.83414 0.205099 0)
(2.2446 -0.159384 0)
(2.2277 -0.525275 0)
(2.21458 -0.6131 0)
(2.13034 -0.790521 0)
(2.04361 -0.90358 0)
(1.97464 -0.959755 0)
(1.9069 -1.03 0)
(1.85233 -1.12422 0)
(1.78988 -1.15609 0)
(1.79214 -1.15125 0)
(1.81218 -1.13104 0)
(1.85328 -1.08775 0)
(2.04034 -0.953082 0)
(2.2571 -0.831432 0)
(2.66721 -0.502703 0)
(3.03872 -0.0895099 0)
(3.05532 0.0245338 0)
(3.00405 0.00468788 0)
(1.30578 0.423712 0)
(1.84975 0.634463 0)
(2.17617 0.748452 0)
(2.3682 0.116816 0)
(2.35357 -0.296321 0)
(2.35284 -0.345022 0)
(2.29545 -0.519425 0)
(2.2002 -0.690279 0)
(2.1435 -0.765361 0)
(2.08254 -0.905497 0)
(1.97011 -1.01694 0)
(1.91239 -1.07071 0)
(1.87875 -1.08876 0)
(1.86766 -1.0941 0)
(1.87063 -1.05775 0)
(1.89733 -1.0482 0)
(1.96399 -1.01901 0)
(2.16895 -0.897066 0)
(2.38377 -0.786501 0)
(2.77602 -0.439414 0)
(1.28619 0.975407 0)
(1.43494 1.48723 0)
(2.37928 0.518321 0)
(2.15813 1.00695 0)
(2.34699 0.628239 0)
(2.43385 0.0978723 0)
(2.42907 -0.217542 0)
(2.39558 -0.369737 0)
(2.31877 -0.523086 0)
(2.28227 -0.650597 0)
(2.19819 -0.779401 0)
(2.12934 -0.864544 0)
(2.07509 -0.912541 0)
(2.02535 -0.959515 0)
(1.992 -0.961153 0)
(1.95909 -0.981093 0)
(1.95612 -1.0116 0)
(1.96888 -0.995423 0)
(1.99254 -0.995526 0)
(2.06825 -0.978819 0)
(1.1859 1.40816 0)
(1.6014 1.5115 0)
(2.23421 0.816194 0)
(2.277 1.26375 0)
(2.25546 1.20552 0)
(2.38212 0.761531 0)
(2.46011 0.475314 0)
(2.47226 0.189692 0)
(2.44147 -0.0313226 0)
(2.44725 -0.147262 0)
(2.40952 -0.328676 0)
(2.34991 -0.48785 0)
(2.30359 -0.598668 0)
(2.23066 -0.715644 0)
(2.17152 -0.789314 0)
(2.11919 -0.834734 0)
(2.06154 -0.901716 0)
(2.04854 -0.913944 0)
(2.03761 -0.931742 0)
(2.06128 -0.950334 0)
(1.29283 1.38407 0)
(1.61225 1.48093 0)
(1.99043 1.18197 0)
(2.26149 1.41257 0)
(2.40922 1.25783 0)
(2.36628 1.16916 0)
(2.47525 0.879797 0)
(2.51157 0.554117 0)
(2.52702 0.433735 0)
(2.53779 0.166195 0)
(2.55298 -0.0478196 0)
(2.49786 -0.278088 0)
(2.46277 -0.422238 0)
(2.38205 -0.575066 0)
(2.32609 -0.652528 0)
(2.28425 -0.674101 0)
(2.24018 -0.701061 0)
(2.23824 -0.680692 0)
(2.18701 -0.734731 0)
(2.13844 -0.777464 0)
(1.36964 1.36334 0)
(1.66312 1.4709 0)
(1.94715 1.36758 0)
(1.90644 1.29334 0)
(2.28283 1.27951 0)
(2.47971 1.41385 0)
(2.69711 1.04261 0)
(2.74311 0.608275 0)
(2.74439 0.463135 0)
(2.66834 0.155184 0)
(2.65154 0.0310919 0)
(2.61282 -0.117403 0)
(2.57804 -0.216476 0)
(2.53517 -0.302873 0)
(2.49257 -0.35356 0)
(2.46646 -0.350393 0)
(2.43391 -0.37225 0)
(2.38778 -0.445162 0)
(2.30929 -0.570579 0)
(2.30288 -0.552815 0)
(1.42171 1.38003 0)
(1.67535 1.49961 0)
(1.85788 1.54869 0)
(1.83107 1.3103 0)
(1.86198 1.54224 0)
(2.25614 1.60978 0)
(2.4841 1.28192 0)
(2.60658 0.952427 0)
(2.70281 0.659578 0)
(2.67375 0.69025 0)
(2.66446 0.502261 0)
(2.65375 0.372455 0)
(2.62619 0.235355 0)
(2.63065 0.15724 0)
(2.58863 0.0140769 0)
(2.5918 -0.0513044 0)
(2.54343 -0.209416 0)
(2.4941 -0.329493 0)
(2.42842 -0.406822 0)
(2.44739 -0.346677 0)
(1.48039 1.45633 0)
(1.64119 1.60342 0)
(1.74693 1.69309 0)
(1.73139 1.4908 0)
(1.77414 1.73271 0)
(1.99753 1.68479 0)
(2.2379 1.49039 0)
(2.36302 1.39717 0)
(2.43846 1.23565 0)
(2.46536 1.15615 0)
(2.53911 0.952019 0)
(2.58513 0.757387 0)
(2.61518 0.550618 0)
(2.69209 0.413644 0)
(2.65979 0.156858 0)
(2.66812 0.0233491 0)
(2.62785 -0.163096 0)
(2.58867 -0.151976 0)
(2.54051 -0.167812 0)
(2.58289 -0.0597656 0)
(1.60538 1.5706 0)
(1.64433 1.73681 0)
(1.67006 1.88614 0)
(1.7243 1.7978 0)
(1.81488 1.82967 0)
(1.95428 1.75544 0)
(2.05984 1.71334 0)
(2.21175 1.51425 0)
(2.30977 1.42119 0)
(2.43703 1.248 0)
(2.57176 1.06842 0)
(2.64048 0.807223 0)
(2.68646 0.580585 0)
(2.74177 0.41586 0)
(2.72969 0.221644 0)
(2.71859 0.176886 0)
(2.70021 0.106945 0)
(2.67563 0.198204 0)
(2.64996 0.181727 0)
(2.61282 0.0418671 0)
(1.72672 1.66661 0)
(1.74023 1.85539 0)
(1.68935 2.12192 0)
(1.7694 2.11731 0)
(1.86596 1.94021 0)
(1.99206 1.80587 0)
(2.07621 1.79362 0)
(2.27656 1.50973 0)
(2.44556 1.46902 0)
(2.55727 1.17477 0)
(2.65504 1.06034 0)
(2.70269 0.81109 0)
(2.7226 0.756028 0)
(2.75221 0.677556 0)
(2.76159 0.622982 0)
(2.73721 0.571338 0)
(2.71395 0.517656 0)
(2.72495 0.526459 0)
(2.70245 0.386115 0)
(2.66451 0.175362 0)
(1.71533 1.70071 0)
(1.92228 1.85594 0)
(1.83006 2.21245 0)
(1.86879 2.21101 0)
(1.96228 2.02357 0)
(2.12079 1.86781 0)
(2.2371 1.8925 0)
(2.40413 1.62958 0)
(2.51803 1.64314 0)
(2.64018 1.39712 0)
(2.66202 1.41703 0)
(2.70822 1.22788 0)
(2.66915 1.18759 0)
(2.67606 1.11482 0)
(2.68156 0.994328 0)
(2.68444 0.886102 0)
(2.71636 0.819392 0)
(2.76386 0.684899 0)
(2.767 0.476468 0)
(2.7396 0.30893 0)
(1.58673 1.6568 0)
(1.98231 1.8549 0)
(1.99 2.21917 0)
(2.01082 2.25987 0)
(2.15618 2.20239 0)
(2.22995 2.17225 0)
(2.30555 2.00138 0)
(2.34614 1.84666 0)
(2.4237 1.78249 0)
(2.52795 1.67751 0)
(2.50811 1.65807 0)
(2.55137 1.53357 0)
(2.56003 1.39353 0)
(2.61239 1.3292 0)
(2.64808 1.17711 0)
(2.70614 1.03684 0)