/*--------------------------------*- C++ -*----------------------------------*\
  =========                 |
  \\      /  F ield         | OpenFOAM: The Open Source CFD Toolbox
   \\    /   O peration     | Website:  https://openfoam.org
    \\  /    A nd           | Version:  7
     \\/     M anipulation  |
\*---------------------------------------------------------------------------*/
FoamFile
{
    version     2.0;
    format      ascii;
    class       volScalarField;
    location    "7.5";
    object      p;
}
// * * * * * * * * * * * * * * * * * * * * * * * * * * * * * * * * * * * * * //

dimensions      [1 -1 -2 0 0 0 0];

internalField   nonuniform List<scalar> 
3700
(
0.170822
0.22037
0.262263
0.311411
0.305645
0.323452
0.337029
0.367226
0.421823
0.454396
0.479213
0.478918
0.476881
0.490427
0.502584
0.515551
0.510604
0.517916
0.528832
0.525785
0.130223
0.0981943
0.0999377
0.102224
0.0864538
0.08474
0.101029
0.134327
0.165729
0.179095
0.179408
0.166382
0.159367
0.167707
0.185847
0.200435
0.20527
0.209576
0.228851
0.228838
0.137993
0.0948698
0.0698092
0.0565746
0.0551238
0.058457
0.0585622
0.0650684
0.0695746
0.067678
0.0656606
0.0678714
0.0715669
0.0801935
0.0907878
0.102379
0.114035
0.123503
0.131725
0.135026
0.133815
0.0813247
0.0541181
0.0471528
0.0481228
0.0539737
0.0615217
0.0801076
0.0944398
0.101118
0.100841
0.102812
0.103387
0.105324
0.110105
0.120306
0.132769
0.148841
0.168024
0.191448
0.121886
0.0717314
0.0458613
0.0430865
0.0440637
0.0484457
0.0589999
0.0803718
0.0987628
0.115412
0.130559
0.137397
0.145395
0.148705
0.150288
0.147861
0.149329
0.1613
0.187104
0.231629
0.108024
0.0671574
0.0442697
0.0422753
0.0431937
0.0475476
0.0572009
0.0757362
0.0938972
0.116219
0.142211
0.157882
0.178405
0.196116
0.211369
0.217211
0.219232
0.222948
0.231765
0.275854
0.0946496
0.0623387
0.043871
0.0448172
0.0466372
0.0540107
0.0699805
0.0814955
0.0939148
0.112599
0.141484
0.164556
0.19685
0.227854
0.255359
0.284148
0.306478
0.330093
0.338744
0.379576
0.0798201
0.0531835
0.0413039
0.0475845
0.0548774
0.0766119
0.103058
0.118147
0.12976
0.142015
0.151334
0.172027
0.209415
0.251044
0.292042
0.339513
0.387557
0.438416
0.472143
0.54449
0.0630631
0.0418635
0.0349531
0.0432597
0.0591363
0.0882798
0.122803
0.152602
0.186639
0.217057
0.234684
0.257654
0.278447
0.313298
0.352201
0.403946
0.471655
0.553273
0.621006
0.752364
0.0479087
0.0321235
0.0280991
0.0391455
0.0604186
0.0895949
0.123756
0.158189
0.216119
0.276416
0.326493
0.373397
0.423962
0.475135
0.512345
0.558619
0.614831
0.702868
0.816515
0.968347
0.0360089
0.024248
0.0219637
0.0370908
0.0608861
0.0882174
0.115141
0.147774
0.216693
0.306545
0.390678
0.470259
0.563818
0.639974
0.718731
0.797798
0.875015
0.952138
1.13643
1.13383
0.0280115
0.0185765
0.0180712
0.0349788
0.0680794
0.117105
0.140952
0.182728
0.257141
0.35699
0.478169
0.594232
0.721843
0.828434
0.955438
1.0928
1.22654
1.33798
1.53909
1.49056
0.0221601
0.0158305
0.01643
0.0393158
0.0997884
0.193084
0.26087
0.372889
0.514505
0.654442
0.786491
0.905275
1.02608
1.13902
1.28319
1.47741
1.67832
1.86134
2.10354
2.08031
0.0162425
0.0144336
0.0192212
0.0739104
0.16693
0.287555
0.418559
0.594917
0.806197
1.02685
1.19911
1.35987
1.51675
1.673
1.86693
2.0954
2.33637
2.58824
2.80561
2.99387
0.0114146
0.0163007
0.0384188
0.133732
0.246758
0.370028
0.578822
0.836208
1.1454
1.45846
1.70103
1.93133
2.1574
2.40015
2.70317
2.99351
3.27308
3.52972
3.67179
3.78237
0.0104525
0.0308738
0.0812719
0.192006
0.363133
0.621452
0.979773
1.39816
1.88248
2.27789
2.56749
2.83604
3.10884
3.41553
3.74469
3.95516
4.08414
4.13335
4.04085
3.91392
0.0113846
0.062229
0.167613
0.33531
0.778172
1.44394
2.03169
2.6188
3.2128
3.59013
3.79503
4.01474
4.21714
4.38675
4.48206
4.40618
4.18669
3.64874
2.78742
1.8861
0.0413014
0.160159
0.500105
1.20012
2.11896
2.88422
3.5568
4.26464
4.80926
4.83389
4.73355
4.72937
4.68802
4.52727
4.02636
3.07401
2.09771
1.33414
1.01833
0.992911
0.300687
0.860891
1.96101
3.16145
4.23375
4.8865
5.43616
5.88037
5.7439
5.29945
4.86584
4.3193
3.39947
2.32954
1.42669
1.02916
0.989349
0.994919
0.997318
0.999442
2.31511
3.63516
4.87552
5.72981
6.29096
6.42954
6.56536
6.22479
4.53751
3.20981
2.37244
1.56824
1.08398
0.987597
0.993076
0.996376
0.999174
0.999972
1.00002
1.00001
6.94205
6.8959
6.83667
6.93194
7.07066
6.78458
5.98262
2.24332
0.664159
1
1
1
1
1
1
1
1
1
1
1
6.91088
6.86556
6.74966
6.70682
6.84633
5.78069
2.66453
1.02188
1
1
1
1
1
1
1
1
1
1
1
1
6.81281
6.85453
6.81492
6.64743
6.23898
3.46756
1.06278
0.998673
1
1
1
1
1
1
1
1
1
1
1
1
6.65782
6.82065
6.83355
6.66891
4.71508
1.42837
0.992935
1.00014
0.999999
1
1
1
1
1
1
1
1
1
1
1
6.51333
6.7531
6.78943
6.15481
2.62586
0.976468
1.00036
0.999994
1
1
1
1
1
1
1
1
1
1
1
1
6.44443
6.72203
6.69827
4.91189
1.47607
1
1
1
1
1
1
1
1
1
1
1
1
1
1
1
6.41448
6.77722
6.70653
3.59216
0.98441
1
1
1
1
1
1
1
1
1
1
1
1
1
1
1
6.53531
6.71619
6.08971
2.00844
0.999965
1
1
1
1
1
1
1
1
1
1
1
1
1
1
1
6.95528
6.5978
4.85239
1.22638
1
1
1
1
1
1
1
1
1
1
1
1
1
1
1
1
7.28065
6.40761
3.44297
0.98759
1
1
1
1
1
1
1
1
1
1
1
1
1
1
1
1
7.45853
5.99491
2.28075
1
1
1
1
1
1
1
1
1
1
1
1
1
1
1
1
1
7.51845
5.35584
1.59829
1
1
1
1
1
1
1
1
1
1
1
1
1
1
1
1
1
7.55057
4.74265
1.15936
1
1
1
1
1
1
1
1
1
1
1
1
1
1
1
1
1
7.34236
4.02216
1.00943
1
1
1
1
1
1
1
1
1
1
1
1
1
1
1
1
1
7.15515
3.2848
1
1
1
1
1
1
1
1
1
1
1
1
1
1
1
1
1
1
7.05829
2.48753
1
1
1
1
1
1
1
1
1
1
1
1
1
1
1
1
1
1
6.62723
1.84191
1
1
1
1
1
1
1
1
1
1
1
1
1
1
1
1
1
1
6.30501
1.35719
1
1
1
1
1
1
1
1
1
1
1
1
1
1
1
1
1
1
5.75635
1.00559
1
1
1
1
1
1
1
1
1
1
1
1
1
1
1
1
1
1
4.64026
1.0001
1
1
1
1
1
1
1
1
1
1
1
1
1
1
1
1
1
1
4.63466
1.00009
1
1
1
1
1
1
1
1
1
1
1
1
1
1
1
1
1
1
5.75466
1.00593
1
1
1
1
1
1
1
1
1
1
1
1
1
1
1
1
1
1
6.31751
1.36581
1
1
1
1
1
1
1
1
1
1
1
1
1
1
1
1
1
1
6.61204
1.84915
1
1
1
1
1
1
1
1
1
1
1
1
1
1
1
1
1
1
7.04548
2.47725
1
1
1
1
1
1
1
1
1
1
1
1
1
1
1
1
1
1
7.16979
3.26783
1
1
1
1
1
1
1
1
1
1
1
1
1
1
1
1
1
1
7.34168
4.03043
1.01426
1
1
1
1
1
1
1
1
1
1
1
1
1
1
1
1
1
7.54505
4.75161
1.16404
1
1
1
1
1
1
1
1
1
1
1
1
1
1
1
1
1
7.51454
5.36174
1.60003
1
1
1
1
1
1
1
1
1
1
1
1
1
1
1
1
1
7.4551
5.98171
2.28571
1
1
1
1
1
1
1
1
1
1
1
1
1
1
1
1
1
7.28643
6.41714
3.43148
0.987669
1
1
1
1
1
1
1
1
1
1
1
1
1
1
1
1
6.95821
6.59717
4.85389
1.227
1
1
1
1
1
1
1
1
1
1
1
1
1
1
1
1
6.52499
6.68826
6.06049
2.00915
0.999983
1
1
1
1
1
1
1
1
1
1
1
1
1
1
1
6.4245
6.79786
6.73285
3.58215
0.977888
1
1
1
1
1
1
1
1
1
1
1
1
1
1
1
6.45651
6.74041
6.71752
4.92193
1.49101
1
1
1
1
1
1
1
1
1
1
1
1
1
1
1
6.52193
6.74835
6.77903
6.12226
2.63445
0.976534
1.00035
0.999994
1
1
1
1
1
1
1
1
1
1
1
1
6.65536
6.80423
6.82485
6.67566
4.71087
1.41334
0.993218
1.00013
0.999999
1
1
1
1
1
1
1
1
1
1
1
6.8133
6.85299
6.82426
6.66857
6.23933
3.45355
1.05799
0.998713
1
1
1
1
1
1
1
1
1
1
1
1
6.9272
6.86795
6.75961
6.71909
6.81319
5.77066
2.68361
1.02573
1
1
1
1
1
1
1
1
1
1
1
1
6.93777
6.89213
6.83725
6.93008
7.0661
6.78365
5.98428
2.25098
0.664965
1
1
1
1
1
1
1
1
1
1
1
2.31137
3.62911
4.858
5.71498
6.29059
6.43417
6.56997
6.22572
4.5345
3.20628
2.3703
1.56674
1.08349
0.987551
0.993064
0.996395
0.999185
0.999973
1.00002
1.00001
0.30638
0.869108
1.98311
3.15831
4.21812
4.88084
5.43674
5.87915
5.74335
5.30155
4.87011
4.32382
3.40205
2.33018
1.42684
1.02925
0.989372
0.994926
0.997318
0.99944
0.0356331
0.168231
0.491579
1.20736
2.1227
2.88017
3.55062
4.2587
4.81166
4.83997
4.74587
4.72765
4.68637
4.52575
4.02404
3.0718
2.09689
1.33417
1.01839
0.992902
0.0059149
0.0410529
0.177198
0.349262
0.79428
1.44732
2.02739
2.61339
3.21098
3.59282
3.79962
4.01644
4.21658
4.38391
4.48075
4.40525
4.18631
3.64966
2.78923
1.88757
0.00782344
0.024367
0.0877728
0.185741
0.370895
0.631502
0.984185
1.39607
1.87955
2.27713
2.56816
2.83686
3.10851
3.41422
3.74246
3.95383
4.08467
4.13459
4.04237
3.91544
0.0120474
0.0150205
0.0466239
0.131643
0.249784
0.376222
0.58285
0.836981
1.14345
1.45773
1.70271
1.93364
2.15896
2.4005
2.70185
2.99163
3.27198
3.53047
3.67312
3.78294
0.0145304
0.013952
0.0243715
0.074449
0.166901
0.28762
0.419253
0.595774
0.805949
1.02652
1.19922
1.36001
1.51698
1.67307
1.8657
2.09283
2.33444
2.58849
2.80767
2.99574
0.0175831
0.01548
0.0201015
0.0399589
0.0938557
0.188779
0.258154
0.371833
0.514784
0.654047
0.785873
0.904963
1.02594
1.13876
1.28237
1.47556
1.6772
1.86159
2.1048
2.08141
0.0219298
0.0178396
0.0217434
0.0367182
0.0619966
0.112597
0.140206
0.182897
0.257508
0.358378
0.480638
0.59678
0.723367
0.82847
0.954435
1.09119
1.22558
1.33837
1.54069
1.49152
0.0286671
0.0221622
0.025633
0.0394661
0.0563486
0.0859208
0.114589
0.147445
0.217454
0.308494
0.392673
0.471853
0.564189
0.639415
0.71768
0.797224
0.875328
0.952994
1.13764
1.13572
0.0404272
0.0304736
0.0284818
0.040176
0.0568818
0.0879033
0.122818
0.158428
0.217018
0.277475
0.326753
0.373075
0.423079
0.474155
0.511345
0.558154
0.615336
0.703944
0.816487
0.969555
0.0562612
0.0413705
0.0324884
0.0409126
0.0566665
0.0874425
0.122233
0.153303
0.18741
0.21734
0.234213
0.256589
0.277307
0.312398
0.351947
0.404417
0.47242
0.554048
0.621043
0.751877
0.0734559
0.0559407
0.0389812
0.0430117
0.0529685
0.076726
0.10331
0.119585
0.130541
0.141712
0.150864
0.171617
0.209425
0.251317
0.292668
0.340291
0.388074
0.438345
0.472115
0.543209
0.0907903
0.0693757
0.0456812
0.0421134
0.0445598
0.0541324
0.070567
0.0820692
0.0941246
0.112508
0.141187
0.16456
0.197067
0.228072
0.255785
0.284593
0.306555
0.329115
0.338285
0.379693
0.109155
0.0755594
0.0502418
0.0412493
0.041674
0.0474178
0.0569064
0.0752708
0.0936892
0.116007
0.142393
0.158028
0.178282
0.196138
0.211705
0.216791
0.218459
0.222134
0.231661
0.27623
0.122909
0.0795002
0.0534814
0.0424709
0.0425476
0.048459
0.0584354
0.0796557
0.0985443
0.115384
0.130607
0.137607
0.145477
0.148334
0.149389
0.147247
0.149147
0.161586
0.18727
0.231451
0.131925
0.0876753
0.0609903
0.0479864
0.0475638
0.054117
0.0609542
0.0794048
0.0944492
0.102769
0.101021
0.102849
0.103737
0.105642
0.110157
0.120172
0.132552
0.148393
0.16746
0.191018
0.133037
0.0932364
0.0739837
0.0600341
0.0558357
0.0581575
0.0580901
0.0648656
0.0696851
0.0684078
0.0662385
0.0682011
0.0721571
0.0805837
0.0907245
0.101979
0.113351
0.122614
0.130855
0.134819
0.126394
0.103531
0.107548
0.10674
0.120539
0.14392
0.134238
0.123837
0.125877
0.127467
0.130725
0.139411
0.15205
0.156318
0.156044
0.165921
0.191054
0.21485
0.22388
0.2098
0.167272
0.235494
0.272755
0.299252
0.330695
0.380657
0.363539
0.357427
0.392939
0.430672
0.458976
0.470436
0.47769
0.482257
0.482324
0.503405
0.514718
0.522215
0.524092
0.519402
0.56115
0.637497
0.69573
0.811519
0.844227
0.857776
0.843643
0.837245
0.848664
0.897696
0.95701
0.970956
0.96158
0.935014
0.934929
0.955154
0.970283
0.969639
0.95812
0.949636
0.283312
0.422979
0.539035
0.662953
0.776252
0.856369
0.846844
0.845339
0.857026
0.89412
0.940494
0.956741
0.954072
0.936749
0.934328
0.948721
0.969979
0.973178
0.965576
0.953675
0.136832
0.166542
0.243688
0.317992
0.493237
0.708125
0.778158
0.85457
0.879388
0.896127
0.922871
0.937881
0.942676
0.944148
0.943768
0.947778
0.958274
0.962267
0.961796
0.96172
0.194209
0.214478
0.224679
0.235056
0.250135
0.334742
0.563875
0.753285
0.822999
0.877179
0.909842
0.917882
0.931411
0.949348
0.953923
0.95365
0.95404
0.953738
0.955878
0.963198
0.246803
0.264064
0.265214
0.274088
0.28948
0.293037
0.324309
0.439721
0.647192
0.807108
0.859848
0.894614
0.927428
0.958349
0.964323
0.959543
0.950859
0.944336
0.948461
0.961984
0.313982
0.3328
0.327018
0.315846
0.313169
0.321534
0.34323
0.345488
0.387522
0.506627
0.696636
0.818461
0.900783
0.95627
0.960332
0.956949
0.949538
0.943062
0.946774
0.963322
0.398278
0.415192
0.382121
0.350515
0.354304
0.365437
0.373101
0.385808
0.381822
0.379016
0.445046
0.644974
0.805198
0.947157
0.95271
0.95314
0.94447
0.935545
0.942752
0.96286
0.521181
0.514626
0.468149
0.408971
0.396687
0.401176
0.416754
0.42127
0.413797
0.402337
0.39482
0.440539
0.625304
0.834427
0.909432
0.945028
0.939381
0.933428
0.953926
0.964078
0.673451
0.631553
0.561701
0.468956
0.452198
0.452031
0.452983
0.449878
0.445358
0.434483
0.425305
0.411118
0.445104
0.608542
0.820913
0.935625
0.91753
0.931361
0.964742
0.964904
0.859643
0.773614
0.688758
0.582464
0.517148
0.498188
0.493109
0.489804
0.479952
0.468089
0.458131
0.438739
0.433404
0.454346
0.604082
0.831546
0.87936
0.93604
0.971945
0.961357
1.25953
0.944103
0.819646
0.746238
0.681835
0.58938
0.534579
0.536176
0.532428
0.522065
0.509481
0.492248
0.474154
0.462271
0.477005
0.570583
0.754874
0.894027
0.938547
0.951505
2.05028
1.4761
1.11916
0.975726
0.919875
0.818051
0.686481
0.630631
0.59537
0.565708
0.551229
0.542711
0.524098
0.515308
0.495472
0.492853
0.529801
0.642233
0.784746
0.908948
2.50385
2.16861
1.72809
1.31567
1.09068
0.97117
0.83513
0.755982
0.709985
0.653611
0.646809
0.633864
0.605271
0.577006
0.552886
0.525301
0.527092
0.534889
0.575977
0.74576
2.36882
2.3487
2.23391
1.93704
1.53788
1.27155
1.07505
0.95232
0.895427
0.818094
0.761961
0.712011
0.655283
0.609437
0.600302
0.588679
0.57157
0.557279
0.54729
0.580261
1.6818
2.15343
2.22071
2.19209
2.04813
1.77201
1.49914
1.24235
1.08254
0.952519
0.855192
0.804089
0.742567
0.695653
0.688824
0.675485
0.65241
0.622087
0.578039
0.572985
1.10771
1.43791
1.85149
2.11435
2.11108
2.06978
1.93943
1.69425
1.43708
1.233
1.06143
0.984318
0.923591
0.857323
0.79908
0.739437
0.69156
0.658239
0.632843
0.609705
1.00449
1.04421
1.20666
1.5509
1.85672
2.01905
2.01753
1.9758
1.83545
1.63196
1.39857
1.20485
1.08089
0.974917
0.895125
0.82948
0.767045
0.730024
0.725894
0.69875
1.00009
1.00113
1.01047
1.07914
1.26713
1.57117
1.82449
1.93609
1.9286
1.88661
1.76855
1.57755
1.38471
1.2101
1.08635
1.02073
0.946013
0.875433
0.825234
0.759321
1
1.00001
1.00015
1.00249
1.01908
1.09829
1.29069
1.55846
1.77044
1.85693
1.85055
1.8138
1.71636
1.55603
1.37617
1.2267
1.10803
1.00155
0.917249
0.82654
1
1
1
1.00003
1.00033
1.00372
1.02489
1.10911
1.28757
1.51959
1.70669
1.78811
1.78372
1.75634
1.67872
1.53709
1.38116
1.23442
1.12614
0.996382
1
1
1
1
1
1.00004
1.00051
1.00474
1.02668
1.10616
1.26498
1.47396
1.63628
1.72784
1.72477
1.70404
1.6453
1.53083
1.39831
1.19573
1
1
1
1
1
1
1
1.00006
1.00057
1.005
1.02448
1.09607
1.23234
1.42763
1.56814
1.66463
1.6655
1.65461
1.61848
1.46561
1
1
1
1
1
1
1
1
1.00001
1.00007
1.00053
1.00451
1.0218
1.07877
1.19903
1.37066
1.51405
1.59666
1.6126
1.5908
1
1
1
1
1
1
1
1
1
1
1.00001
1.00006
1.0005
1.00325
1.01857
1.06298
1.16297
1.31533
1.4455
1.5489
1
1
1
1
1
1
1
1
1
1
1
1
1
1.00004
1.00043
1.00252
1.01401
1.05169
1.13711
1.38839
1.62358
2.46136
2.58572
2.08587
1.30981
1.03699
1.00189
1.00005
1
1
1
1
1
1
1
2.33825
2.81607
2.52763
1.54165
1.04825
1.0008
1
1
1
1
1
1
1
1
1
2.92981
2.86924
1.98198
1.15253
1.0052
1.00005
1
1
1
1
1
1
1
1
1
3.24821
2.55357
1.36439
1.01934
1.00019
1
1
1
1
1
1
1
1
1
1
3.31824
1.684
1.04752
1.00053
1
1
1
1
1
1
1
1
1
1
1
2.06818
1.07319
1.00047
0.999999
1
1
1
1
1
1
1
1
1
1
1
1.1016
1.00057
0.999997
1
1
1
1
1
1
1
1
1
1
1
1
0.998142
0.999864
0.999996
1
1
1
1
1
1
1
1
1
1
1
1
0.999967
1
1
1
1
1
1
1
1
1
1
1
1
1
1
1
1
1
1
1
1
1
1
1
1
1
1
1
1
1
1
1
1
1
1
1
1
1
1
1
1
1
1
1
1
1
1
1
1
1
1
1
1
1
1
1
1
1
1
1
1
1
1
1
1
1
1
1
1
1
1
1
1
1
1
1
1
1
1
1
1
1
1
1
1
1
1
1
1
1
1
1
1
1
1
1
1
1
1
1
1
1
1
1
1
1
1
1
1
1
1
1
1
1
1
1
1
1
1
1
1
1
1
1
1
1
1
1
1
1
1
1
1
1
1
1
1
1
1
1
1
1
1
1
1
1
1
1
1
1
1
1
1
1
1
1
1
1
1
1
1
1
1
1
1
1
1
1
1
1
1
1
1
1
1
1
1
1
1
1
1
1
1
1
1
1
1
1
1
1
1
1
1
1
1
1
1
1
1
1
1
1
1
1
1
1
1
1
1
1
1
1
1
1
1
1
1
1
1
1
1
1
1
1
1
1
1
1
1
1
1
1
1
1
1
1
1
1
1
1
1
1
1
1
1
1
1
1
1
1
1
1
1
1
1
1
1
1
1
1
1
1
1
1
1
1
1
1
1
1
1
1
1
1
1
1
1
1
1
1
1
1
1
1
1
1
1
1
1
1
1
1
1
1
1
1
1
1
1
1
1
1
1
1
1
1
1
1
1
1
1
1
1
1
1
1
1
1
1
1
1
1
1
1
1
1
1
1
1
1
1
1
1
1
1
1
1
1
1
1
1
1
1
1
1
1
1
1
1
1
1
1
1
1
1
1
1
1
1
1
1
1
1
1
1
1
1
1
1
1
1
1
1
1
1
1
1
1
1
1
1
1
1
1
1
1
1
1
1
1
1
1
1
1
1
1
1
1
1
1
1
1
1
1
1
1
1
1
1
1
1
1
1
1
1
1
1
1
1
1
1
1
1
1
1
1
1
1
1
1
1
1
1
1
1
1
1
1
1
1
1
1
1
1
1
1
1
1
1
1
1
1
1
1
1
1
1
1
1
1
1
1
1
1
1
1
1
1
1
1
1
1
1
1
1
1
1
1
1
1
1
1
1
1
1
1
1
1
1
1
1
1
1
1
1
1
1
1
1
1
1
1
1
1
1
1
1
1
1
1
1
1
1
1
1
1
1
1
1
1
1
1
1
1
1
1
1
1
1
1
1
1
1
1
1
1
1
1
1
1
1
1
1
1
1
1
1
1
1
1
1
1
1
1
1
1
1
1
1
1
1
1
1
1
1
1
1
1
1
1
1
1
1
1
1
1
1
1
1
1
1
1
1
1
1
1
1
1
1
1
1
1
1
1
1
1
1
1
1
1
1
1
1
1
1
1
1
1
1
1
1
1
1
1
1
1
1
1
1
1
1
1
1
1
1
1
1
1
1
1
1
1
1
1
1
1
1
1
1
1
1
1
1
1
1
1
1
1
1
1
1
1
1
1
1
1
1
1
1
1
1
1
1
1
1
1
1
1
1
1
1
1
1
1
1
1
1
1
1
1
1
1
1
1
1
1
1
1
1
1
1
1
1
1
1
1
1
1
1
1
1
1
1
1
1
1
1
1
1
1
1
1
1
1
1
1
1
1
1
1
1
1
1
1
1
1
1
1
1
1
1
1
1
1
1
1
1
1
1
1
1
1
1
1
1
1
1
1
1
1
1
1
1
1
1
1
1
1
1
1
1
1
1
1
1
1
1
1
1
1
1
1
1
1
1
1
1
1
1
1
1
1
1
1
1
1
1
1
1
1
1
1
1
1
1
1
1
1
1
1
1
1
1
1
1
1
1
1
1
1
1
1
1
1
1
1
1
1
1
1
1
1
1
1
1
1
1
1
1
1
1
1
1
1
1
1
1
1
1
1
1
1
1
1
1
0.999967
1
1
1
1
1
1
1
1
1
1
1
1
1
1
0.99814
0.999864
0.999996
1
1
1
1
1
1
1
1
1
1
1
1
1.1018
1.00057
0.999997
1
1
1
1
1
1
1
1
1
1
1
1
2.0685
1.07315
1.00047
0.999999
1
1
1
1
1
1
1
1
1
1
1
3.31821
1.6839
1.04752
1.00053
1
1
1
1
1
1
1
1
1
1
1
3.24806
2.55302
1.36428
1.01937
1.00019
1
1
1
1
1
1
1
1
1
1
2.93029
2.86873
1.98199
1.15251
1.00519
1.00005
1
1
1
1
1
1
1
1
1
2.33698
2.81564
2.52706
1.54188
1.04833
1.0008
1
1
1
1
1
1
1
1
1
1.62662
2.4614
2.58498
2.08552
1.30981
1.03699
1.00188
1.00005
1
1
1
1
1
1
1
1.24241
2.04841
2.50694
2.36946
1.68234
1.10772
1.00449
1.00009
1
1
1
1
1
1
1
0.956168
1.47688
2.16165
2.34895
2.15143
1.43737
1.04422
1.00113
1.00001
1
1
1
1
1
1
0.825932
1.12553
1.72726
2.23246
2.22078
1.85118
1.20644
1.01046
1.00015
1
1
1
1
1
1
0.738437
0.974666
1.32858
1.93671
2.19285
2.1147
1.55024
1.07888
1.00248
1.00003
1
1
1
1
1
0.672685
0.910619
1.08579
1.54321
2.052
2.11153
1.85673
1.26687
1.01902
1.00033
1
1
1
1
1
0.589485
0.816538
0.96616
1.26574
1.77148
2.07155
2.01999
1.57116
1.09839
1.00372
1.00004
1
1
1
1
0.534515
0.683728
0.838858
1.08772
1.49762
1.93811
2.01792
1.82426
1.29059
1.02492
1.00051
1
1
1
1
0.532099
0.624685
0.748397
0.962993
1.25592
1.69246
1.97571
1.93618
1.55824
1.10903
1.00473
1.00006
1
1
1
0.532505
0.595807
0.687296
0.878877
1.08759
1.44518
1.83735
1.92889
1.77081
1.28747
1.02671
1.00058
1.00001
1
1
0.5246
0.573947
0.662186
0.811048
0.940609
1.2337
1.63243
1.88723
1.85697
1.52007
1.10613
1.00495
1.00007
1
1
0.506072
0.55877
0.662169
0.767701
0.852382
1.06107
1.39509
1.76781
1.85039
1.70593
1.26482
1.0247
1.00054
1.00001
1
0.48411
0.543795
0.643776
0.715948
0.80333
0.986484
1.20855
1.57743
1.81321
1.7878
1.47455
1.09579
1.00445
1.00006
1
0.469669
0.528119
0.608721
0.654493
0.740103
0.923922
1.08144
1.38179
1.71655
1.78366
1.63662
1.2327
1.02183
1.0005
1
0.458299
0.517798
0.579225
0.6115
0.69407
0.852974
0.976625
1.21336
1.55539
1.75633
1.72734
1.4271
1.07906
1.00326
1.00004
0.473347
0.493059
0.552135
0.596805
0.691995
0.794199
0.893783
1.09241
1.3772
1.67799
1.72439
1.56842
1.1986
1.01851
1.00043
0.564981
0.48983
0.520848
0.586245
0.68013
0.739383
0.824239
1.01565
1.22653
1.53755
1.70388
1.6655
1.37019
1.06275
1.0025
0.750925
0.52463
0.523337
0.574109
0.654977
0.693526
0.764909
0.93886
1.10548
1.3821
1.64489
1.66545
1.51419
1.1632
1.01405
0.891947
0.638765
0.533278
0.561938
0.622816
0.658771
0.732174
0.877174
1.00054
1.23174
1.52976
1.65402
1.59692
1.31539
1.05174
0.936412
0.785459
0.57658
0.548022
0.573719
0.632714
0.726847
0.829332
0.920943
1.12402
1.39709
1.61754
1.61237
1.44535
1.13697
0.951549
0.909691
0.747654
0.580731
0.573239
0.611317
0.69673
0.760958
0.830459
0.99795
1.19605
1.46526
1.5907
1.54895
1.38818
0.859839
0.775223
0.688091
0.580921
0.521997
0.50156
0.494306
0.492512
0.482292
0.466077
0.448752
0.428183
0.42952
0.456141
0.606647
0.828017
0.881396
0.93684
0.972135
0.961466
0.677073
0.633231
0.559435
0.467554
0.454932
0.45506
0.455626
0.456379
0.451687
0.434097
0.415609
0.406983
0.442067
0.614728
0.811508
0.935491
0.916524
0.929979
0.963917
0.964693
0.523732
0.515752
0.466332
0.408375
0.396562
0.402116
0.415201
0.42204
0.416268
0.400372
0.391635
0.436756
0.621454
0.819889
0.916692
0.954156
0.947173
0.935759
0.954447
0.964055
0.399753
0.414792
0.383462
0.353326
0.356359
0.367526
0.379791
0.392037
0.389389
0.381132
0.4473
0.644503
0.804869
0.934554
0.961507
0.963909
0.955525
0.939415
0.944426
0.961581
0.313575
0.332509
0.323363
0.313951
0.312786
0.321515
0.343346
0.347006
0.389036
0.509086
0.694679
0.822514
0.897898
0.951437
0.965262
0.965912
0.957553
0.943368
0.945041
0.960275
0.24642
0.259612
0.272181
0.282042
0.294169
0.295555
0.316883
0.424379
0.645067
0.806782
0.86109
0.896947
0.922377
0.957024
0.965638
0.962963
0.953808
0.943928
0.947465
0.96096
0.19399
0.213792
0.223933
0.232144
0.256079
0.33393
0.536638
0.74781
0.826202
0.878906
0.905957
0.920096
0.92891
0.947768
0.953211
0.950523
0.949339
0.949969
0.953874
0.962823
0.137415
0.159803
0.237355
0.34054
0.532268
0.699509
0.769476
0.852004
0.883942
0.900097
0.921535
0.940352
0.941426
0.941783
0.940492
0.942044
0.947409
0.955104
0.957329
0.961573
0.289306
0.409994
0.540686
0.68991
0.787805
0.844907
0.847025
0.849896
0.865244
0.902717
0.942094
0.959961
0.956246
0.937805
0.93121
0.938176
0.956226
0.964938
0.963152
0.958463
0.565273
0.632639
0.696768
0.819863
0.845607
0.870531
0.850593
0.840212
0.853568
0.898433
0.946047
0.958112
0.950677
0.93387
0.93288
0.950193
0.971497
0.974896
0.965434
0.951905
)
;

boundaryField
{
    inlet
    {
        type            fixedValue;
        value           uniform 1;
    }
    outlet
    {
        type            zeroGradient;
    }
    airfoil
    {
        type            zeroGradient;
    }
    top
    {
        type            symmetryPlane;
    }
    bottom
    {
        type            symmetryPlane;
    }
    defaultFaces
    {
        type            empty;
    }
}


// ************************************************************************* //
