/*--------------------------------*- C++ -*----------------------------------*\
  =========                 |
  \\      /  F ield         | OpenFOAM: The Open Source CFD Toolbox
   \\    /   O peration     | Website:  https://openfoam.org
    \\  /    A nd           | Version:  7
     \\/     M anipulation  |
\*---------------------------------------------------------------------------*/
FoamFile
{
    version     2.0;
    format      ascii;
    class       volScalarField;
    location    "7.5";
    object      T;
}
// * * * * * * * * * * * * * * * * * * * * * * * * * * * * * * * * * * * * * //

dimensions      [0 0 0 1 0 0 0];

internalField   nonuniform List<scalar> 
3700
(
100.611
100.736
100.81
100.841
100.798
100.802
100.903
101.073
101.175
101.179
101.174
101.153
101.118
101.117
101.13
101.127
101.109
101.095
101.085
101.075
100.239
100.178
100.234
100.297
100.183
100.171
100.382
100.634
100.732
100.741
100.722
100.644
100.532
100.531
100.562
100.556
100.501
100.469
100.499
100.5
100.295
100.182
100.099
100.034
100.021
100.017
99.9957
100.003
99.9928
99.9571
99.9291
99.9283
99.9392
99.9685
99.9992
100.024
100.036
100.043
100.05
100.045
100.333
100.182
100.035
99.973
99.9758
99.9975
100.018
100.068
100.081
100.073
100.049
100.026
100
99.9863
99.9924
100.023
100.043
100.061
100.081
100.105
100.338
100.143
99.953
99.9105
99.9115
99.9306
99.9891
100.068
100.1
100.115
100.126
100.118
100.113
100.097
100.076
100.05
100.041
100.055
100.09
100.138
100.306
100.101
99.9174
99.8835
99.8802
99.9047
99.9608
100.026
100.066
100.114
100.142
100.147
100.165
100.167
100.163
100.153
100.136
100.124
100.12
100.154
100.238
100.055
99.8964
99.8779
99.8689
99.8999
99.9644
100.015
100.045
100.087
100.122
100.144
100.174
100.195
100.206
100.217
100.219
100.22
100.217
100.232
100.165
99.9932
99.8682
99.8912
99.9105
99.9904
100.048
100.065
100.074
100.099
100.112
100.131
100.164
100.197
100.224
100.25
100.272
100.285
100.292
100.322
100.093
99.919
99.8194
99.8813
99.9538
100.063
100.127
100.153
100.176
100.197
100.198
100.205
100.209
100.222
100.243
100.271
100.305
100.336
100.352
100.394
100.026
99.8454
99.7549
99.8665
99.9755
100.099
100.154
100.183
100.23
100.268
100.289
100.3
100.318
100.329
100.337
100.346
100.36
100.384
100.414
100.453
99.9581
99.7746
99.6993
99.8702
100.033
100.149
100.159
100.182
100.245
100.301
100.335
100.358
100.384
100.396
100.412
100.428
100.445
100.46
100.496
100.493
99.8817
99.6986
99.6747
99.8863
100.154
100.247
100.235
100.265
100.307
100.338
100.373
100.403
100.431
100.447
100.471
100.497
100.522
100.543
100.578
100.566
99.7912
99.6338
99.6774
99.9572
100.239
100.319
100.336
100.391
100.436
100.473
100.49
100.5
100.507
100.515
100.532
100.563
100.597
100.626
100.658
100.654
99.6785
99.5975
99.8054
100.08
100.291
100.379
100.427
100.479
100.525
100.56
100.574
100.587
100.598
100.61
100.63
100.655
100.682
100.709
100.727
100.735
99.5502
99.6069
99.9279
100.199
100.336
100.41
100.489
100.545
100.592
100.623
100.64
100.658
100.676
100.699
100.728
100.753
100.773
100.785
100.781
100.775
99.4958
99.6928
100.023
100.269
100.416
100.523
100.591
100.643
100.688
100.709
100.724
100.743
100.765
100.791
100.811
100.823
100.821
100.815
100.79
100.746
99.4794
99.8671
100.203
100.391
100.575
100.693
100.739
100.773
100.796
100.81
100.821
100.836
100.852
100.856
100.855
100.843
100.792
100.678
100.516
100.277
99.5696
100.118
100.46
100.665
100.773
100.813
100.839
100.863
100.875
100.881
100.882
100.883
100.881
100.858
100.771
100.622
100.36
100.102
100.006
99.9978
100.127
100.529
100.736
100.836
100.889
100.908
100.921
100.92
100.916
100.907
100.895
100.842
100.728
100.471
100.147
100.01
99.9966
99.9985
99.9992
99.9998
100.696
100.836
100.912
100.951
100.964
100.955
100.952
100.926
100.843
100.765
100.58
100.237
100.031
99.9958
99.9978
99.9989
99.9998
100
100
100
100.997
100.995
100.991
100.991
100.985
100.952
100.877
100.436
99.8566
100
100
100
100
100
100
100
100
100
100
100
100.994
100.992
100.985
100.975
100.963
100.871
100.506
100.017
100
100
100
100
100
100
100
100
100
100
100
100
100.989
100.99
100.985
100.965
100.917
100.649
100.049
99.9991
100
100
100
100
100
100
100
100
100
100
100
100
100.984
100.989
100.984
100.954
100.783
100.233
99.9963
100
100
100
100
100
100
100
100
100
100
100
100
100
100.98
100.988
100.982
100.918
100.547
99.9924
100
100
100
100
100
100
100
100
100
100
100
100
100
100
100.978
100.987
100.98
100.834
100.281
100
100
100
100
100
100
100
100
100
100
100
100
100
100
100
100.978
100.99
100.978
100.707
99.9991
100
100
100
100
100
100
100
100
100
100
100
100
100
100
100
100.983
100.981
100.923
100.457
99.9982
100
100
100
100
100
100
100
100
100
100
100
100
100
100
100
101
100.963
100.817
100.161
100
100
100
100
100
100
100
100
100
100
100
100
100
100
100
100
101.014
100.942
100.676
99.9964
100
100
100
100
100
100
100
100
100
100
100
100
100
100
100
100
101.023
100.902
100.5
100
100
100
100
100
100
100
100
100
100
100
100
100
100
100
100
100
101.029
100.848
100.315
100
100
100
100
100
100
100
100
100
100
100
100
100
100
100
100
100
101.034
100.796
100.11
100
100
100
100
100
100
100
100
100
100
100
100
100
100
100
100
100
101.033
100.741
100.008
100
100
100
100
100
100
100
100
100
100
100
100
100
100
100
100
100
101.01
100.683
100
100
100
100
100
100
100
100
100
100
100
100
100
100
100
100
100
100
100.986
100.563
100
100
100
100
100
100
100
100
100
100
100
100
100
100
100
100
100
100
100.944
100.417
100
100
100
100
100
100
100
100
100
100
100
100
100
100
100
100
100
100
100.909
100.232
100
100
100
100
100
100
100
100
100
100
100
100
100
100
100
100
100
100
100.868
100.005
100
100
100
100
100
100
100
100
100
100
100
100
100
100
100
100
100
100
100.81
100
100
100
100
100
100
100
100
100
100
100
100
100
100
100
100
100
100
100
100.809
100
100
100
100
100
100
100
100
100
100
100
100
100
100
100
100
100
100
100
100.868
100.005
100
100
100
100
100
100
100
100
100
100
100
100
100
100
100
100
100
100
100.912
100.237
100
100
100
100
100
100
100
100
100
100
100
100
100
100
100
100
100
100
100.945
100.42
100
100
100
100
100
100
100
100
100
100
100
100
100
100
100
100
100
100
100.985
100.561
100
100
100
100
100
100
100
100
100
100
100
100
100
100
100
100
100
100
101.009
100.679
100
100
100
100
100
100
100
100
100
100
100
100
100
100
100
100
100
100
101.033
100.743
100.011
100
100
100
100
100
100
100
100
100
100
100
100
100
100
100
100
100
101.034
100.798
100.113
100
100
100
100
100
100
100
100
100
100
100
100
100
100
100
100
100
101.03
100.85
100.316
100
100
100
100
100
100
100
100
100
100
100
100
100
100
100
100
100
101.024
100.902
100.5
100
100
100
100
100
100
100
100
100
100
100
100
100
100
100
100
100
101.014
100.942
100.674
99.9964
100
100
100
100
100
100
100
100
100
100
100
100
100
100
100
100
101
100.963
100.817
100.161
100
100
100
100
100
100
100
100
100
100
100
100
100
100
100
100
100.982
100.978
100.92
100.458
99.9992
100
100
100
100
100
100
100
100
100
100
100
100
100
100
100
100.978
100.99
100.979
100.702
99.9942
100
100
100
100
100
100
100
100
100
100
100
100
100
100
100
100.979
100.988
100.981
100.836
100.287
100
100
100
100
100
100
100
100
100
100
100
100
100
100
100
100.981
100.988
100.983
100.92
100.552
99.9924
100
100
100
100
100
100
100
100
100
100
100
100
100
100
100.985
100.989
100.984
100.954
100.781
100.227
99.9964
100
100
100
100
100
100
100
100
100
100
100
100
100
100.989
100.99
100.985
100.965
100.913
100.643
100.046
99.9991
100
100
100
100
100
100
100
100
100
100
100
100
100.994
100.991
100.984
100.974
100.961
100.87
100.511
100.019
100
100
100
100
100
100
100
100
100
100
100
100
100.997
100.994
100.99
100.99
100.985
100.953
100.879
100.439
99.8555
100
100
100
100
100
100
100
100
100
100
100
100.695
100.836
100.911
100.95
100.965
100.957
100.954
100.927
100.843
100.764
100.579
100.236
100.031
99.9958
99.9978
99.9989
99.9998
100
100
100
100.121
100.524
100.737
100.835
100.888
100.908
100.922
100.921
100.916
100.907
100.895
100.842
100.728
100.472
100.148
100.01
99.9967
99.9985
99.9992
99.9998
99.5496
100.145
100.453
100.663
100.771
100.811
100.839
100.862
100.875
100.881
100.882
100.883
100.881
100.858
100.771
100.622
100.36
100.102
100.006
99.9978
99.3189
99.8847
100.225
100.404
100.577
100.69
100.737
100.772
100.795
100.809
100.82
100.835
100.852
100.856
100.855
100.843
100.791
100.678
100.516
100.277
99.4383
99.8027
100.053
100.27
100.424
100.524
100.589
100.641
100.687
100.708
100.723
100.742
100.765
100.791
100.811
100.822
100.821
100.815
100.791
100.746
99.512
99.6858
99.9812
100.212
100.344
100.412
100.487
100.542
100.59
100.622
100.639
100.658
100.677
100.7
100.728
100.753
100.772
100.785
100.781
100.775
99.561
99.6021
99.8891
100.101
100.288
100.373
100.424
100.477
100.524
100.559
100.574
100.588
100.598
100.611
100.63
100.655
100.682
100.709
100.727
100.735
99.6128
99.5971
99.7569
99.9762
100.218
100.308
100.33
100.39
100.437
100.474
100.49
100.501
100.508
100.516
100.532
100.562
100.596
100.625
100.658
100.654
99.6696
99.6134
99.737
99.9111
100.134
100.236
100.232
100.268
100.312
100.342
100.377
100.406
100.433
100.448
100.471
100.496
100.522
100.543
100.579
100.567
99.7393
99.6653
99.7464
99.8878
100.022
100.144
100.161
100.186
100.251
100.305
100.339
100.36
100.385
100.395
100.411
100.427
100.445
100.46
100.497
100.494
99.837
99.7631
99.7592
99.8651
99.9664
100.096
100.154
100.186
100.234
100.271
100.291
100.301
100.317
100.327
100.335
100.345
100.359
100.385
100.414
100.453
99.9461
99.8642
99.793
99.8584
99.9439
100.062
100.126
100.155
100.176
100.196
100.197
100.203
100.207
100.219
100.241
100.27
100.305
100.336
100.352
100.394
100.052
99.9693
99.8462
99.8559
99.8965
99.9887
100.046
100.066
100.074
100.097
100.111
100.129
100.162
100.195
100.222
100.249
100.271
100.285
100.291
100.32
100.173
100.065
99.9011
99.8564
99.8538
99.8955
99.9617
100.014
100.045
100.087
100.121
100.143
100.172
100.193
100.204
100.216
100.218
100.218
100.216
100.231
100.307
100.135
99.9483
99.8638
99.864
99.8997
99.9583
100.025
100.066
100.115
100.142
100.146
100.162
100.164
100.161
100.152
100.134
100.122
100.119
100.153
100.364
100.184
99.9947
99.8964
99.8955
99.9281
99.9873
100.069
100.102
100.117
100.125
100.117
100.111
100.094
100.072
100.047
100.04
100.054
100.09
100.137
100.363
100.213
100.064
99.9726
99.9742
100.003
100.019
100.07
100.084
100.077
100.047
100.024
99.9986
99.9844
99.9902
100.021
100.041
100.06
100.08
100.104
100.328
100.206
100.115
100.049
100.028
100.017
99.9963
100.005
99.9925
99.9566
99.9253
99.9239
99.9367
99.9662
99.9967
100.022
100.034
100.041
100.048
100.044
100.292
100.253
100.278
100.281
100.448
100.608
100.567
100.499
100.497
100.511
100.512
100.544
100.569
100.52
100.413
100.404
100.442
100.492
100.494
100.446
100.683
100.839
100.834
100.822
100.877
100.963
100.978
101.018
101.108
101.146
101.148
101.144
101.132
101.116
101.09
101.085
101.09
101.09
101.083
101.067
101.046
101.034
101.013
100.986
100.954
100.938
100.921
100.897
100.877
100.877
100.879
100.874
100.86
100.84
100.831
100.829
100.826
100.819
100.811
100.801
100.564
100.667
100.721
100.716
100.734
100.781
100.814
100.817
100.808
100.804
100.806
100.807
100.804
100.795
100.791
100.791
100.791
100.79
100.787
100.78
100.027
100.087
100.194
100.258
100.38
100.503
100.59
100.653
100.656
100.655
100.663
100.676
100.686
100.695
100.7
100.702
100.707
100.713
100.719
100.721
100.086
100.082
100.085
100.088
100.097
100.195
100.375
100.47
100.503
100.523
100.54
100.557
100.572
100.586
100.594
100.6
100.606
100.616
100.625
100.635
100.14
100.139
100.124
100.122
100.127
100.131
100.17
100.27
100.39
100.445
100.461
100.481
100.504
100.517
100.522
100.524
100.528
100.535
100.543
100.554
100.188
100.189
100.173
100.154
100.15
100.157
100.171
100.177
100.217
100.298
100.381
100.425
100.459
100.482
100.483
100.482
100.483
100.486
100.49
100.498
100.239
100.24
100.21
100.183
100.186
100.193
100.197
100.204
100.201
100.194
100.238
100.343
100.406
100.458
100.459
100.458
100.456
100.455
100.458
100.465
100.303
100.293
100.264
100.233
100.22
100.219
100.223
100.222
100.215
100.204
100.188
100.213
100.316
100.402
100.427
100.44
100.438
100.436
100.443
100.446
100.364
100.348
100.317
100.277
100.262
100.25
100.242
100.234
100.228
100.219
100.205
100.182
100.199
100.288
100.379
100.421
100.415
100.421
100.431
100.43
100.429
100.405
100.373
100.332
100.299
100.275
100.259
100.251
100.242
100.231
100.218
100.195
100.182
100.186
100.272
100.369
100.387
100.407
100.417
100.413
100.531
100.45
100.407
100.381
100.357
100.311
100.27
100.265
100.257
100.246
100.233
100.216
100.196
100.176
100.18
100.23
100.315
100.365
100.374
100.378
100.62
100.544
100.47
100.425
100.406
100.375
100.326
100.292
100.266
100.246
100.235
100.225
100.205
100.187
100.168
100.156
100.172
100.224
100.276
100.319
100.609
100.587
100.542
100.471
100.421
100.389
100.35
100.318
100.293
100.267
100.256
100.242
100.219
100.195
100.173
100.152
100.142
100.132
100.145
100.22
100.488
100.547
100.54
100.517
100.467
100.419
100.376
100.342
100.32
100.291
100.265
100.239
100.211
100.185
100.17
100.153
100.133
100.116
100.101
100.107
100.25
100.377
100.446
100.483
100.473
100.447
100.41
100.363
100.327
100.29
100.257
100.235
100.211
100.189
100.176
100.16
100.14
100.117
100.093
100.073
100.043
100.145
100.255
100.337
100.388
100.414
100.406
100.381
100.344
100.305
100.266
100.243
100.223
100.199
100.173
100.146
100.12
100.099
100.083
100.062
100.002
100.015
100.066
100.156
100.233
100.289
100.33
100.349
100.339
100.317
100.282
100.244
100.215
100.186
100.161
100.138
100.113
100.095
100.087
100.067
100
100
100.003
100.025
100.078
100.148
100.208
100.25
100.279
100.291
100.282
100.259
100.228
100.195
100.167
100.15
100.128
100.105
100.084
100.055
100
100
100
100.001
100.006
100.03
100.081
100.14
100.188
100.217
100.24
100.244
100.236
100.216
100.186
100.158
100.131
100.103
100.078
100.047
100
100
100
100
100
100.001
100.008
100.033
100.079
100.128
100.169
100.192
100.21
100.209
100.202
100.183
100.156
100.126
100.101
100.068
100
100
100
100
100
100
100
100.001
100.008
100.032
100.073
100.117
100.154
100.174
100.186
100.184
100.178
100.161
100.137
100.098
100
100
100
100
100
100
100
100
100
100.002
100.008
100.029
100.065
100.108
100.139
100.159
100.168
100.167
100.162
100.139
100
100
100
100
100
100
100
100
100
100
100
100.001
100.007
100.024
100.057
100.097
100.128
100.145
100.154
100.151
100
100
100
100
100
100
100
100
100
100
100
100
100
100.001
100.006
100.019
100.048
100.085
100.113
100.137
100
100
100
100
100
100
100
100
100
100
100
100
100
100
100
100.001
100.004
100.016
100.041
100.105
100.596
100.653
100.61
100.416
100.142
100.017
100.001
100
100
100
100
100
100
100
100
100.67
100.662
100.519
100.218
100.022
100
100
100
100
100
100
100
100
100
100
100.704
100.636
100.374
100.074
100.002
100
100
100
100
100
100
100
100
100
100
100.719
100.518
100.167
100.009
100
100
100
100
100
100
100
100
100
100
100
100.65
100.283
100.025
100
100
100
100
100
100
100
100
100
100
100
100
100.395
100.038
100
100
100
100
100
100
100
100
100
100
100
100
100
100.042
100
100
100
100
100
100
100
100
100
100
100
100
100
100
99.9995
100
100
100
100
100
100
100
100
100
100
100
100
100
100
100
100
100
100
100
100
100
100
100
100
100
100
100
100
100
100
100
100
100
100
100
100
100
100
100
100
100
100
100
100
100
100
100
100
100
100
100
100
100
100
100
100
100
100
100
100
100
100
100
100
100
100
100
100
100
100
100
100
100
100
100
100
100
100
100
100
100
100
100
100
100
100
100
100
100
100
100
100
100
100
100
100
100
100
100
100
100
100
100
100
100
100
100
100
100
100
100
100
100
100
100
100
100
100
100
100
100
100
100
100
100
100
100
100
100
100
100
100
100
100
100
100
100
100
100
100
100
100
100
100
100
100
100
100
100
100
100
100
100
100
100
100
100
100
100
100
100
100
100
100
100
100
100
100
100
100
100
100
100
100
100
100
100
100
100
100
100
100
100
100
100
100
100
100
100
100
100
100
100
100
100
100
100
100
100
100
100
100
100
100
100
100
100
100
100
100
100
100
100
100
100
100
100
100
100
100
100
100
100
100
100
100
100
100
100
100
100
100
100
100
100
100
100
100
100
100
100
100
100
100
100
100
100
100
100
100
100
100
100
100
100
100
100
100
100
100
100
100
100
100
100
100
100
100
100
100
100
100
100
100
100
100
100
100
100
100
100
100
100
100
100
100
100
100
100
100
100
100
100
100
100
100
100
100
100
100
100
100
100
100
100
100
100
100
100
100
100
100
100
100
100
100
100
100
100
100
100
100
100
100
100
100
100
100
100
100
100
100
100
100
100
100
100
100
100
100
100
100
100
100
100
100
100
100
100
100
100
100
100
100
100
100
100
100
100
100
100
100
100
100
100
100
100
100
100
100
100
100
100
100
100
100
100
100
100
100
100
100
100
100
100
100
100
100
100
100
100
100
100
100
100
100
100
100
100
100
100
100
100
100
100
100
100
100
100
100
100
100
100
100
100
100
100
100
100
100
100
100
100
100
100
100
100
100
100
100
100
100
100
100
100
100
100
100
100
100
100
100
100
100
100
100
100
100
100
100
100
100
100
100
100
100
100
100
100
100
100
100
100
100
100
100
100
100
100
100
100
100
100
100
100
100
100
100
100
100
100
100
100
100
100
100
100
100
100
100
100
100
100
100
100
100
100
100
100
100
100
100
100
100
100
100
100
100
100
100
100
100
100
100
100
100
100
100
100
100
100
100
100
100
100
100
100
100
100
100
100
100
100
100
100
100
100
100
100
100
100
100
100
100
100
100
100
100
100
100
100
100
100
100
100
100
100
100
100
100
100
100
100
100
100
100
100
100
100
100
100
100
100
100
100
100
100
100
100
100
100
100
100
100
100
100
100
100
100
100
100
100
100
100
100
100
100
100
100
100
100
100
100
100
100
100
100
100
100
100
100
100
100
100
100
100
100
100
100
100
100
100
100
100
100
100
100
100
100
100
100
100
100
100
100
100
100
100
100
100
100
100
100
100
100
100
100
100
100
100
100
100
100
100
100
100
100
100
100
100
100
100
100
100
100
100
100
100
100
100
100
100
100
100
100
100
100
100
100
100
100
100
100
100
100
100
100
100
100
100
100
100
100
100
100
100
100
100
100
100
100
100
100
100
100
100
100
100
100
100
100
100
100
100
100
100
100
100
100
100
100
100
100
100
100
100
100
100
100
100
100
100
100
100
100
100
100
100
100
100
100
100
100
100
100
100
100
100
100
100
100
100
100
100
100
100
100
100
100
100
100
100
100
100
100
100
100
100
100
100
100
100
100
100
100
100
100
100
100
100
100
100
100
100
100
100
100
100
100
100
100
100
100
100
100
100
100
100
100
100
100
100
100
100
100
100
100
100
100
100
100
100
100
100
100
100
100
100
100
100
100
100
100
100
100
100
100
100
100
100
100
100
100
100
100
100
100
100
100
100
100
100
100
100
100
100
100
100
100
100
100
100
100
100
100
100
100
100
100
100
100
100
100
100
100
100
100
100
100
100
100
100
100
100
99.9995
100
100
100
100
100
100
100
100
100
100
100
100
100
100
100.042
100
100
100
100
100
100
100
100
100
100
100
100
100
100
100.395
100.038
100
100
100
100
100
100
100
100
100
100
100
100
100
100.65
100.283
100.025
100
100
100
100
100
100
100
100
100
100
100
100
100.719
100.517
100.167
100.009
100
100
100
100
100
100
100
100
100
100
100
100.704
100.636
100.374
100.074
100.002
100
100
100
100
100
100
100
100
100
100
100.669
100.662
100.519
100.218
100.022
100
100
100
100
100
100
100
100
100
100
100.596
100.653
100.61
100.416
100.142
100.017
100.001
100
100
100
100
100
100
100
100
100.527
100.62
100.609
100.489
100.25
100.043
100.002
100
100
100
100
100
100
100
100
100.453
100.544
100.586
100.547
100.377
100.145
100.015
100
100
100
100
100
100
100
100
100.409
100.471
100.542
100.54
100.446
100.255
100.066
100.003
100
100
100
100
100
100
100
100.378
100.426
100.474
100.517
100.483
100.337
100.156
100.025
100.001
100
100
100
100
100
100
100.352
100.404
100.42
100.468
100.474
100.388
100.232
100.078
100.006
100
100
100
100
100
100
100.309
100.374
100.388
100.418
100.447
100.414
100.289
100.148
100.03
100.001
100
100
100
100
100
100.269
100.323
100.351
100.38
100.409
100.406
100.33
100.208
100.081
100.008
100
100
100
100
100
100.261
100.289
100.315
100.345
100.366
100.381
100.349
100.25
100.14
100.033
100.001
100
100
100
100
100.257
100.266
100.283
100.316
100.329
100.346
100.34
100.279
100.188
100.079
100.008
100
100
100
100
100.247
100.25
100.268
100.288
100.288
100.306
100.318
100.291
100.217
100.128
100.032
100.002
100
100
100
100.233
100.24
100.261
100.266
100.256
100.266
100.281
100.282
100.24
100.169
100.073
100.008
100
100
100
100.214
100.228
100.246
100.24
100.235
100.244
100.245
100.259
100.244
100.192
100.118
100.029
100.001
100
100
100.193
100.208
100.221
100.211
100.21
100.223
100.215
100.227
100.236
100.21
100.154
100.065
100.007
100
100
100.174
100.188
100.196
100.185
100.188
100.198
100.186
100.195
100.216
100.209
100.174
100.108
100.024
100.001
100
100.178
100.167
100.173
100.168
100.176
100.172
100.161
100.168
100.186
100.202
100.186
100.139
100.057
100.006
100
100.226
100.154
100.15
100.152
100.161
100.145
100.136
100.148
100.157
100.183
100.184
100.159
100.096
100.019
100.001
100.312
100.169
100.142
100.135
100.141
100.12
100.112
100.126
100.13
100.156
100.177
100.168
100.128
100.048
100.004
100.362
100.222
100.135
100.119
100.117
100.1
100.095
100.105
100.103
100.126
100.161
100.167
100.145
100.085
100.016
100.372
100.276
100.147
100.101
100.092
100.084
100.087
100.085
100.079
100.101
100.137
100.162
100.154
100.113
100.041
100.379
100.32
100.221
100.107
100.073
100.063
100.066
100.056
100.048
100.069
100.098
100.139
100.151
100.137
100.105
100.429
100.406
100.373
100.33
100.299
100.275
100.26
100.252
100.243
100.23
100.213
100.188
100.179
100.185
100.27
100.366
100.386
100.407
100.417
100.413
100.366
100.349
100.316
100.275
100.261
100.252
100.244
100.239
100.232
100.219
100.199
100.178
100.196
100.29
100.374
100.42
100.415
100.42
100.431
100.431
100.304
100.294
100.263
100.231
100.219
100.219
100.223
100.224
100.218
100.204
100.185
100.21
100.313
100.396
100.43
100.443
100.44
100.437
100.443
100.446
100.24
100.24
100.211
100.185
100.186
100.194
100.202
100.209
100.206
100.195
100.238
100.342
100.405
100.454
100.463
100.463
100.46
100.456
100.458
100.465
100.188
100.189
100.169
100.152
100.149
100.157
100.175
100.181
100.22
100.299
100.378
100.426
100.458
100.481
100.485
100.485
100.485
100.484
100.487
100.496
100.14
100.137
100.131
100.127
100.13
100.133
100.16
100.259
100.393
100.447
100.463
100.483
100.502
100.517
100.523
100.526
100.529
100.533
100.539
100.551
100.086
100.091
100.09
100.088
100.109
100.198
100.35
100.456
100.503
100.53
100.546
100.561
100.574
100.587
100.596
100.601
100.606
100.613
100.621
100.633
100.029
100.057
100.186
100.289
100.43
100.509
100.561
100.618
100.65
100.663
100.674
100.684
100.691
100.699
100.704
100.705
100.707
100.711
100.715
100.721
100.591
100.625
100.695
100.741
100.788
100.798
100.791
100.79
100.798
100.809
100.812
100.81
100.806
100.801
100.796
100.793
100.791
100.789
100.787
100.782
101.054
101.02
101
100.993
100.976
100.953
100.917
100.885
100.875
100.876
100.875
100.868
100.855
100.841
100.832
100.83
100.828
100.823
100.814
100.802
)
;

boundaryField
{
    inlet
    {
        type            fixedValue;
        value           uniform 100;
    }
    outlet
    {
        type            inletOutlet;
        inletValue      uniform 100;
        value           nonuniform List<scalar> 
50
(
100.378
100.319
100.22
100.107
100.073
100.062
100.067
100.055
100.047
100.068
100.098
100.139
100.151
100.137
100.105
100.801
100.78
100.721
100.635
100.554
100.498
100.465
100.446
100.43
100.413
100.413
100.431
100.446
100.465
100.496
100.551
100.633
100.721
100.782
100.802
100.379
100.32
100.221
100.107
100.073
100.063
100.066
100.056
100.048
100.069
100.098
100.139
100.151
100.137
100.105
)
;
    }
    airfoil
    {
        type            zeroGradient;
    }
    top
    {
        type            symmetryPlane;
    }
    bottom
    {
        type            symmetryPlane;
    }
    defaultFaces
    {
        type            empty;
    }
}


// ************************************************************************* //
