# Force coefficients
# liftDir     : (0.000000e+00 1.000000e+00 0.000000e+00)
# dragDir     : (1.000000e+00 0.000000e+00 0.000000e+00)
# pitchAxis   : (0.000000e+00 0.000000e+00 1.000000e+00)
# magUInf     : 1.000000e+00
# lRef        : 1.000000e+00
# Aref        : 1.000000e-01
# CofR        : (0.000000e+00 0.000000e+00 0.000000e+00)
# Time        	Cm            	Cd            	Cl            	Cl(f)         	Cl(r)         
0.001         	0.000000e+00	0.000000e+00	0.000000e+00	0.000000e+00	0.000000e+00
0.002         	0.000000e+00	0.000000e+00	0.000000e+00	0.000000e+00	0.000000e+00
0.003         	0.000000e+00	0.000000e+00	0.000000e+00	0.000000e+00	0.000000e+00
0.004         	0.000000e+00	0.000000e+00	0.000000e+00	0.000000e+00	0.000000e+00
0.005         	0.000000e+00	0.000000e+00	0.000000e+00	0.000000e+00	0.000000e+00
0.006         	0.000000e+00	0.000000e+00	0.000000e+00	0.000000e+00	0.000000e+00
0.007         	0.000000e+00	0.000000e+00	0.000000e+00	0.000000e+00	0.000000e+00
0.008         	0.000000e+00	0.000000e+00	0.000000e+00	0.000000e+00	0.000000e+00
0.009         	0.000000e+00	0.000000e+00	0.000000e+00	0.000000e+00	0.000000e+00
