/*--------------------------------*- C++ -*----------------------------------*\
  =========                 |
  \\      /  F ield         | OpenFOAM: The Open Source CFD Toolbox
   \\    /   O peration     | Website:  https://openfoam.org
    \\  /    A nd           | Version:  7
     \\/     M anipulation  |
\*---------------------------------------------------------------------------*/
FoamFile
{
    version     2.0;
    format      ascii;
    class       volVectorField;
    location    "3.3";
    object      U;
}
// * * * * * * * * * * * * * * * * * * * * * * * * * * * * * * * * * * * * * //

dimensions      [0 1 -1 0 0 0 0];

internalField   nonuniform List<vector> 
3700
(
(1.42692 -0.532001 0)
(1.34475 -0.600499 0)
(1.30429 -0.399741 0)
(1.3921 -0.389334 0)
(1.43131 -0.34658 0)
(1.41945 -0.231311 0)
(1.46332 -0.0762229 0)
(1.56291 -0.0637753 0)
(1.63654 -0.0724961 0)
(1.7196 -0.101315 0)
(1.72179 -0.199871 0)
(1.69224 -0.342799 0)
(1.65064 -0.375338 0)
(1.60386 -0.3595 0)
(1.58226 -0.28709 0)
(1.63258 -0.186972 0)
(1.71862 -0.190036 0)
(1.79381 -0.196792 0)
(1.83567 -0.206156 0)
(1.85431 -0.22399 0)
(1.58474 -1.49337 0)
(1.76064 -1.61489 0)
(1.89333 -1.83839 0)
(1.93877 -1.99249 0)
(1.88836 -1.92824 0)
(1.7939 -1.64842 0)
(1.77589 -1.3123 0)
(1.85377 -1.23316 0)
(1.93896 -1.27428 0)
(2.05449 -1.34685 0)
(2.14249 -1.5328 0)
(2.11522 -1.7135 0)
(2.08062 -1.64494 0)
(2.02416 -1.62688 0)
(1.96238 -1.4107 0)
(1.98798 -1.2226 0)
(2.08382 -1.20288 0)
(2.18153 -1.15901 0)
(2.29044 -1.09037 0)
(2.35269 -1.07164 0)
(1.57917 -1.42126 0)
(1.89026 -1.46288 0)
(2.14509 -2.04605 0)
(2.14179 -2.30847 0)
(2.07057 -2.36399 0)
(2.03716 -2.36452 0)
(2.04329 -2.20631 0)
(1.98929 -2.17163 0)
(2.01248 -2.11754 0)
(2.07467 -2.06627 0)
(2.19229 -1.99543 0)
(2.2515 -1.98458 0)
(2.34633 -1.90983 0)
(2.38714 -1.89997 0)
(2.40965 -1.85698 0)
(2.42264 -1.79613 0)
(2.4286 -1.78544 0)
(2.46178 -1.66406 0)
(2.51577 -1.64441 0)
(2.62991 -1.52954 0)
(1.66655 -1.43676 0)
(2.05122 -1.41621 0)
(2.22889 -2.0456 0)
(2.1581 -2.32171 0)
(2.19143 -2.29764 0)
(2.11078 -2.35457 0)
(2.09838 -2.17663 0)
(2.01412 -2.12389 0)
(2.05412 -2.0667 0)
(2.14142 -1.9531 0)
(2.23119 -1.84305 0)
(2.35207 -1.78766 0)
(2.45953 -1.62989 0)
(2.58755 -1.56254 0)
(2.68176 -1.5244 0)
(2.71309 -1.51239 0)
(2.65214 -1.58989 0)
(2.62348 -1.49186 0)
(2.57281 -1.51079 0)
(2.60565 -1.36283 0)
(1.77817 -1.49811 0)
(2.14067 -1.44563 0)
(2.18854 -2.04432 0)
(2.06426 -2.29687 0)
(2.15501 -2.26854 0)
(2.15612 -2.27606 0)
(2.17614 -2.12759 0)
(2.13625 -2.03529 0)
(2.16892 -1.99888 0)
(2.24247 -1.92641 0)
(2.26519 -1.87326 0)
(2.34829 -1.75857 0)
(2.4152 -1.65537 0)
(2.5324 -1.55234 0)
(2.67384 -1.4073 0)
(2.75702 -1.19512 0)
(2.80018 -1.10948 0)
(2.82206 -1.05759 0)
(2.75362 -1.11958 0)
(2.66306 -1.17202 0)
(1.87448 -1.57784 0)
(2.1073 -1.55684 0)
(1.97674 -2.12163 0)
(1.90733 -2.29178 0)
(2.10713 -2.25048 0)
(2.15766 -2.23419 0)
(2.19855 -2.11392 0)
(2.21119 -1.98894 0)
(2.28742 -1.89784 0)
(2.45551 -1.71877 0)
(2.44166 -1.81054 0)
(2.50118 -1.64166 0)
(2.50594 -1.56072 0)
(2.53496 -1.48051 0)
(2.60007 -1.388 0)
(2.6601 -1.24783 0)
(2.74815 -1.10081 0)
(2.84674 -0.918581 0)
(2.87386 -0.735562 0)
(2.7716 -0.712319 0)
(1.82634 -1.63116 0)
(1.89216 -1.72796 0)
(1.73816 -2.13175 0)
(1.76528 -2.19194 0)
(1.86807 -2.12823 0)
(2.07081 -1.94537 0)
(2.1249 -2.02756 0)
(2.31522 -1.77049 0)
(2.40208 -1.79806 0)
(2.52843 -1.59606 0)
(2.59803 -1.57466 0)
(2.69192 -1.40169 0)
(2.66908 -1.37479 0)
(2.65701 -1.30316 0)
(2.65921 -1.20159 0)
(2.66266 -1.10405 0)
(2.68446 -1.0048 0)
(2.77879 -0.921093 0)
(2.78402 -0.698812 0)
(2.80539 -0.512649 0)
(1.64752 -1.58441 0)
(1.63848 -1.72301 0)
(1.53774 -2.06419 0)
(1.68441 -2.12436 0)
(1.75373 -2.09767 0)
(1.94847 -1.88556 0)
(2.00125 -1.90677 0)
(2.20087 -1.62449 0)
(2.3486 -1.57048 0)
(2.51762 -1.42223 0)
(2.61674 -1.25084 0)
(2.725 -1.09014 0)
(2.76352 -1.00588 0)
(2.77876 -0.965547 0)
(2.77648 -0.873063 0)
(2.74268 -0.840052 0)
(2.7153 -0.74146 0)
(2.72922 -0.755994 0)
(2.73214 -0.642534 0)
(2.72781 -0.410423 0)
(1.4848 -1.43409 0)
(1.52448 -1.53932 0)
(1.50857 -1.85301 0)
(1.63915 -1.97839 0)
(1.70995 -2.04809 0)
(1.89436 -1.85366 0)
(1.97772 -1.84594 0)
(2.15324 -1.59034 0)
(2.22857 -1.50173 0)
(2.36617 -1.4343 0)
(2.49636 -1.16877 0)
(2.63746 -1.02732 0)
(2.68884 -0.744077 0)
(2.76513 -0.621455 0)
(2.76977 -0.433555 0)
(2.76332 -0.41829 0)
(2.74957 -0.339202 0)
(2.71617 -0.390628 0)
(2.70698 -0.436124 0)
(2.66089 -0.248528 0)
(1.42983 -1.27357 0)
(1.51942 -1.33767 0)
(1.58176 -1.71177 0)
(1.64989 -1.95216 0)
(1.74336 -1.93731 0)
(1.9722 -1.78762 0)
(2.12497 -1.70076 0)
(2.275 -1.48772 0)
(2.32173 -1.42039 0)
(2.37707 -1.34625 0)
(2.46749 -1.14951 0)
(2.55438 -1.00568 0)
(2.60261 -0.776199 0)
(2.71517 -0.657289 0)
(2.7012 -0.376534 0)
(2.72514 -0.232396 0)
(2.70506 -0.0532412 0)
(2.66913 -0.0139136 0)
(2.63785 -0.0776738 0)
(2.61269 -0.0597747 0)
(1.4282 -1.20003 0)
(1.56088 -1.28281 0)
(1.72129 -1.70495 0)
(1.66824 -1.98924 0)
(1.88142 -1.82483 0)
(2.16493 -1.77184 0)
(2.29952 -1.51086 0)
(2.4503 -1.18725 0)
(2.58075 -1.0459 0)
(2.61344 -1.00717 0)
(2.63015 -0.863304 0)
(2.64268 -0.691864 0)
(2.63235 -0.551157 0)
(2.66306 -0.45937 0)
(2.64083 -0.288857 0)
(2.65749 -0.193368 0)
(2.64213 -0.0197576 0)
(2.60394 0.139568 0)
(2.5344 0.236992 0)
(2.55912 0.145961 0)
(1.41844 -1.23294 0)
(1.62547 -1.42387 0)
(1.87437 -1.81549 0)
(1.83687 -2.11258 0)
(2.45183 -1.63994 0)
(2.54464 -1.74112 0)
(2.7216 -1.2101 0)
(2.80439 -0.836772 0)
(2.82767 -0.643559 0)
(2.75957 -0.413927 0)
(2.73593 -0.303098 0)
(2.69547 -0.146618 0)
(2.67449 -0.0790916 0)
(2.64607 0.0115557 0)
(2.60817 0.072788 0)
(2.57575 0.0902846 0)
(2.55538 0.11208 0)
(2.51775 0.206828 0)
(2.44395 0.364476 0)
(2.45148 0.350291 0)
(1.37947 -1.35725 0)
(1.71535 -1.62926 0)
(2.13234 -1.92328 0)
(2.21283 -2.20256 0)
(2.49176 -1.47365 0)
(2.39596 -1.50451 0)
(2.53491 -1.06901 0)
(2.6071 -0.7639 0)
(2.61676 -0.651773 0)
(2.62541 -0.391544 0)
(2.65418 -0.199312 0)
(2.60384 0.0530069 0)
(2.59353 0.191647 0)
(2.52924 0.35627 0)
(2.48162 0.446747 0)
(2.44154 0.470016 0)
(2.40664 0.471901 0)
(2.40268 0.431831 0)
(2.32587 0.531882 0)
(2.31893 0.518193 0)
(1.43606 -1.47253 0)
(1.84414 -2.15098 0)
(2.39503 -1.72304 0)
(2.07903 -1.80077 0)
(2.23553 -1.42724 0)
(2.29656 -1.21193 0)
(2.40207 -0.900515 0)
(2.46006 -0.633378 0)
(2.47699 -0.413758 0)
(2.50931 -0.24283 0)
(2.52124 -0.0419648 0)
(2.48181 0.164485 0)
(2.46596 0.307201 0)
(2.40672 0.461422 0)
(2.34292 0.594597 0)
(2.30008 0.652863 0)
(2.22295 0.743667 0)
(2.19943 0.742311 0)
(2.18388 0.756977 0)
(2.14948 0.77364 0)
(1.52769 -1.67868 0)
(1.69625 -2.25711 0)
(2.13988 -1.56467 0)
(2.02927 -1.47969 0)
(2.20422 -1.24767 0)
(2.38226 -0.621867 0)
(2.48569 -0.377702 0)
(2.50224 -0.118397 0)
(2.4488 0.119838 0)
(2.45896 0.243246 0)
(2.39983 0.42476 0)
(2.33743 0.553424 0)
(2.288 0.633297 0)
(2.23301 0.706895 0)
(2.1814 0.756027 0)
(2.13596 0.798023 0)
(2.07649 0.86903 0)
(2.05062 0.907382 0)
(2.03047 0.942437 0)
(2.05944 0.956416 0)
(1.30633 -1.5064 0)
(1.48852 -1.87748 0)
(1.96087 -1.48269 0)
(2.24805 -0.62718 0)
(2.44003 -0.438645 0)
(2.44938 0.00379604 0)
(2.45958 0.2291 0)
(2.39757 0.432248 0)
(2.33103 0.525875 0)
(2.29777 0.653711 0)
(2.20469 0.788056 0)
(2.11889 0.888945 0)
(2.06199 0.938287 0)
(2.01122 0.984257 0)
(1.98235 0.975637 0)
(1.95754 0.986201 0)
(1.95597 1.01088 0)
(1.97153 0.994065 0)
(1.99554 0.994706 0)
(2.06988 0.97909 0)
(1.14442 -0.886737 0)
(1.49425 -1.4016 0)
(2.19584 -0.696178 0)
(2.35497 0.110963 0)
(2.35067 0.398502 0)
(2.35174 0.36438 0)
(2.30051 0.503788 0)
(2.22086 0.650074 0)
(2.13855 0.759784 0)
(2.08897 0.898146 0)
(1.97511 1.004 0)
(1.91627 1.05839 0)
(1.88246 1.0805 0)
(1.86821 1.09174 0)
(1.86981 1.05833 0)
(1.89552 1.04993 0)
(1.96207 1.02164 0)
(2.16604 0.90185 0)
(2.38397 0.788798 0)
(2.77988 0.436901 0)
(0.925829 0.000737432 0)
(1.91379 0.344333 0)
(2.22328 0.538026 0)
(2.24201 0.506283 0)
(2.20125 0.572601 0)
(2.15377 0.736326 0)
(2.04001 0.9088 0)
(1.97467 0.965997 0)
(1.90049 1.03195 0)
(1.85611 1.12323 0)
(1.78684 1.15602 0)
(1.78758 1.1504 0)
(1.80917 1.13034 0)
(1.85154 1.08745 0)
(2.04028 0.952038 0)
(2.2566 0.832027 0)
(2.66298 0.506552 0)
(3.0364 0.0925329 0)
(3.05506 -0.0237543 0)
(3.00397 -0.00462164 0)
(0.998062 0.0525061 0)
(1.93005 0.765523 0)
(2.1155 0.781091 0)
(2.00837 0.937612 0)
(1.93955 1.00342 0)
(1.88092 1.08346 0)
(1.80743 1.13092 0)
(1.76435 1.14695 0)
(1.75874 1.16285 0)
(1.7319 1.20312 0)
(1.70663 1.19739 0)
(1.85486 1.07479 0)
(2.09837 0.889226 0)
(2.50483 0.581446 0)
(2.98797 0.138261 0)
(3.07402 -0.0292273 0)
(3.00811 -0.00769332 0)
(3.0029 -0.00382789 0)
(3.00121 -0.00218622 0)
(3.00008 -0.000482432 0)
(1.15134 0.785444 0)
(1.83564 1.13879 0)
(1.83054 1.15663 0)
(1.73561 1.19826 0)
(1.71994 1.19746 0)
(1.67827 1.24309 0)
(1.66791 1.21612 0)
(1.73126 1.16756 0)
(1.76139 1.22356 0)
(1.7877 1.1351 0)
(2.26336 0.741935 0)
(2.85058 0.215257 0)
(3.09622 -0.0258152 0)
(3.02121 -0.0126207 0)
(3.0043 -0.00528629 0)
(3.00181 -0.00294447 0)
(3.00006 -0.000588147 0)
(2.99998 -2.43003e-05 0)
(2.99999 1.4244e-05 0)
(3 5.87807e-06 0)
(1.57484 1.25619 0)
(1.58081 1.26424 0)
(1.58541 1.27373 0)
(1.5985 1.26986 0)
(1.62298 1.25776 0)
(1.61979 1.26573 0)
(1.90498 1.16067 0)
(2.98685 0.331288 0)
(3.30479 -0.530056 0)
(3 1.90536e-13 0)
(3 5.92078e-11 0)
(3 -4.76524e-13 0)
(3 2.61177e-11 0)
(3 -2.42425e-11 0)
(3 4.03887e-14 0)
(3 3.68539e-14 0)
(3 1.05344e-14 0)
(3 1.49266e-15 0)
(3 -6.07836e-16 0)
(3 -2.55742e-15 0)
(1.57918 1.25195 0)
(1.59007 1.26358 0)
(1.59241 1.28234 0)
(1.58971 1.28449 0)
(1.66527 1.25641 0)
(1.74232 1.22319 0)
(2.29731 0.724159 0)
(3.00049 0.0121322 0)
(3 6.45054e-08 0)
(3 6.622e-11 0)
(3 -4.93544e-13 0)
(3 9.43882e-15 0)
(3 -2.70503e-14 0)
(3 1.44015e-14 0)
(3 -3.2517e-16 0)
(3 -3.64142e-16 0)
(3 -1.04816e-15 0)
(3 -1.64975e-15 0)
(3 -7.19981e-16 0)
(3 -1.04316e-15 0)
(1.58722 1.25477 0)
(1.60403 1.25905 0)
(1.60324 1.26919 0)
(1.57276 1.2999 0)
(1.7087 1.20931 0)
(2.14474 0.842059 0)
(2.97953 0.0120043 0)
(3.00054 -0.00100437 0)
(3 5.98464e-07 0)
(3 5.6833e-11 0)
(3 5.04922e-13 0)
(3 5.62125e-16 0)
(3 3.05854e-16 0)
(3 -8.38721e-16 0)
(3 6.57662e-16 0)
(3 -1.45133e-15 0)
(3 -1.40754e-15 0)
(3 -5.69119e-16 0)
(3 -2.67373e-16 0)
(3 -9.90595e-16 0)
(1.58966 1.25533 0)
(1.61096 1.25911 0)
(1.62966 1.25962 0)
(1.58195 1.30142 0)
(1.89546 1.05616 0)
(2.76073 0.216059 0)
(3.0048 -0.00252368 0)
(2.99992 8.46478e-05 0)
(3 -8.05349e-07 0)
(3 9.13006e-10 0)
(3 -9.33825e-13 0)
(3 5.02405e-15 0)
(3 6.90212e-16 0)
(3 7.21282e-16 0)
(3 -9.64241e-16 0)
(3 -1.79118e-15 0)
(3 -6.90205e-16 0)
(3 -2.73444e-16 0)
(3 -3.51231e-16 0)
(3 -1.24654e-15 0)
(1.58853 1.26505 0)
(1.60936 1.26138 0)
(1.63952 1.2492 0)
(1.72835 1.21027 0)
(2.30928 0.651039 0)
(3.0216 -0.0174447 0)
(2.99972 0.00018413 0)
(3 -4.29588e-06 0)
(3 8.32604e-08 0)
(3 -9.12554e-10 0)
(3 7.68548e-13 0)
(3 -9.14863e-16 0)
(3 5.19247e-16 0)
(3 1.50703e-16 0)
(3 -4.54201e-16 0)
(3 -1.8482e-15 0)
(3 -1.29499e-15 0)
(3 -3.66766e-16 0)
(3 -9.14009e-17 0)
(3 -1.30406e-16 0)
(1.58425 1.27831 0)
(1.58443 1.2695 0)
(1.64218 1.2391 0)
(1.87379 1.08365 0)
(2.76805 0.201755 0)
(3 -5.84216e-10 0)
(3 1.4043e-08 0)
(3 -1.26788e-08 0)
(3 5.49213e-10 0)
(3 2.39248e-12 0)
(3 -7.71437e-14 0)
(3 1.92365e-15 0)
(3 5.06779e-16 0)
(3 7.04856e-16 0)
(3 4.94139e-18 0)
(3 -1.73932e-15 0)
(3 -1.8752e-15 0)
(3 -9.5807e-16 0)
(3 -1.47699e-15 0)
(3 -9.95925e-16 0)
(1.58308 1.29036 0)
(1.54941 1.2816 0)
(1.64963 1.25242 0)
(2.0748 0.883043 0)
(3.00565 -0.00107708 0)
(3 -2.04835e-12 0)
(3 -1.94439e-11 0)
(3 2.58719e-11 0)
(3 -3.68833e-12 0)
(3 4.87614e-15 0)
(3 2.55321e-15 0)
(3 9.90475e-16 0)
(3 5.31174e-17 0)
(3 7.27602e-16 0)
(3 7.06972e-16 0)
(3 -1.11814e-15 0)
(3 -1.43744e-15 0)
(3 -1.37732e-15 0)
(3 -1.89007e-15 0)
(3 -1.00458e-15 0)
(1.58334 1.32528 0)
(1.50857 1.32646 0)
(1.7813 1.18519 0)
(2.4389 0.540211 0)
(3 -3.03288e-06 0)
(3 3.58899e-13 0)
(3 -5.86626e-15 0)
(3 -2.4517e-14 0)
(3 1.07541e-14 0)
(3 7.0248e-16 0)
(3 1.35675e-15 0)
(3 1.078e-15 0)
(3 -8.13513e-16 0)
(3 -7.17261e-16 0)
(3 1.28808e-15 0)
(3 -5.81213e-17 0)
(3 -1.22166e-15 0)
(3 -1.89499e-15 0)
(3 -1.3938e-15 0)
(3 -5.27617e-16 0)
(1.59178 1.30894 0)
(1.465 1.34983 0)
(1.941 1.04351 0)
(2.86078 0.131718 0)
(3 -6.63666e-09 0)
(3 -3.80075e-14 0)
(3 -2.43193e-16 0)
(3 -1.87362e-16 0)
(3 -5.88512e-16 0)
(3 1.13615e-16 0)
(3 4.27793e-16 0)
(3 2.84767e-16 0)
(3 -1.40011e-16 0)
(3 -3.36306e-16 0)
(3 -1.07707e-15 0)
(3 -1.40677e-15 0)
(3 -1.56687e-15 0)
(3 -2.10771e-15 0)
(3 -1.29452e-15 0)
(3 -3.6398e-16 0)
(1.60773 1.29765 0)
(1.48213 1.39288 0)
(2.127 0.837654 0)
(3.01141 -0.00940466 0)
(3 3.5977e-09 0)
(3 -4.45336e-16 0)
(3 1.92345e-16 0)
(3 -1.11031e-16 0)
(3 -5.41469e-16 0)
(3 -3.67053e-16 0)
(3 -3.0796e-16 0)
(3 -3.81732e-16 0)
(3 -2.27363e-16 0)
(3 -8.61255e-17 0)
(3 -7.72292e-16 0)
(3 -1.54534e-15 0)
(3 -1.90308e-15 0)
(3 -2.93172e-15 0)
(3 -3.08832e-15 0)
(3 -2.52259e-15 0)
(1.62561 1.28412 0)
(1.58884 1.30192 0)
(2.44305 0.508101 0)
(3 4.06118e-13 0)
(3 -3.18595e-12 0)
(3 6.49211e-15 0)
(3 8.30824e-17 0)
(3 -2.46637e-16 0)
(3 -4.60861e-16 0)
(3 -4.95299e-16 0)
(3 -4.31491e-16 0)
(3 -5.03631e-16 0)
(3 -5.0606e-16 0)
(3 -3.38127e-16 0)
(3 -2.45943e-16 0)
(3 -1.70722e-15 0)
(3 -2.27043e-15 0)
(3 -2.64417e-15 0)
(3 -2.88664e-15 0)
(3 -3.21279e-15 0)
(1.64191 1.26188 0)
(1.643 1.24288 0)
(2.66179 0.282824 0)
(3 2.62771e-13 0)
(3 7.62082e-15 0)
(3 -4.39648e-16 0)
(3 4.17964e-17 0)
(3 2.2638e-17 0)
(3 -1.97717e-16 0)
(3 6.82213e-17 0)
(3 2.0196e-16 0)
(3 1.26944e-16 0)
(3 -5.72667e-16 0)
(3 -5.17065e-16 0)
(3 -9.20018e-16 0)
(3 -1.1021e-15 0)
(3 -1.29596e-15 0)
(3 -2.10459e-15 0)
(3 -2.54479e-15 0)
(3 -2.65511e-15 0)
(1.65608 1.23265 0)
(1.80855 1.10444 0)
(2.87276 0.0944555 0)
(3 -6.84156e-13 0)
(3 -4.01939e-16 0)
(3 -3.97925e-16 0)
(3 -1.51756e-16 0)
(3 -1.28611e-17 0)
(3 -1.50659e-16 0)
(3 -2.40566e-17 0)
(3 8.93973e-17 0)
(3 1.64451e-16 0)
(3 4.33832e-16 0)
(3 1.07062e-16 0)
(3 -9.98612e-17 0)
(3 -5.40432e-16 0)
(3 -1.03211e-15 0)
(3 -1.19558e-15 0)
(3 -2.2599e-15 0)
(3 -2.18935e-15 0)
(1.6627 1.20368 0)
(1.89684 0.976362 0)
(2.98771 0.00976122 0)
(3 5.13044e-16 0)
(3 -5.94042e-17 0)
(3 -3.0569e-16 0)
(3 -5.96377e-16 0)
(3 -3.91773e-16 0)
(3 2.86178e-17 0)
(3 8.93079e-17 0)
(3 1.78003e-16 0)
(3 3.08577e-16 0)
(3 6.92918e-16 0)
(3 7.9326e-16 0)
(3 9.41114e-16 0)
(3 1.07662e-15 0)
(3 7.80627e-16 0)
(3 -2.01995e-16 0)
(3 -2.03251e-15 0)
(3 -2.62292e-15 0)
(1.69824 1.16561 0)
(2.0489 0.82265 0)
(3 -1.26692e-15 0)
(3 -8.81306e-16 0)
(3 -6.37505e-16 0)
(3 -5.51779e-16 0)
(3 -9.71037e-16 0)
(3 -9.56143e-16 0)
(3 -4.03528e-16 0)
(3 -2.41212e-17 0)
(3 4.55547e-16 0)
(3 6.46145e-16 0)
(3 9.47686e-16 0)
(3 1.09201e-15 0)
(3 1.16873e-15 0)
(3 1.17205e-15 0)
(3 1.51921e-15 0)
(3 1.68171e-15 0)
(3 1.41917e-15 0)
(3 1.21425e-15 0)
(1.77048 1.10276 0)
(2.22683 0.654754 0)
(3 2.78146e-16 0)
(3 -9.24571e-16 0)
(3 -1.24328e-15 0)
(3 -1.4028e-15 0)
(3 -1.4462e-15 0)
(3 -1.27937e-15 0)
(3 -1.04333e-15 0)
(3 -4.12313e-16 0)
(3 1.62867e-16 0)
(3 9.22697e-17 0)
(3 2.0809e-17 0)
(3 -2.71227e-18 0)
(3 5.46589e-17 0)
(3 5.13747e-17 0)
(3 6.70264e-17 0)
(3 1.32282e-16 0)
(3 -2.16261e-16 0)
(3 -5.22122e-16 0)
(1.82813 1.00537 0)
(2.45327 0.441589 0)
(3 5.27637e-17 0)
(3 -2.92634e-16 0)
(3 -2.95189e-16 0)
(3 -4.92038e-16 0)
(3 -5.90931e-16 0)
(3 -7.20112e-16 0)
(3 -7.60241e-16 0)
(3 -2.04198e-16 0)
(3 1.13827e-16 0)
(3 1.99413e-17 0)
(3 -2.61886e-16 0)
(3 -4.6421e-16 0)
(3 -4.79857e-16 0)
(3 -5.16568e-16 0)
(3 -6.77197e-16 0)
(3 -7.62838e-16 0)
(3 -6.69508e-16 0)
(3 -6.25162e-16 0)
(1.93039 0.873575 0)
(2.70546 0.211227 0)
(3 1.83242e-16 0)
(3 -5.4115e-16 0)
(3 -8.67978e-16 0)
(3 -6.72398e-16 0)
(3 -6.29168e-16 0)
(3 -8.146e-16 0)
(3 -1.12972e-15 0)
(3 -8.01288e-16 0)
(3 1.61551e-16 0)
(3 2.5938e-16 0)
(3 -7.16193e-17 0)
(3 -3.15757e-16 0)
(3 -3.70801e-16 0)
(3 -5.58287e-16 0)
(3 -7.66947e-16 0)
(3 -6.8827e-16 0)
(3 -3.03742e-16 0)
(3 -1.09046e-16 0)
(2.11906 0.670073 0)
(2.99053 6.05727e-05 0)
(3 1.25182e-15 0)
(3 6.98612e-16 0)
(3 4.73428e-16 0)
(3 5.05049e-16 0)
(3 3.58659e-16 0)
(3 -9.61535e-16 0)
(3 -2.07352e-15 0)
(3 -2.32768e-15 0)
(3 -2.07053e-15 0)
(3 -1.74194e-15 0)
(3 -1.80445e-15 0)
(3 -1.80564e-15 0)
(3 -1.59669e-15 0)
(3 -1.16131e-15 0)
(3 -1.13968e-15 0)
(3 -1.23664e-15 0)
(3 -1.2029e-15 0)
(3 -1.06712e-15 0)
(1.99507 0.371465 0)
(2.99992 -1.37691e-05 0)
(3 1.02624e-15 0)
(3 -1.09728e-15 0)
(3 -6.15699e-16 0)
(3 4.95918e-16 0)
(3 8.58798e-16 0)
(3 1.90794e-16 0)
(3 -8.04272e-16 0)
(3 -1.11218e-15 0)
(3 -1.39244e-15 0)
(3 -8.65829e-16 0)
(3 1.95058e-18 0)
(3 3.6949e-16 0)
(3 5.96273e-16 0)
(3 8.91486e-16 0)
(3 1.20043e-15 0)
(3 1.17871e-15 0)
(3 1.24226e-15 0)
(3 1.46154e-15 0)
(1.99494 -0.369353 0)
(2.99992 1.3219e-05 0)
(3 4.87244e-16 0)
(3 1.97375e-15 0)
(3 9.04863e-16 0)
(3 3.50518e-16 0)
(3 1.23993e-16 0)
(3 -5.94514e-16 0)
(3 2.67096e-16 0)
(3 4.63354e-16 0)
(3 6.05997e-16 0)
(3 1.06808e-15 0)
(3 1.09253e-15 0)
(3 9.81421e-16 0)
(3 8.7778e-16 0)
(3 9.9693e-16 0)
(3 1.60243e-15 0)
(3 2.13093e-15 0)
(3 2.24077e-15 0)
(3 2.12984e-15 0)
(2.11106 -0.671508 0)
(2.99008 -6.03249e-05 0)
(3 -1.20531e-15 0)
(3 -9.92242e-16 0)
(3 -9.61196e-16 0)
(3 -1.73749e-15 0)
(3 -1.11315e-15 0)
(3 -2.82071e-16 0)
(3 -2.22001e-16 0)
(3 -5.49336e-17 0)
(3 6.12262e-17 0)
(3 1.48333e-16 0)
(3 -2.3273e-16 0)
(3 -5.35876e-16 0)
(3 -6.24365e-16 0)
(3 -1.59805e-16 0)
(3 2.98674e-16 0)
(3 1.52619e-16 0)
(3 -2.28819e-16 0)
(3 -3.92934e-16 0)
(1.92371 -0.874933 0)
(2.69879 -0.215531 0)
(3 -3.30583e-15 0)
(3 -3.84258e-15 0)
(3 -3.80982e-15 0)
(3 -3.48469e-15 0)
(3 -2.88287e-15 0)
(3 -3.13914e-15 0)
(3 -3.17048e-15 0)
(3 -3.25499e-15 0)
(3 -2.8303e-15 0)
(3 -2.71205e-15 0)
(3 -2.61291e-15 0)
(3 -1.58117e-15 0)
(3 -5.73729e-16 0)
(3 5.84025e-16 0)
(3 2.95171e-16 0)
(3 1.86042e-16 0)
(3 3.06472e-17 0)
(3 7.87368e-17 0)
(1.82222 -1.0042 0)
(2.45152 -0.44195 0)
(3 8.02983e-16 0)
(3 2.13613e-15 0)
(3 1.60313e-15 0)
(3 1.69464e-15 0)
(3 1.19695e-15 0)
(3 5.27509e-16 0)
(3 -1.9669e-16 0)
(3 -7.19786e-16 0)
(3 -8.65258e-16 0)
(3 -1.22582e-15 0)
(3 -1.28521e-15 0)
(3 -7.39208e-16 0)
(3 -1.32618e-16 0)
(3 1.36678e-17 0)
(3 1.07948e-16 0)
(3 7.44582e-16 0)
(3 8.89804e-16 0)
(3 1.13927e-15 0)
(1.77542 -1.10117 0)
(2.23347 -0.651761 0)
(3 -4.78756e-16 0)
(3 -3.07566e-16 0)
(3 7.30451e-16 0)
(3 1.16401e-15 0)
(3 8.87013e-16 0)
(3 2.37236e-16 0)
(3 9.73643e-18 0)
(3 -4.29838e-16 0)
(3 -2.37569e-16 0)
(3 6.55668e-16 0)
(3 1.50262e-15 0)
(3 2.56948e-15 0)
(3 2.81135e-15 0)
(3 3.19061e-15 0)
(3 2.93204e-15 0)
(3 2.34208e-15 0)
(3 1.64987e-15 0)
(3 2.07497e-15 0)
(1.70532 -1.16457 0)
(2.0541 -0.819723 0)
(3 -4.192e-16 0)
(3 -9.01868e-16 0)
(3 -2.34879e-16 0)
(3 4.05409e-16 0)
(3 1.14357e-15 0)
(3 1.72389e-15 0)
(3 1.6201e-15 0)
(3 1.45989e-15 0)
(3 1.37861e-15 0)
(3 2.09093e-15 0)
(3 3.23077e-15 0)
(3 3.75089e-15 0)
(3 3.75838e-15 0)
(3 4.06022e-15 0)
(3 4.36886e-15 0)
(3 3.71384e-15 0)
(3 2.90431e-15 0)
(3 2.78031e-15 0)
(1.6616 -1.20529 0)
(1.89779 -0.973727 0)
(2.98659 -0.0100327 0)
(3 -1.22288e-15 0)
(3 -3.16593e-16 0)
(3 1.85764e-16 0)
(3 9.52747e-16 0)
(3 1.32965e-15 0)
(3 1.55587e-15 0)
(3 1.63444e-15 0)
(3 1.5023e-15 0)
(3 1.80707e-15 0)
(3 2.87303e-15 0)
(3 2.77229e-15 0)
(3 2.88804e-15 0)
(3 2.33943e-15 0)
(3 1.22035e-15 0)
(3 5.76842e-16 0)
(3 7.67953e-16 0)
(3 1.58805e-15 0)
(1.65368 -1.23461 0)
(1.80494 -1.10567 0)
(2.86959 -0.0964855 0)
(3 4.97459e-13 0)
(3 -2.76246e-16 0)
(3 -4.92226e-16 0)
(3 2.72299e-16 0)
(3 5.36211e-16 0)
(3 -1.14624e-16 0)
(3 -5.61536e-16 0)
(3 -7.82249e-16 0)
(3 -1.57106e-16 0)
(3 2.89451e-16 0)
(3 3.82923e-16 0)
(3 -8.39508e-18 0)
(3 -3.22771e-16 0)
(3 -6.47503e-16 0)
(3 -6.03855e-16 0)
(3 -3.69597e-16 0)
(3 -2.64964e-16 0)
(1.64032 -1.26028 0)
(1.63874 -1.24588 0)
(2.65751 -0.288275 0)
(3 -1.9994e-13 0)
(3 -7.59722e-15 0)
(3 -5.93734e-16 0)
(3 -6.64534e-16 0)
(3 1.15519e-15 0)
(3 -4.11127e-16 0)
(3 -1.4223e-15 0)
(3 -3.06169e-16 0)
(3 5.42341e-17 0)
(3 3.76422e-16 0)
(3 3.59118e-16 0)
(3 -4.3704e-16 0)
(3 -9.19676e-16 0)
(3 -7.031e-16 0)
(3 -5.94037e-17 0)
(3 -3.68147e-16 0)
(3 -1.83863e-15 0)
(1.62531 -1.28445 0)
(1.58901 -1.30316 0)
(2.44149 -0.512012 0)
(3 -3.12713e-13 0)
(3 3.11282e-12 0)
(3 -8.52239e-15 0)
(3 2.37515e-16 0)
(3 1.31876e-15 0)
(3 7.79036e-16 0)
(3 2.08183e-16 0)
(3 7.95419e-16 0)
(3 7.71023e-16 0)
(3 8.46544e-16 0)
(3 3.97232e-16 0)
(3 -6.14594e-16 0)
(3 -1.20077e-15 0)
(3 -6.05278e-16 0)
(3 -3.45309e-16 0)
(3 -1.53845e-15 0)
(3 -3.17463e-15 0)
(1.60801 -1.29795 0)
(1.48228 -1.39304 0)
(2.12741 -0.838608 0)
(3.01137 0.00934495 0)
(3 -3.59113e-09 0)
(3 2.02958e-16 0)
(3 -2.1694e-16 0)
(3 4.29349e-16 0)
(3 6.8709e-16 0)
(3 3.10415e-16 0)
(3 1.00759e-15 0)
(3 7.05017e-16 0)
(3 6.21259e-16 0)
(3 -3.60252e-17 0)
(3 -9.89571e-16 0)
(3 -1.30733e-15 0)
(3 -8.03659e-16 0)
(3 1.09375e-16 0)
(3 -6.25637e-16 0)
(3 -2.22942e-15 0)
(1.59225 -1.30878 0)
(1.46646 -1.35009 0)
(1.94577 -1.04233 0)
(2.8636 -0.129294 0)
(3 2.83949e-09 0)
(3 1.08671e-14 0)
(3 -5.61703e-16 0)
(3 -4.10452e-16 0)
(3 2.66464e-16 0)
(3 4.0157e-16 0)
(3 4.10458e-16 0)
(3 -3.74062e-17 0)
(3 3.97706e-17 0)
(3 -2.56243e-16 0)
(3 -7.3443e-16 0)
(3 -8.49402e-16 0)
(3 -5.35101e-17 0)
(3 1.08277e-15 0)
(3 2.28979e-16 0)
(3 -1.05503e-15 0)
(1.58394 -1.32632 0)
(1.50707 -1.32745 0)
(1.77586 -1.18629 0)
(2.43183 -0.544185 0)
(3 1.8673e-06 0)
(3 1.19888e-15 0)
(3 -6.67731e-17 0)
(3 3.39128e-14 0)
(3 -1.95195e-14 0)
(3 1.77439e-16 0)
(3 1.34597e-18 0)
(3 -2.03549e-16 0)
(3 4.17386e-16 0)
(3 4.06123e-16 0)
(3 -1.99522e-16 0)
(3 -1.81925e-16 0)
(3 6.3402e-16 0)
(3 2.20465e-15 0)
(3 1.08876e-15 0)
(3 -1.0045e-16 0)
(1.58295 -1.29056 0)
(1.54852 -1.28206 0)
(1.65046 -1.25105 0)
(2.08481 -0.87684 0)
(3.00891 0.00409388 0)
(3 1.57513e-12 0)
(3 1.92328e-11 0)
(3 -2.56439e-11 0)
(3 3.66054e-12 0)
(3 -3.29416e-15 0)
(3 -7.21111e-16 0)
(3 4.35829e-16 0)
(3 8.34742e-16 0)
(3 8.71209e-16 0)
(3 1.19473e-15 0)
(3 1.22342e-15 0)
(3 1.3233e-15 0)
(3 2.90995e-15 0)
(3 1.84171e-15 0)
(3 7.41197e-16 0)
(1.58395 -1.27825 0)
(1.58442 -1.27035 0)
(1.64374 -1.24112 0)
(1.86795 -1.0869 0)
(2.76595 -0.201647 0)
(3 5.805e-10 0)
(3 -1.39704e-08 0)
(3 1.26137e-08 0)
(3 -5.46201e-10 0)
(3 -2.40853e-12 0)
(3 8.51311e-14 0)
(3 5.05021e-17 0)
(3 1.55638e-15 0)
(3 1.87186e-15 0)
(3 1.54075e-15 0)
(3 1.31257e-15 0)
(3 1.25874e-15 0)
(3 8.5797e-16 0)
(3 1.21675e-15 0)
(3 5.65323e-16 0)
(1.58851 -1.26449 0)
(1.60938 -1.26104 0)
(1.63924 -1.24982 0)
(1.72923 -1.20968 0)
(2.31282 -0.647944 0)
(3.02147 0.0173812 0)
(2.99972 -0.00018287 0)
(3 4.26819e-06 0)
(3 -8.27994e-08 0)
(3 9.04416e-10 0)
(3 -1.68117e-12 0)
(3 2.67672e-15 0)
(3 2.31022e-15 0)
(3 1.64588e-15 0)
(3 1.22893e-15 0)
(3 1.79283e-15 0)
(3 7.45026e-16 0)
(3 -6.14047e-18 0)
(3 2.4168e-16 0)
(3 2.54211e-16 0)
(1.59051 -1.25527 0)
(1.61134 -1.25942 0)
(1.63004 -1.25868 0)
(1.58318 -1.30037 0)
(1.8946 -1.05577 0)
(2.761 -0.214879 0)
(3.00482 0.0025268 0)
(2.99992 -8.42955e-05 0)
(3 7.70099e-07 0)
(3 -9.0045e-10 0)
(3 2.05202e-12 0)
(3 2.24778e-15 0)
(3 2.29505e-15 0)
(3 1.42242e-15 0)
(3 2.36843e-15 0)
(3 1.33488e-15 0)
(3 1.2223e-15 0)
(3 -3.97476e-16 0)
(3 -8.09671e-16 0)
(3 2.91666e-16 0)
(1.58796 -1.25531 0)
(1.60449 -1.25947 0)
(1.60323 -1.26926 0)
(1.57293 -1.30004 0)
(1.70666 -1.20964 0)
(2.14092 -0.842125 0)
(2.97926 -0.0120674 0)
(3.00053 0.000990051 0)
(3 -5.44691e-07 0)
(3 -5.8898e-11 0)
(3 -6.16475e-13 0)
(3 -1.20079e-15 0)
(3 1.75283e-15 0)
(3 2.85534e-15 0)
(3 2.92073e-15 0)
(3 1.25302e-15 0)
(3 1.93648e-15 0)
(3 -7.58494e-16 0)
(3 -5.31111e-16 0)
(3 2.45083e-16 0)
(1.57931 -1.25269 0)
(1.58987 -1.26398 0)
(1.59223 -1.28241 0)
(1.58984 -1.28472 0)
(1.66588 -1.25694 0)
(1.74741 -1.22078 0)
(2.29893 -0.7239 0)
(3.00068 -0.0117695 0)
(3 -6.68525e-08 0)
(3 -7.03575e-11 0)
(3 5.51e-13 0)
(3 4.36615e-16 0)
(3 6.43179e-15 0)
(3 4.57941e-16 0)
(3 3.71775e-15 0)
(3 1.7474e-15 0)
(3 1.52037e-15 0)
(3 -1.77303e-16 0)
(3 2.69884e-16 0)
(3 7.89468e-16 0)
(1.57441 -1.2561 0)
(1.58049 -1.2641 0)
(1.58509 -1.2736 0)
(1.59875 -1.26978 0)
(1.62326 -1.25801 0)
(1.6199 -1.2659 0)
(1.90468 -1.16212 0)
(2.9886 -0.332433 0)
(3.30526 0.532803 0)
(3 2.40703e-12 0)
(3 -6.20479e-11 0)
(3 -1.25875e-14 0)
(3 -5.03583e-12 0)
(3 5.02159e-12 0)
(3 -9.26956e-15 0)
(3 -6.75686e-15 0)
(3 -1.28024e-15 0)
(3 6.67437e-16 0)
(3 4.83334e-16 0)
(3 2.10412e-15 0)
(1.15232 -0.782546 0)
(1.83459 -1.1387 0)
(1.83112 -1.15543 0)
(1.73546 -1.19855 0)
(1.71943 -1.19824 0)
(1.67832 -1.24315 0)
(1.66715 -1.2167 0)
(1.73083 -1.16799 0)
(1.76108 -1.2245 0)
(1.78745 -1.13586 0)
(2.26359 -0.742153 0)
(2.85105 -0.21498 0)
(3.09637 0.0260135 0)
(3.02122 0.0126462 0)
(3.00434 0.0053041 0)
(3.00182 0.00295656 0)
(3.00006 0.000588087 0)
(2.99998 2.42326e-05 0)
(2.99999 -1.42502e-05 0)
(3 -5.87448e-06 0)
(0.998605 -0.0492191 0)
(1.92402 -0.782597 0)
(2.11445 -0.7815 0)
(2.00691 -0.936096 0)
(1.94307 -0.998976 0)
(1.87916 -1.08446 0)
(1.8066 -1.13153 0)
(1.76432 -1.14705 0)
(1.75877 -1.16297 0)
(1.73175 -1.20343 0)
(1.7067 -1.19746 0)
(1.8553 -1.07444 0)
(2.09836 -0.888763 0)
(2.50402 -0.581488 0)
(2.98743 -0.138526 0)
(3.07416 0.0293034 0)
(3.00815 0.00771712 0)
(3.00291 0.00383487 0)
(3.00121 0.00218839 0)
(3.00008 0.000482477 0)
(1.00811 0.0820801 0)
(1.92329 -0.212418 0)
(2.21799 -0.542099 0)
(2.23989 -0.512256 0)
(2.19989 -0.574585 0)
(2.15737 -0.73145 0)
(2.03939 -0.909146 0)
(1.97293 -0.968109 0)
(1.89999 -1.03313 0)
(1.85575 -1.12374 0)
(1.78689 -1.15612 0)
(1.78767 -1.15025 0)
(1.8091 -1.13009 0)
(1.85107 -1.08734 0)
(2.03976 -0.952033 0)
(2.2561 -0.832171 0)
(2.66232 -0.507145 0)
(3.03617 -0.092913 0)
(3.05511 0.0237101 0)
(3.00397 0.00462227 0)
(1.18873 0.857642 0)
(1.5866 1.28057 0)
(2.23567 0.671605 0)
(2.36354 -0.102793 0)
(2.34865 -0.400675 0)
(2.35128 -0.36428 0)
(2.30059 -0.501019 0)
(2.2222 -0.644128 0)
(2.13819 -0.758449 0)
(2.09015 -0.896606 0)
(1.97615 -1.00231 0)
(1.9168 -1.05726 0)
(1.88246 -1.07997 0)
(1.86784 -1.0917 0)
(1.86944 -1.05852 0)
(1.89527 -1.05011 0)
(1.96198 -1.02179 0)
(2.166 -0.902077 0)
(2.38401 -0.78904 0)
(2.78002 -0.436964 0)
(1.25518 1.45793 0)
(1.42768 1.91121 0)
(1.94365 1.53675 0)
(2.23755 0.555568 0)
(2.44401 0.407377 0)
(2.44958 -0.0173644 0)
(2.4647 -0.219814 0)
(2.39733 -0.435266 0)
(2.33271 -0.522985 0)
(2.2992 -0.652069 0)
(2.20558 -0.787297 0)
(2.11904 -0.888932 0)
(2.06135 -0.939268 0)
(2.01041 -0.985673 0)
(1.98163 -0.976821 0)
(1.95746 -0.986568 0)
(1.956 -1.01073 0)
(1.97169 -0.993941 0)
(1.99577 -0.994639 0)
(2.07001 -0.979123 0)
(1.34027 1.54929 0)
(1.64236 2.27092 0)
(2.01659 1.70408 0)
(2.01919 1.47573 0)
(2.20929 1.25087 0)
(2.38218 0.584561 0)
(2.48833 0.343011 0)
(2.50828 0.106436 0)
(2.45124 -0.129486 0)
(2.45862 -0.252565 0)
(2.40024 -0.430194 0)
(2.3368 -0.558002 0)
(2.28712 -0.636677 0)
(2.23253 -0.708932 0)
(2.18156 -0.756029 0)
(2.13653 -0.796818 0)
(2.07697 -0.867305 0)
(2.05094 -0.906263 0)
(2.03023 -0.942545 0)
(2.05937 -0.95668 0)
(1.2046 1.28536 0)
(1.84808 2.18517 0)
(2.31213 1.85322 0)
(2.06381 1.78658 0)
(2.21326 1.44161 0)
(2.29374 1.21151 0)
(2.39797 0.896666 0)
(2.45919 0.637697 0)
(2.47643 0.40575 0)
(2.50855 0.243653 0)
(2.52016 0.0427917 0)
(2.48068 -0.162587 0)
(2.46502 -0.304623 0)
(2.40657 -0.45812 0)
(2.34322 -0.591162 0)
(2.30076 -0.650077 0)
(2.22264 -0.742669 0)
(2.19782 -0.743709 0)
(2.18308 -0.758006 0)
(2.1496 -0.774094 0)
(1.1733 1.14169 0)
(1.61148 1.51152 0)
(2.2399 2.00812 0)
(2.25454 2.1916 0)
(2.46071 1.50261 0)
(2.37928 1.49974 0)
(2.51332 1.07277 0)
(2.59014 0.769704 0)
(2.59993 0.664414 0)
(2.61485 0.405808 0)
(2.64871 0.2109 0)
(2.60048 -0.0453896 0)
(2.59202 -0.186963 0)
(2.52822 -0.354169 0)
(2.48071 -0.44735 0)
(2.44064 -0.472021 0)
(2.405 -0.475898 0)
(2.40203 -0.432908 0)
(2.32617 -0.531349 0)
(2.31991 -0.516599 0)
(1.24703 1.07081 0)
(1.50209 1.32581 0)
(1.83811 1.87162 0)
(1.94273 2.21394 0)
(2.5525 1.65117 0)
(2.57369 1.74422 0)
(2.73227 1.19675 0)
(2.81028 0.826442 0)
(2.81954 0.657289 0)
(2.75089 0.410322 0)
(2.73118 0.298274 0)
(2.69235 0.139504 0)
(2.67342 0.0717151 0)
(2.64551 -0.019292 0)
(2.60888 -0.0779195 0)
(2.57582 -0.0948018 0)
(2.5557 -0.112493 0)
(2.51849 -0.204695 0)
(2.44463 -0.362503 0)
(2.45179 -0.350161 0)
(1.29781 1.08598 0)
(1.43656 1.22776 0)
(1.6741 1.78779 0)
(1.66618 2.07003 0)
(1.96372 1.86382 0)
(2.25474 1.81238 0)
(2.34664 1.51631 0)
(2.4795 1.19166 0)
(2.6028 1.03157 0)
(2.62727 0.995266 0)
(2.63914 0.85153 0)
(2.64893 0.681956 0)
(2.63707 0.543697 0)
(2.66583 0.453851 0)
(2.64308 0.288091 0)
(2.6578 0.194464 0)
(2.64329 0.0245162 0)
(2.60515 -0.135011 0)
(2.53508 -0.237054 0)
(2.55958 -0.145947 0)
(1.33576 1.18057 0)
(1.42585 1.2834 0)
(1.52604 1.78996 0)
(1.62154 2.03409 0)
(1.7381 2.00274 0)
(1.9804 1.82582 0)
(2.15194 1.72868 0)
(2.30259 1.49392 0)
(2.34717 1.42452 0)
(2.39036 1.35196 0)
(2.47486 1.14986 0)
(2.55839 1.00477 0)
(2.60455 0.777957 0)
(2.71557 0.662041 0)
(2.70186 0.383978 0)
(2.72653 0.240556 0)
(2.70622 0.058898 0)
(2.67025 0.0117551 0)
(2.63825 0.0759173 0)
(2.61354 0.0550288 0)
(1.42738 1.33024 0)
(1.50001 1.46566 0)
(1.49228 1.91243 0)
(1.59168 2.06439 0)
(1.71531 2.05988 0)
(1.89183 1.89777 0)
(1.98616 1.87743 0)
(2.1657 1.61261 0)
(2.24149 1.51211 0)
(2.37184 1.44421 0)
(2.49968 1.17929 0)
(2.63868 1.0363 0)
(2.689 0.753005 0)
(2.76648 0.628661 0)
(2.76925 0.434203 0)
(2.7626 0.415414 0)
(2.74946 0.334491 0)
(2.7162 0.38312 0)
(2.70701 0.434165 0)
(2.66146 0.251767 0)
(1.60812 1.49089 0)
(1.64719 1.64015 0)
(1.54685 2.07979 0)
(1.64698 2.17606 0)
(1.77266 2.09318 0)
(1.93003 1.92606 0)
(1.99753 1.92916 0)
(2.20122 1.64602 0)
(2.35249 1.58122 0)
(2.52139 1.43769 0)
(2.61902 1.2527 0)
(2.72669 1.09362 0)
(2.76418 1.00181 0)
(2.77997 0.958608 0)
(2.77936 0.866703 0)
(2.74551 0.835844 0)
(2.71731 0.737269 0)
(2.72791 0.754234 0)
(2.73143 0.647014 0)
(2.7267 0.413196 0)
(1.78661 1.58914 0)
(1.89064 1.69529 0)
(1.7212 2.16899 0)
(1.75203 2.23377 0)
(1.88481 2.10189 0)
(2.0569 1.97302 0)
(2.11567 2.03495 0)
(2.31569 1.77285 0)
(2.4133 1.80541 0)
(2.53985 1.60399 0)
(2.60386 1.57947 0)
(2.70001 1.40128 0)
(2.67501 1.37449 0)