/*--------------------------------*- C++ -*----------------------------------*\
  =========                 |
  \\      /  F ield         | OpenFOAM: The Open Source CFD Toolbox
   \\    /   O peration     | Website:  https://openfoam.org
    \\  /    A nd           | Version:  7
     \\/     M anipulation  |
\*---------------------------------------------------------------------------*/
FoamFile
{
    version     2.0;
    format      ascii;
    class       volScalarField;
    location    "4.5";
    object      rho;
}
// * * * * * * * * * * * * * * * * * * * * * * * * * * * * * * * * * * * * * //

dimensions      [1 -3 0 0 0 0 0];

internalField   nonuniform List<scalar> 
3700
(
0.292525
0.398884
0.489761
0.523514
0.521921
0.544612
0.55141
0.547844
0.552563
0.555757
0.56167
0.593914
0.633708
0.653878
0.662885
0.684819
0.707671
0.700158
0.729814
0.742674
0.194515
0.171042
0.183035
0.16825
0.155156
0.167304
0.182245
0.192952
0.200512
0.203941
0.209417
0.202687
0.196366
0.20341
0.224659
0.255776
0.258229
0.25381
0.26216
0.27032
0.171029
0.135535
0.119264
0.0861384
0.0623636
0.0657732
0.0744911
0.0915976
0.104663
0.114962
0.126286
0.124935
0.125071
0.12515
0.126208
0.129923
0.139631
0.153919
0.169715
0.188585
0.141079
0.121517
0.108824
0.0730034
0.0570486
0.0624889
0.0729955
0.0907344
0.103918
0.122112
0.148153
0.1642
0.177842
0.185753
0.188904
0.191171
0.188256
0.190447
0.204617
0.243123
0.115234
0.106528
0.0896445
0.0581007
0.0557974
0.0629791
0.0756485
0.0896043
0.101895
0.119738
0.146317
0.170275
0.198301
0.223404
0.241271
0.25902
0.254807
0.256403
0.256793
0.283715
0.100852
0.0882463
0.061851
0.0539971
0.0604713
0.0803972
0.0979272
0.107437
0.119233
0.13377
0.145801
0.166029
0.202641
0.243231
0.277222
0.311605
0.341568
0.369829
0.380815
0.405927
0.079501
0.0655118
0.0507167
0.0586588
0.0729129
0.0974675
0.122051
0.14213
0.170322
0.199202
0.192586
0.199622
0.216166
0.254138
0.297756
0.348967
0.405424
0.462112
0.509374
0.584014
0.0573529
0.0492857
0.0521881
0.0635357
0.0783637
0.103182
0.12949
0.159865
0.215772
0.261269
0.287228
0.312379
0.324391
0.350048
0.374649
0.414799
0.472384
0.56138
0.640075
0.78435
0.0404825
0.0385916
0.0540452
0.068206
0.081877
0.10478
0.126856
0.159831
0.228589
0.297727
0.359465
0.408462
0.465931
0.519534
0.556846
0.598766
0.639224
0.715873
0.813322
1.02618
0.0310101
0.0324691
0.0514577
0.0697114
0.089501
0.120773
0.132751
0.160973
0.221167
0.308291
0.400578
0.481707
0.588354
0.670777
0.757391
0.841918
0.92123
0.999607
1.12193
1.32452
0.0264156
0.0301328
0.0520887
0.0736141
0.10943
0.15821
0.17876
0.2356
0.304721
0.366198
0.464421
0.579392
0.719722
0.838079
0.971208
1.11638
1.26145
1.3841
1.60399
1.56004
0.0241989
0.0324674
0.0592094
0.0907572
0.150378
0.224914
0.284207
0.395643
0.521993
0.651751
0.772542
0.889518
1.01444
1.13507
1.26966
1.45881
1.68374
1.8829
2.1737
2.10311
0.0247329
0.0393691
0.0719157
0.126643
0.194746
0.279333
0.390509
0.548578
0.740826
0.965404
1.14527
1.3215
1.48919
1.64855
1.82087
2.03811
2.29198
2.54654
2.92981
2.91626
0.0273998
0.0452777
0.0874892
0.148938
0.216153
0.296065
0.472324
0.677486
0.949416
1.28201
1.5613
1.82887
2.08071
2.32458
2.61985
2.93748
3.24681
3.58795
3.90663
4.17545
0.0269697
0.0506737
0.0962717
0.141583
0.233172
0.380171
0.679355
1.04999
1.52585
1.96138
2.32671
2.65094
2.97169
3.31203
3.7459
4.14131
4.5179
4.86711
5.0939
5.26767
0.0136559
0.0502011
0.120227
0.1447
0.383815
0.955347
1.51342
2.10325
2.75758
3.29152
3.68019
4.03716
4.39337
4.79313
5.24578
5.52159
5.67848
5.73393
5.60556
5.43244
0.00767454
0.0497248
0.193748
0.520433
1.20813
2.04912
2.83788
3.63573
4.43771
4.95347
5.27473
5.59367
5.86495
6.07736
6.22119
6.11947
5.81953
5.07531
3.88053
2.62706
0.0553142
0.254299
0.672108
1.6703
2.98115
3.99478
4.86843
5.80757
6.60379
6.71574
6.60735
6.59952
6.5322
6.28376
5.57284
4.25692
2.91505
1.86195
1.42513
1.39021
0.419282
1.17253
2.76577
4.41214
5.80226
6.69536
7.50601
8.13977
7.94308
7.33336
6.74893
6.0006
4.72283
3.24218
1.99199
1.44076
1.38527
1.393
1.39631
1.39923
3.22451
5.06472
6.7729
7.91126
8.73774
8.85728
9.04679
8.62012
6.29649
4.45798
3.29373
2.17276
1.50729
1.38209
1.39
1.39481
1.39884
1.39997
1.40003
1.40002
9.65313
9.57856
9.52912
9.62411
9.7472
9.32178
8.33728
3.30781
0.898567
1.40001
1.40001
1.40001
1.40001
1.40001
1.40001
1.40001
1.40001
1.40001
1.40001
1.40001
9.65003
9.56174
9.4536
9.38196
9.48811
8.00332
3.76954
1.44728
1.40001
1.40001
1.40001
1.40001
1.40001
1.40001
1.40001
1.40001
1.40001
1.40001
1.40001
1.40001
9.42484
9.48726
9.47977
9.30568
8.73792
4.67475
1.4339
1.39926
1.40001
1.40001
1.40001
1.40001
1.40001
1.40001
1.40001
1.40001
1.40001
1.40001
1.40001
1.40001
9.24997
9.43352
9.47124
9.21132
6.43333
1.95606
1.3921
1.40016
1.4
1.40001
1.40001
1.40001
1.40001
1.40001
1.40001
1.40001
1.40001
1.40001
1.40001
1.40001
9.1028
9.42048
9.42965
8.4066
3.73165
1.36628
1.40049
1.4
1.40001
1.40001
1.40001
1.40001
1.40001
1.40001
1.40001
1.40001
1.40001
1.40001
1.40001
1.40001
8.97356
9.46068
9.39013
6.84144
2.08018
1.40001
1.40001
1.40001
1.40001
1.40001
1.40001
1.40001
1.40001
1.40001
1.40001
1.40001
1.40001
1.40001
1.40001
1.40001
8.88756
9.32623
9.34576
4.94328
1.36236
1.40001
1.40001
1.40001
1.40001
1.40001
1.40001
1.40001
1.40001
1.40001
1.40001
1.40001
1.40001
1.40001
1.40001
1.40001
8.96032
9.18066
8.33579
2.85248
1.39992
1.40001
1.40001
1.40001
1.40001
1.40001
1.40001
1.40001
1.40001
1.40001
1.40001
1.40001
1.40001
1.40001
1.40001
1.40001
9.69099
9.20827
6.75661
1.69704
1.40001
1.40001
1.40001
1.40001
1.40001
1.40001
1.40001
1.40001
1.40001
1.40001
1.40001
1.40001
1.40001
1.40001
1.40001
1.40001
10.1007
8.92836
4.73321
1.38322
1.40001
1.40001
1.40001
1.40001
1.40001
1.40001
1.40001
1.40001
1.40001
1.40001
1.40001
1.40001
1.40001
1.40001
1.40001
1.40001
10.2685
8.24173
3.2289
1.40001
1.40001
1.40001
1.40001
1.40001
1.40001
1.40001
1.40001
1.40001
1.40001
1.40001
1.40001
1.40001
1.40001
1.40001
1.40001
1.40001
10.3519
7.4906
2.25398
1.40001
1.40001
1.40001
1.40001
1.40001
1.40001
1.40001
1.40001
1.40001
1.40001
1.40001
1.40001
1.40001
1.40001
1.40001
1.40001
1.40001
10.3916
6.63288
1.66162
1.40001
1.40001
1.40001
1.40001
1.40001
1.40001
1.40001
1.40001
1.40001
1.40001
1.40001
1.40001
1.40001
1.40001
1.40001
1.40001
1.40001
10.2117
5.61617
1.43006
1.40001
1.40001
1.40001
1.40001
1.40001
1.40001
1.40001
1.40001
1.40001
1.40001
1.40001
1.40001
1.40001
1.40001
1.40001
1.40001
1.40001
10.1136
4.42177
1.40001
1.40001
1.40001
1.40001
1.40001
1.40001
1.40001
1.40001
1.40001
1.40001
1.40001
1.40001
1.40001
1.40001
1.40001
1.40001
1.40001
1.40001
9.58232
3.446
1.40001
1.40001
1.40001
1.40001
1.40001
1.40001
1.40001
1.40001
1.40001
1.40001
1.40001
1.40001
1.40001
1.40001
1.40001
1.40001
1.40001
1.40001
9.20805
2.65381
1.40001
1.40001
1.40001
1.40001
1.40001
1.40001
1.40001
1.40001
1.40001
1.40001
1.40001
1.40001
1.40001
1.40001
1.40001
1.40001
1.40001
1.40001
8.82886
1.91852
1.40001
1.40001
1.40001
1.40001
1.40001
1.40001
1.40001
1.40001
1.40001
1.40001
1.40001
1.40001
1.40001
1.40001
1.40001
1.40001
1.40001
1.40001
7.87279
1.40824
1.40001
1.40001
1.40001
1.40001
1.40001
1.40001
1.40001
1.40001
1.40001
1.40001
1.40001
1.40001
1.40001
1.40001
1.40001
1.40001
1.40001
1.40001
6.4559
1.40009
1.40001
1.40001
1.40001
1.40001
1.40001
1.40001
1.40001
1.40001
1.40001
1.40001
1.40001
1.40001
1.40001
1.40001
1.40001
1.40001
1.40001
1.40001
6.45606
1.40009
1.40001
1.40001
1.40001
1.40001
1.40001
1.40001
1.40001
1.40001
1.40001
1.40001
1.40001
1.40001
1.40001
1.40001
1.40001
1.40001
1.40001
1.40001
7.86793
1.40822
1.40001
1.40001
1.40001
1.40001
1.40001
1.40001
1.40001
1.40001
1.40001
1.40001
1.40001
1.40001
1.40001
1.40001
1.40001
1.40001
1.40001
1.40001
8.83189
1.92006
1.40001
1.40001
1.40001
1.40001
1.40001
1.40001
1.40001
1.40001
1.40001
1.40001
1.40001
1.40001
1.40001
1.40001
1.40001
1.40001
1.40001
1.40001
9.21029
2.66277
1.40001
1.40001
1.40001
1.40001
1.40001
1.40001
1.40001
1.40001
1.40001
1.40001
1.40001
1.40001
1.40001
1.40001
1.40001
1.40001
1.40001
1.40001
9.57311
3.44952
1.40001
1.40001
1.40001
1.40001
1.40001
1.40001
1.40001
1.40001
1.40001
1.40001
1.40001
1.40001
1.40001
1.40001
1.40001
1.40001
1.40001
1.40001
10.1055
4.41562
1.40001
1.40001
1.40001
1.40001
1.40001
1.40001
1.40001
1.40001
1.40001
1.40001
1.40001
1.40001
1.40001
1.40001
1.40001
1.40001
1.40001
1.40001
10.219
5.60756
1.42805
1.40001
1.40001
1.40001
1.40001
1.40001
1.40001
1.40001
1.40001
1.40001
1.40001
1.40001
1.40001
1.40001
1.40001
1.40001
1.40001
1.40001
10.3949
6.63732
1.6609
1.40001
1.40001
1.40001
1.40001
1.40001
1.40001
1.40001
1.40001
1.40001
1.40001
1.40001
1.40001
1.40001
1.40001
1.40001
1.40001
1.40001
10.3534
7.49927
2.25727
1.40001
1.40001
1.40001
1.40001
1.40001
1.40001
1.40001
1.40001
1.40001
1.40001
1.40001
1.40001
1.40001
1.40001
1.40001
1.40001
1.40001
10.2651
8.23615
3.2345
1.40001
1.40001
1.40001
1.40001
1.40001
1.40001
1.40001
1.40001
1.40001
1.40001
1.40001
1.40001
1.40001
1.40001
1.40001
1.40001
1.40001
10.0942
8.91604
4.73023
1.38331
1.40001
1.40001
1.40001
1.40001
1.40001
1.40001
1.40001
1.40001
1.40001
1.40001
1.40001
1.40001
1.40001
1.40001
1.40001
1.40001
9.69541
9.22012
6.75361
1.68832
1.40001
1.40001
1.40001
1.40001
1.40001
1.40001
1.40001
1.40001
1.40001
1.40001
1.40001
1.40001
1.40001
1.40001
1.40001
1.40001
8.96473
9.17913
8.33541
2.85572
1.39994
1.40001
1.40001
1.40001
1.40001
1.40001
1.40001
1.40001
1.40001
1.40001
1.40001
1.40001
1.40001
1.40001
1.40001
1.40001
8.87663
9.30941
9.34862
4.95231
1.36227
1.40001
1.40001
1.40001
1.40001
1.40001
1.40001
1.40001
1.40001
1.40001
1.40001
1.40001
1.40001
1.40001
1.40001
1.40001
8.96898
9.46302
9.39449
6.8529
2.08082
1.40001
1.40001
1.40001
1.40001
1.40001
1.40001
1.40001
1.40001
1.40001
1.40001
1.40001
1.40001
1.40001
1.40001
1.40001
9.10715
9.42777
9.42964
8.39178
3.73731
1.36628
1.40049
1.4
1.40001
1.40001
1.40001
1.40001
1.40001
1.40001
1.40001
1.40001
1.40001
1.40001
1.40001
1.40001
9.25517
9.43794
9.47211
9.2098
6.44184
1.94919
1.39223
1.40016
1.4
1.40001
1.40001
1.40001
1.40001
1.40001
1.40001
1.40001
1.40001
1.40001
1.40001
1.40001
9.42514
9.48826
9.48297
9.30927
8.73016
4.66059
1.43294
1.39928
1.40001
1.40001
1.40001
1.40001
1.40001
1.40001
1.40001
1.40001
1.40001
1.40001
1.40001
1.40001
9.64837
9.563
9.45809
9.38136
9.47299
8.00508
3.76234
1.4462
1.40001
1.40001
1.40001
1.40001
1.40001
1.40001
1.40001
1.40001
1.40001
1.40001
1.40001
1.40001
9.65291
9.57996
9.53223
9.6191
9.74199
9.32925
8.33858
3.31235
0.897223
1.40001
1.40001
1.40001
1.40001
1.40001
1.40001
1.40001
1.40001
1.40001
1.40001
1.40001
3.22451
5.05642
6.77156
7.91186
8.72547
8.86656
9.05347
8.62551
6.29518
4.45415
3.29011
2.17021
1.5065
1.382
1.38996
1.39479
1.39884
1.39997
1.40003
1.40002
0.425864
1.21807
2.78458
4.42537
5.81475
6.69581
7.50216
8.14134
7.94517
7.33387
6.74847
6.00006
4.72194
3.24249
1.99331
1.4413
1.38523
1.39296
1.39629
1.39923
0.0373047
0.180378
0.680168
1.6771
2.97536
4.00463
4.88037
5.80942
6.60483
6.72195
6.61471
6.60314
6.53611
6.28712
5.57439
4.25763
2.91724
1.86434
1.42577
1.39019
0.019188
0.0502294
0.155182
0.511052
1.23462
2.05454
2.83025
3.628
4.43589
4.9503
5.27368
5.59387
5.86663
6.07687
6.21843
6.11715
5.81826
5.077
3.88391
2.63012
0.0340516
0.058255
0.09435
0.132878
0.369548
0.960861
1.5284
2.11677
2.76519
3.29472
3.68045
4.03931
4.39796
4.79647
5.24801
5.52306
5.67736
5.73173
5.60366
5.43147
0.0463485
0.057023
0.08446
0.121254
0.197794
0.375827
0.68193
1.05463
1.53332
1.96612
2.32843
2.651
2.97171
3.31105
3.74507
4.13983
4.51469
4.86181
5.08843
5.26589
0.0459469
0.0494255
0.0820466
0.143668
0.207433
0.270639
0.448973
0.656492
0.930649
1.2641
1.5479
1.81866
2.07467
2.32142
2.61986
2.9383
3.24699
3.58463
3.90398
4.17512
0.0387552
0.045487
0.0715138
0.135684
0.200799
0.267818
0.381238
0.538946
0.729609
0.957012
1.13896
1.31872
1.48973
1.65221
1.8263
2.04266
2.29358
2.54505
2.92738
2.91517
0.0310837
0.0426669
0.0655713
0.105708
0.165393
0.229586
0.292137
0.403544
0.528002
0.658945
0.779721
0.897557
1.02089
1.13995
1.27145
1.45696
1.68286
1.88412
2.17612
2.10654
0.0311433
0.038952
0.0646674
0.0827646
0.120117
0.169296
0.189245
0.246118
0.316548
0.377387
0.46944
0.578099
0.714057
0.83293
0.967353
1.11568
1.2631
1.38796
1.60695
1.55901
0.0343863
0.0404627
0.061674
0.0745922
0.0914852
0.125809
0.134442
0.162709
0.22164
0.305067
0.39591
0.476079
0.583763
0.667804
0.757565
0.844846
0.926282
1.00265
1.1227
1.32234
0.0410537
0.0441779
0.0626675
0.0723881
0.0822261
0.105364
0.126925
0.158747
0.225124
0.293153
0.35646
0.40686
0.467716
0.522688
0.562389
0.604492
0.64398
0.715781
0.809349
1.02169
0.0519679
0.0510464
0.0634758
0.0691321
0.0782033
0.102941
0.128386
0.15747
0.21276
0.258371
0.288668
0.316717
0.330467
0.356052
0.376766
0.41212
0.465959
0.555526
0.635684
0.781642
0.0689957
0.0641211
0.06384
0.0645456
0.0731674
0.0975332
0.120585
0.140536
0.170302
0.201332
0.196221
0.205347
0.215586
0.246414
0.289596
0.342597
0.400508
0.458964
0.507853
0.585271
0.0907177
0.0845011
0.0717307
0.0568875
0.0626621
0.0830778
0.0976411
0.106847
0.119302
0.135506
0.143059
0.158552
0.192697
0.236932
0.274082
0.310163
0.341666
0.370591
0.384271
0.409889
0.117075
0.103444
0.0910873
0.0589575
0.0543156
0.0650699
0.0751603
0.0853351
0.0984101
0.114149
0.137778
0.160863
0.193547
0.222806
0.243329
0.262848
0.259426
0.261342
0.261182
0.284917
0.145296
0.118606
0.103297
0.069522
0.0539725
0.0610873
0.0717009
0.0845494
0.0994769
0.115665
0.140484
0.159983
0.1791
0.190002
0.194483
0.196885
0.192207
0.192774
0.204314
0.242678
0.159533
0.126108
0.107833
0.0790839
0.0567565
0.0620944
0.0735084
0.0866577
0.0995042
0.111695
0.129704
0.129934
0.130212
0.129904
0.130209
0.132027
0.13876
0.152394
0.169108
0.189451
0.173308
0.14491
0.144332
0.135775
0.112453
0.099084
0.116765
0.149707
0.188657
0.228337
0.281584
0.319796
0.339357
0.324045
0.288409
0.255067
0.260234
0.283029
0.319987
0.328993
0.281187
0.393547
0.447621
0.491986
0.488615
0.480415
0.503654
0.529913
0.562118
0.591348
0.61984
0.656925
0.679247
0.683592
0.66972
0.671263
0.710877
0.726827
0.744858
0.741155
0.790947
0.878907
0.960399
1.1091
1.17897
1.2165
1.2043
1.1719
1.17166
1.21641
1.31168
1.3523
1.3431
1.29663
1.27915
1.29994
1.34876
1.37157
1.36254
1.3259
0.430052
0.593106
0.751204
0.925459
1.07934
1.19999
1.20997
1.19127
1.19109
1.22087
1.28922
1.33077
1.33136
1.31455
1.2947
1.30125
1.33025
1.35144
1.34675
1.32601
0.194287
0.225777
0.329627
0.465974
0.698207
0.98734
1.10856
1.19954
1.22729
1.22793
1.26444
1.30096
1.31388
1.32108
1.32118
1.3208
1.32441
1.32833
1.32842
1.32367
0.269758
0.30589
0.316068
0.32093
0.338
0.456906
0.763277
1.05716
1.14925
1.21055
1.25055
1.27691
1.29272
1.32159
1.33417
1.3348
1.32722
1.31911
1.32094
1.3227
0.332705
0.368486
0.390435
0.394143
0.397617
0.402905
0.439762
0.607697
0.906063
1.12955
1.18902
1.22355
1.27119
1.3232
1.34291
1.34284
1.33029
1.31294
1.31576
1.32196
0.419892
0.466633
0.466886
0.443677
0.428127
0.43386
0.466128
0.480109
0.540978
0.734366
0.999286
1.14738
1.21402
1.30744
1.33486
1.33837
1.33196
1.31493
1.31825
1.32519
0.547582
0.574958
0.56106
0.50492
0.49159
0.498935
0.511198
0.539259
0.540936
0.540438
0.633548
0.912976
1.125
1.25725
1.32364
1.33501
1.32803
1.31401
1.32285
1.32725
0.727553
0.702609
0.673659
0.612432
0.556131
0.543267
0.56042
0.578364
0.581203
0.575778
0.563157
0.618323
0.891211
1.13896
1.26731
1.32284
1.3081
1.30951
1.33456
1.33017
0.943696
0.864514
0.793848
0.712954
0.644581
0.621538
0.616856
0.620338
0.622754
0.612228
0.597686
0.580706
0.627711
0.872415
1.14653
1.30038
1.26808
1.29912
1.34532
1.33268
1.2012
1.0571
0.96141
0.867487
0.763181
0.696664
0.671741
0.664247
0.658486
0.652546
0.634403
0.610102
0.60742
0.64405
0.854464
1.15544
1.22289
1.31555
1.35482
1.32941
1.77214
1.28466
1.10412
1.04289
0.981316
0.870358
0.746372
0.718738
0.71165
0.713712
0.702738
0.682246
0.663877
0.664622
0.675847
0.792788
1.05332
1.2503
1.31611
1.316
2.85556
2.09571
1.50404
1.29812
1.27538
1.17692
0.993635
0.88103
0.819318
0.786326
0.761538
0.752582
0.739287
0.718115
0.681679
0.687485
0.743047
0.896155
1.11233
1.26631
3.47977
3.03825
2.41374
1.79593
1.51743
1.34774
1.19899
1.06845
0.964037
0.949049
0.931216
0.882239
0.834211
0.804637
0.770254
0.737655
0.739359
0.748424
0.81049
1.04601
3.29887
3.27
3.12055
2.70115
2.1495
1.74541
1.51938
1.35539
1.19852
1.14472
1.08912
1.00083
0.911822
0.863324
0.830609
0.815158
0.793773
0.76744
0.766143
0.814513
2.34955
2.99872
3.09691
3.0583
2.84859
2.47485
2.06948
1.75476
1.49918
1.31452
1.20558
1.12191
1.05283
0.987203
0.96722
0.951363
0.917842
0.872001
0.808214
0.804702
1.55188
2.01177
2.57879
2.94889
2.94528
2.89211
2.69621
2.35272
2.02048
1.69886
1.48354
1.37944
1.29619
1.19789
1.11119
1.03238
0.979205
0.925673
0.877207
0.840508
1.40635
1.46149
1.6864
2.1622
2.60393
2.8211
2.81307
2.74518
2.56758
2.26717
1.94399
1.70029
1.50452
1.37168
1.25315
1.1182
1.08249
1.04382
1.02291
0.973238
1.40014
1.40153
1.41469
1.50968
1.77341
2.19858
2.54558
2.70337
2.69469
2.63683
2.46887
2.20811
1.91953
1.70062
1.54345
1.39277
1.2973
1.24145
1.17359
1.06367
1.40001
1.40002
1.40021
1.40353
1.42593
1.54041
1.80692
2.17843
2.47157
2.59439
2.58532
2.53442
2.40115
2.16605
1.92952
1.71516
1.52613
1.39358
1.29703
1.16855
1.40001
1.40001
1.40001
1.40004
1.40045
1.40542
1.43506
1.55065
1.79791
2.12819
2.37971
2.49842
2.49329
2.45372
2.33993
2.1541
1.93058
1.71184
1.56972
1.39932
1.40001
1.40001
1.40001
1.40001
1.40001
1.40007
1.40071
1.40652
1.43655
1.54762
1.7696
2.06301
2.29098
2.41123
2.40692
2.3801
2.2966
2.13301
1.95052
1.67375
1.40001
1.40001
1.40001
1.40001
1.40001
1.40001
1.40001
1.40009
1.4008
1.4067
1.4357
1.53184
1.72443
1.99431
2.19669
2.33051
2.32829
2.31035
2.25878
2.04716
1.40001
1.40001
1.40001
1.40001
1.40001
1.40001
1.40001
1.40001
1.40001
1.40009
1.40082
1.40593
1.43046
1.5119
1.67757
1.9191
2.11064
2.24136
2.25688
2.22421
1.40001
1.40001
1.40001
1.40001
1.40001
1.40001
1.40001
1.40001
1.40001
1.40001
1.40001
1.40008
1.40072
1.40467
1.42566
1.48782
1.62936
1.83822
2.02053
2.16627
1.40001
1.40001
1.40001
1.40001
1.40001
1.40001
1.40001
1.40001
1.40001
1.40001
1.40001
1.40001
1.40001
1.40007
1.40059
1.40352
1.41959
1.47185
1.59082
1.94096
2.24956
3.4204
3.594
2.90963
1.83306
1.4516
1.40261
1.40007
1.40001
1.40001
1.40001
1.40001
1.40001
1.40001
1.40001
3.25449
3.91151
3.5183
2.15479
1.46777
1.40115
1.40001
1.4
1.40001
1.40001
1.40001
1.40001
1.40001
1.40001
1.40001
4.07444
3.98593
2.76067
1.61245
1.40726
1.40007
1.40001
1.40001
1.40001
1.40001
1.40001
1.40001
1.40001
1.40001
1.40001
4.52008
3.56196
1.90884
1.4274
1.40028
1.40001
1.40001
1.40001
1.40001
1.40001
1.40001
1.40001
1.40001
1.40001
1.40001
4.62476
2.35145
1.46565
1.40069
1.40001
1.40001
1.40001
1.40001
1.40001
1.40001
1.40001
1.40001
1.40001
1.40001
1.40001
2.88093
1.50178
1.40068
1.4
1.4
1.4
1.40001
1.40001
1.40001
1.40001
1.40001
1.40001
1.40001
1.40001
1.40001
1.53979
1.40075
1.4
1.4
1.40001
1.40001
1.40001
1.40001
1.40001
1.40001
1.40001
1.40001
1.40001
1.40001
1.40001
1.39744
1.39982
1.4
1.40001
1.40001
1.40001
1.40001
1.40001
1.40001
1.40001
1.40001
1.40001
1.40001
1.40001
1.40001
1.39996
1.40001
1.40001
1.40001
1.40001
1.40001
1.40001
1.40001
1.40001
1.40001
1.40001
1.40001
1.40001
1.40001
1.40001
1.40001
1.40001
1.40001
1.40001
1.40001
1.40001
1.40001
1.40001
1.40001
1.40001
1.40001
1.40001
1.40001
1.40001
1.40001
1.40001
1.40001
1.40001
1.40001
1.40001
1.40001
1.40001
1.40001
1.40001
1.40001
1.40001
1.40001
1.40001
1.40001
1.40001
1.40001
1.40001
1.40001
1.40001
1.40001
1.40001
1.40001
1.40001
1.40001
1.40001
1.40001
1.40001
1.40001
1.40001
1.40001
1.40001
1.40001
1.40001
1.40001
1.40001
1.40001
1.40001
1.40001
1.40001
1.40001
1.40001
1.40001
1.40001
1.40001
1.40001
1.40001
1.40001
1.40001
1.40001
1.40001
1.40001
1.40001
1.40001
1.40001
1.40001
1.40001
1.40001
1.40001
1.40001
1.40001
1.40001
1.40001
1.40001
1.40001
1.40001
1.40001
1.40001
1.40001
1.40001
1.40001
1.40001
1.40001
1.40001
1.40001
1.40001
1.40001
1.40001
1.40001
1.40001
1.40001
1.40001
1.40001
1.40001
1.40001
1.40001
1.40001
1.40001
1.40001
1.40001
1.40001
1.40001
1.40001
1.40001
1.40001
1.40001
1.40001
1.40001
1.40001
1.40001
1.40001
1.40001
1.40001
1.40001
1.40001
1.40001
1.40001
1.40001
1.40001
1.40001
1.40001
1.40001
1.40001
1.40001
1.40001
1.40001
1.40001
1.40001
1.40001
1.40001
1.40001
1.40001
1.40001
1.40001
1.40001
1.40001
1.40001
1.40001
1.40001
1.40001
1.40001
1.40001
1.40001
1.40001
1.40001
1.40001
1.40001
1.40001
1.40001
1.40001
1.40001
1.40001
1.40001
1.40001
1.40001
1.40001
1.40001
1.40001
1.40001
1.40001
1.40001
1.40001
1.40001
1.40001
1.40001
1.40001
1.40001
1.40001
1.40001
1.40001
1.40001
1.40001
1.40001
1.40001
1.40001
1.40001
1.40001
1.40001
1.40001
1.40001
1.40001
1.40001
1.40001
1.40001
1.40001
1.40001
1.40001
1.40001
1.40001
1.40001
1.40001
1.40001
1.40001
1.40001
1.40001
1.40001
1.40001
1.40001
1.40001
1.40001
1.40001
1.40001
1.40001
1.40001
1.40001
1.40001
1.40001
1.40001
1.40001
1.40001
1.40001
1.40001
1.40001
1.40001
1.40001
1.40001
1.40001
1.40001
1.40001
1.40001
1.40001
1.40001
1.40001
1.40001
1.40001
1.40001
1.40001
1.40001
1.40001
1.40001
1.40001
1.40001
1.40001
1.40001
1.40001
1.40001
1.40001
1.40001
1.40001
1.40001
1.40001
1.40001
1.40001
1.40001
1.40001
1.40001
1.40001
1.40001
1.40001
1.40001
1.40001
1.40001
1.40001
1.40001
1.40001
1.40001
1.40001
1.40001
1.40001
1.40001
1.40001
1.40001
1.40001
1.40001
1.40001
1.40001
1.40001
1.40001
1.40001
1.40001
1.40001
1.40001
1.40001
1.40001
1.40001
1.40001
1.40001
1.40001
1.40001
1.40001
1.40001
1.40001
1.40001
1.40001
1.40001
1.40001
1.40001
1.40001
1.40001
1.40001
1.40001
1.40001
1.40001
1.40001
1.40001
1.40001
1.40001
1.40001
1.40001
1.40001
1.40001
1.40001
1.40001
1.40001
1.40001
1.40001
1.40001
1.40001
1.40001
1.40001
1.40001
1.40001
1.40001
1.40001
1.40001
1.40001
1.40001
1.40001
1.40001
1.40001
1.40001
1.40001
1.40001
1.40001
1.40001
1.40001
1.40001
1.40001
1.40001
1.40001
1.40001
1.40001
1.40001
1.40001
1.40001
1.40001
1.40001
1.40001
1.40001
1.40001
1.40001
1.40001
1.40001
1.40001
1.40001
1.40001
1.40001
1.40001
1.40001
1.40001
1.40001
1.40001
1.40001
1.40001
1.40001
1.40001
1.40001
1.40001
1.40001
1.40001
1.40001
1.40001
1.40001
1.40001
1.40001
1.40001
1.40001
1.40001
1.40001
1.40001
1.40001
1.40001
1.40001
1.40001
1.40001
1.40001
1.40001
1.40001
1.40001
1.40001
1.40001
1.40001
1.40001
1.40001
1.40001
1.40001
1.40001
1.40001
1.40001
1.40001
1.40001
1.40001
1.40001
1.40001
1.40001
1.40001
1.40001
1.40001
1.40001
1.40001
1.40001
1.40001
1.40001
1.40001
1.40001
1.40001
1.40001
1.40001
1.40001
1.40001
1.40001
1.40001
1.40001
1.40001
1.40001
1.40001
1.40001
1.40001
1.40001
1.40001
1.40001
1.40001
1.40001
1.40001
1.40001
1.40001
1.40001
1.40001
1.40001
1.40001
1.40001
1.40001
1.40001
1.40001
1.40001
1.40001
1.40001
1.40001
1.40001
1.40001
1.40001
1.40001
1.40001
1.40001
1.40001
1.40001
1.40001
1.40001
1.40001
1.40001
1.40001
1.40001
1.40001
1.40001
1.40001
1.40001
1.40001
1.40001
1.40001
1.40001
1.40001
1.40001
1.40001
1.40001
1.40001
1.40001
1.40001
1.40001
1.40001
1.40001
1.40001
1.40001
1.40001
1.40001
1.40001
1.40001
1.40001
1.40001
1.40001
1.40001
1.40001
1.40001
1.40001
1.40001
1.40001
1.40001
1.40001
1.40001
1.40001
1.40001
1.40001
1.40001
1.40001
1.40001
1.40001
1.40001
1.40001
1.40001
1.40001
1.40001
1.40001
1.40001
1.40001
1.40001
1.40001
1.40001
1.40001
1.40001
1.40001
1.40001
1.40001
1.40001
1.40001
1.40001
1.40001
1.40001
1.40001
1.40001
1.40001
1.40001
1.40001
1.40001
1.40001
1.40001
1.40001
1.40001
1.40001
1.40001
1.40001
1.40001
1.40001
1.40001
1.40001
1.40001
1.40001
1.40001
1.40001
1.40001
1.40001
1.40001
1.40001
1.40001
1.40001
1.40001
1.40001
1.40001
1.40001
1.40001
1.40001
1.40001
1.40001
1.40001
1.40001
1.40001
1.40001
1.40001
1.40001
1.40001
1.40001
1.40001
1.40001
1.40001
1.40001
1.40001
1.40001
1.40001
1.40001
1.40001
1.40001
1.40001
1.40001
1.40001
1.40001
1.40001
1.40001
1.40001
1.40001
1.40001
1.40001
1.40001
1.40001
1.40001
1.40001
1.40001
1.40001
1.40001
1.40001
1.40001
1.40001
1.40001
1.40001
1.40001
1.40001
1.40001
1.40001
1.40001
1.40001
1.40001
1.40001
1.40001
1.40001
1.40001
1.40001
1.40001
1.40001
1.40001
1.40001
1.40001
1.40001
1.40001
1.40001
1.40001
1.40001
1.40001
1.40001
1.40001
1.40001
1.40001
1.40001
1.40001
1.40001
1.40001
1.40001
1.40001
1.40001
1.40001
1.40001
1.40001
1.40001
1.40001
1.40001
1.40001
1.40001
1.40001
1.40001
1.40001
1.40001
1.40001
1.40001
1.40001
1.40001
1.40001
1.40001
1.40001
1.40001
1.40001
1.40001
1.40001
1.40001
1.40001
1.40001
1.40001
1.40001
1.40001
1.40001
1.40001
1.40001
1.40001
1.40001
1.40001
1.40001
1.40001
1.40001
1.40001
1.40001
1.40001
1.40001
1.40001
1.40001
1.40001
1.40001
1.40001
1.40001
1.40001
1.40001
1.40001
1.40001
1.40001
1.40001
1.40001
1.40001
1.40001
1.40001
1.40001
1.40001
1.40001
1.40001
1.40001
1.40001
1.40001
1.40001
1.40001
1.40001
1.40001
1.40001
1.40001
1.40001
1.40001
1.40001
1.40001
1.40001
1.40001
1.40001
1.40001
1.40001
1.40001
1.40001
1.40001
1.40001
1.40001
1.40001
1.40001
1.40001
1.40001
1.40001
1.40001
1.40001
1.40001
1.40001
1.40001
1.40001
1.40001
1.40001
1.40001
1.40001
1.40001
1.40001
1.40001
1.40001
1.40001
1.40001
1.40001
1.40001
1.40001
1.40001
1.40001
1.40001
1.40001
1.40001
1.40001
1.40001
1.40001
1.40001
1.40001
1.40001
1.40001
1.40001
1.40001
1.40001
1.40001
1.40001
1.40001
1.40001
1.40001
1.40001
1.40001
1.40001
1.40001
1.40001
1.40001
1.40001
1.40001
1.40001
1.40001
1.40001
1.40001
1.40001
1.40001
1.40001
1.40001
1.40001
1.40001
1.40001
1.40001
1.40001
1.40001
1.40001
1.40001
1.40001
1.40001
1.40001
1.40001
1.40001
1.40001
1.40001
1.40001
1.40001
1.40001
1.40001
1.40001
1.40001
1.40001
1.40001
1.40001
1.40001
1.40001
1.40001
1.40001
1.40001
1.40001
1.40001
1.40001
1.40001
1.40001
1.40001
1.40001
1.40001
1.40001
1.40001
1.40001
1.40001
1.40001
1.40001
1.40001
1.40001
1.40001
1.40001
1.40001
1.40001
1.40001
1.40001
1.40001
1.40001
1.40001
1.40001
1.40001
1.39996
1.40001
1.40001
1.40001
1.40001
1.40001
1.40001
1.40001
1.40001
1.40001
1.40001
1.40001
1.40001
1.40001
1.40001
1.39743
1.39982
1.4
1.40001
1.40001
1.40001
1.40001
1.40001
1.40001
1.40001
1.40001
1.40001
1.40001
1.40001
1.40001
1.5403
1.40076
1.4
1.4
1.40001
1.40001
1.40001
1.40001
1.40001
1.40001
1.40001
1.40001
1.40001
1.40001
1.40001
2.88154
1.50194
1.4007
1.4
1.4
1.40001
1.40001
1.40001
1.40001
1.40001
1.40001
1.40001
1.40001
1.40001
1.40001
4.62518
2.3521
1.46558
1.40068
1.40001
1.40001
1.40001
1.40001
1.40001
1.40001
1.40001
1.40001
1.40001
1.40001
1.40001
4.52081
3.56263
1.90913
1.42742
1.40028
1.40001
1.40001
1.40001
1.40001
1.40001
1.40001
1.40001
1.40001
1.40001
1.40001
4.07483
3.98642
2.7599
1.61224
1.40726
1.40007
1.40001
1.40001
1.40001
1.40001
1.40001
1.40001
1.40001
1.40001
1.40001
3.25755
3.91237
3.51898
2.15439
1.46767
1.40115
1.40001
1.4
1.40001
1.40001
1.40001
1.40001
1.40001
1.40001
1.40001
2.24614
3.42187
3.59452
2.91004
1.83309
1.45161
1.40261
1.40007
1.40001
1.40001
1.40001
1.40001
1.40001
1.40001
1.40001
1.78507
2.85379
3.4799
3.29808
2.34967
1.55198
1.40636
1.40014
1.40001
1.40001
1.40001
1.40001
1.40001
1.40001
1.40001
1.26641
2.10777
3.03784
3.26987
2.99737
2.01157
1.46149
1.40153
1.40002
1.40001
1.40001
1.40001
1.40001
1.40001
1.40001
1.07702
1.50475
2.4113
3.12129
3.09682
2.57849
1.68635
1.41469
1.40021
1.40001
1.40001
1.40001
1.40001
1.40001
1.40001
1.03382
1.28024
1.79857
2.69894
3.0591
2.94936
2.16211
1.50962
1.40353
1.40004
1.40001
1.40001
1.40001
1.40001
1.40001
0.983409
1.26181
1.52282
2.14599
2.85037
2.94575
2.60407
1.77326
1.42591
1.40045
1.40001
1.40001
1.40001
1.40001
1.40001
0.865631
1.16442
1.35744
1.75602
2.47351
2.89306
2.82167
2.19854
1.5403
1.40541
1.40007
1.40001
1.40001
1.40001
1.40001
0.760161
0.982593
1.1845
1.53242
2.07212
2.69761
2.81348
2.54581
1.80689
1.43505
1.40071
1.40001
1.40001
1.40001
1.40001
0.75025
0.879364
1.0296
1.36349
1.76377
2.35133
2.74532
2.70353
2.1786
1.55074
1.40652
1.40009
1.40001
1.40001
1.40001
0.73912
0.832283
0.941121
1.1905
1.50265
2.02162
2.5685
2.69492
2.47179
1.79811
1.43658
1.40081
1.40001
1.40001
1.40001
0.725754
0.803125
0.940435
1.13578
1.31043
1.70474
2.26919
2.63728
2.5948
2.12842
1.54766
1.4067
1.40009
1.40001
1.40001
0.707031
0.782599
0.934662
1.08305
1.20006
1.49184
1.94512
2.46925
2.58568
2.38001
1.76964
1.43569
1.40082
1.40001
1.40001
0.676603
0.762113
0.897785
1.00333
1.11863
1.38396
1.70024
2.20768
2.53442
2.49849
2.06303
1.53183
1.40593
1.40008
1.40001
0.654758
0.744074
0.848454
0.914718
1.04561
1.29742
1.50315
1.91926
2.40134
2.49331
2.29093
1.72441
1.43046
1.40072
1.40001
0.651931
0.721234
0.812462
0.864664
0.976116
1.19432
1.37043
1.70034
2.16645
2.45373
2.41115
1.99421
1.51189
1.40467
1.40007
0.665483
0.678346
0.77311
0.833333
0.961696
1.10899
1.25362
1.54315
1.92901
2.33975
2.4068
2.19656
1.67752
1.42566
1.40059
0.785423
0.682331
0.737305
0.818249
0.949977
1.03199
1.12008
1.39311
1.71493
2.15362
2.37992
2.33039
1.91909
1.48782
1.40352
1.04537
0.737029
0.737138
0.796928
0.91862
0.979662
1.08313
1.29697
1.52646
1.93026
2.29642
2.3282
2.11058
1.62939
1.4196
1.24716
0.88985
0.745321
0.769119
0.873512
0.926172
1.04336
1.24055
1.39332
1.71154
2.133
2.31032
2.24134
1.83822
1.47185
1.31788
1.10943
0.808067
0.766888
0.80859
0.877445
1.02317
1.17291
1.29683
1.56951
1.95054
2.25878
2.25689
2.02052
1.59081
1.31696
1.26594
1.04501
0.814618
0.804661
0.839664
0.973959
1.06334
1.16881
1.39944
1.67379
2.0472
2.22424
2.16629
1.94097
1.19203
1.05182
0.976461
0.88088
0.76121
0.687308
0.654602
0.657017
0.662083
0.652121
0.626184
0.593659
0.598084
0.637285
0.849968
1.15103
1.22362
1.3146
1.35638
1.33049
0.931676
0.87161
0.813611
0.727263
0.640837
0.616741
0.614029
0.619321
0.619433
0.604636
0.57966
0.571498
0.620203
0.869858
1.1367
1.30262
1.27331
1.30221
1.34602
1.33211
0.723832
0.712377
0.683827
0.620049
0.562443
0.554365
0.567461
0.580542
0.582387
0.574116
0.554902
0.610017
0.874616
1.13558
1.28455
1.33052
1.31618
1.31071
1.33409
1.32972
0.549122
0.580998
0.564858
0.507365
0.487844
0.492027
0.507724
0.539977
0.540181
0.545349
0.641135
0.912883
1.12488
1.2713
1.34222
1.34494
1.33074
1.3126
1.32058
1.32605
0.421464
0.464643
0.479599
0.45111