/*--------------------------------*- C++ -*----------------------------------*\
  =========                 |
  \\      /  F ield         | OpenFOAM: The Open Source CFD Toolbox
   \\    /   O peration     | Website:  https://openfoam.org
    \\  /    A nd           | Version:  7
     \\/     M anipulation  |
\*---------------------------------------------------------------------------*/
FoamFile
{
    version     2.0;
    format      ascii;
    class       volVectorField;
    location    "4.5";
    object      U;
}
// * * * * * * * * * * * * * * * * * * * * * * * * * * * * * * * * * * * * * //

dimensions      [0 1 -1 0 0 0 0];

internalField   nonuniform List<vector> 
3700
(
(1.35273 -0.428077 0)
(1.36655 -0.464545 0)
(1.33323 -0.266269 0)
(1.40139 -0.275755 0)
(1.3902 -0.251909 0)
(1.34302 -0.182265 0)
(1.42146 -0.125502 0)
(1.48254 -0.175344 0)
(1.55445 -0.227675 0)
(1.57288 -0.169616 0)
(1.64384 -0.109655 0)
(1.68692 -0.156607 0)
(1.67382 -0.243893 0)
(1.63349 -0.2516 0)
(1.60242 -0.211763 0)
(1.62788 -0.123085 0)
(1.70467 -0.139271 0)
(1.77874 -0.237945 0)
(1.85635 -0.306539 0)
(1.87011 -0.317922 0)
(1.7069 -1.37371 0)
(1.84216 -1.25671 0)
(1.93535 -1.38036 0)
(1.99413 -1.5881 0)
(1.83675 -1.60689 0)
(1.7591 -1.50952 0)
(1.78856 -1.37447 0)
(1.80207 -1.46424 0)
(1.89409 -1.5564 0)
(1.91854 -1.44683 0)
(2.00433 -1.32923 0)
(2.1101 -1.35026 0)
(2.13985 -1.37091 0)
(2.11224 -1.33137 0)
(2.05099 -1.2329 0)
(2.04771 -1.04947 0)
(2.14805 -1.16555 0)
(2.24168 -1.26044 0)
(2.26758 -1.30735 0)
(2.30317 -1.31552 0)
(1.79606 -1.37001 0)
(2.00664 -1.20009 0)
(2.24109 -1.59599 0)
(2.31393 -1.93928 0)
(2.09533 -2.21128 0)
(2.02521 -2.29992 0)
(2.05323 -2.24218 0)
(1.964 -2.2269 0)
(1.99601 -2.16663 0)
(2.07435 -2.05584 0)
(2.14771 -2.03375 0)
(2.23884 -1.96053 0)
(2.34656 -1.90487 0)
(2.44515 -1.84053 0)
(2.53007 -1.79741 0)
(2.60027 -1.7388 0)
(2.59899 -1.76102 0)
(2.58207 -1.68866 0)
(2.5381 -1.66766 0)
(2.53222 -1.59896 0)
(1.91535 -1.42348 0)
(2.10202 -1.21017 0)
(2.25188 -1.5866 0)
(2.18494 -1.96903 0)
(2.07682 -2.17014 0)
(2.04508 -2.26726 0)
(2.08685 -2.22179 0)
(2.0606 -2.15846 0)
(2.11665 -2.07959 0)
(2.20602 -2.00462 0)
(2.22421 -2.03266 0)
(2.3119 -1.86684 0)
(2.38027 -1.79668 0)
(2.4632 -1.70471 0)
(2.58667 -1.60997 0)
(2.72188 -1.46544 0)
(2.76808 -1.36129 0)
(2.80756 -1.33134 0)
(2.79351 -1.35457 0)
(2.68331 -1.39181 0)
(1.90142 -1.45806 0)
(2.00817 -1.32067 0)
(1.98068 -1.74779 0)
(1.84633 -2.12217 0)
(1.93876 -2.19939 0)
(1.989 -2.25029 0)
(2.06659 -2.20062 0)
(2.1208 -2.10329 0)
(2.19392 -2.00365 0)
(2.34325 -1.82855 0)
(2.37236 -1.90691 0)
(2.45088 -1.79048 0)
(2.45876 -1.72051 0)
(2.47785 -1.64946 0)
(2.53883 -1.56301 0)
(2.62629 -1.44023 0)
(2.67222 -1.30125 0)
(2.79525 -1.13735 0)
(2.87507 -0.933861 0)
(2.8294 -0.909252 0)
(1.75716 -1.50194 0)
(1.82475 -1.50343 0)
(1.69231 -1.87231 0)
(1.69212 -2.17383 0)
(1.73012 -2.1931 0)
(1.84051 -2.13282 0)
(1.96321 -2.10399 0)
(2.18753 -1.83874 0)
(2.31882 -1.81381 0)
(2.45865 -1.69531 0)
(2.48821 -1.68502 0)
(2.59481 -1.55526 0)
(2.62289 -1.50707 0)
(2.61181 -1.47525 0)
(2.62093 -1.38968 0)
(2.62486 -1.32275 0)
(2.63707 -1.20474 0)
(2.72983 -1.15638 0)
(2.76181 -0.998022 0)
(2.84272 -0.766192 0)
(1.57319 -1.42239 0)
(1.63774 -1.46449 0)
(1.54645 -1.86477 0)
(1.54941 -2.14843 0)
(1.59493 -2.19698 0)
(1.80221 -2.05284 0)
(1.91209 -2.01187 0)
(2.08969 -1.75997 0)
(2.21562 -1.67504 0)
(2.4131 -1.58228 0)
(2.51867 -1.3797 0)
(2.64422 -1.28566 0)
(2.69645 -1.16774 0)
(2.71469 -1.15733 0)
(2.74306 -1.04492 0)
(2.7291 -1.03547 0)
(2.716 -0.932881 0)
(2.7116 -0.937191 0)
(2.73224 -0.900872 0)
(2.7585 -0.671938 0)
(1.44932 -1.26228 0)
(1.53126 -1.32283 0)
(1.51458 -1.80622 0)
(1.51903 -2.1075 0)
(1.62709 -2.17182 0)
(1.83156 -2.0426 0)
(1.96416 -1.98114 0)
(2.10095 -1.72536 0)
(2.16583 -1.64985 0)
(2.29725 -1.59506 0)
(2.42965 -1.34838 0)
(2.59393 -1.26562 0)
(2.64287 -0.977835 0)
(2.73842 -0.875919 0)
(2.7604 -0.665678 0)
(2.77031 -0.638074 0)
(2.77307 -0.560158 0)
(2.75103 -0.544079 0)
(2.73118 -0.65318 0)
(2.69863 -0.4963 0)
(1.42881 -1.11655 0)
(1.4779 -1.2092 0)
(1.52799 -1.75615 0)
(1.60302 -2.10463 0)
(1.78934 -2.1366 0)
(2.04578 -1.96724 0)
(2.1441 -1.82045 0)
(2.28063 -1.57994 0)
(2.32188 -1.57502 0)
(2.356 -1.53 0)
(2.44768 -1.32832 0)
(2.53887 -1.22006 0)
(2.58209 -0.990311 0)
(2.70085 -0.894274 0)
(2.70849 -0.631191 0)
(2.75705 -0.4733 0)
(2.75604 -0.288183 0)
(2.74173 -0.17005 0)
(2.70291 -0.261192 0)
(2.66297 -0.231353 0)
(1.38354 -1.04887 0)
(1.44466 -1.20225 0)
(1.59958 -1.82584 0)
(1.73958 -2.21727 0)
(2.18509 -2.12196 0)
(2.41003 -2.00386 0)
(2.48488 -1.59575 0)
(2.53221 -1.34939 0)
(2.58923 -1.2304 0)
(2.63972 -1.18886 0)
(2.64788 -1.10268 0)
(2.66514 -0.931574 0)
(2.64395 -0.801362 0)
(2.67681 -0.713873 0)
(2.66967 -0.54263 0)
(2.69349 -0.432853 0)
(2.70629 -0.272339 0)
(2.68732 -0.0745284 0)
(2.64872 0.0294595 0)
(2.61635 0.0229789 0)
(1.27123 -1.0356 0)
(1.42608 -1.27631 0)
(1.75729 -2.06052 0)
(1.97328 -2.43663 0)
(2.36948 -2.0229 0)
(2.45445 -1.91934 0)
(2.6351 -1.4062 0)
(2.74194 -1.20152 0)
(2.82867 -1.04221 0)
(2.81033 -0.675788 0)
(2.7963 -0.577146 0)
(2.75666 -0.392029 0)
(2.73345 -0.34895 0)
(2.71418 -0.254871 0)
(2.68373 -0.191181 0)
(2.65076 -0.155734 0)
(2.63688 -0.122958 0)
(2.61469 -0.0211926 0)
(2.55669 0.159176 0)
(2.56534 0.158908 0)
(1.13221 -1.02888 0)
(1.50604 -1.59154 0)
(1.99943 -2.29964 0)
(2.06043 -2.28756 0)
(2.25126 -1.78518 0)
(2.26077 -1.68751 0)
(2.40828 -1.2886 0)
(2.4962 -1.08716 0)
(2.55241 -0.99071 0)
(2.61076 -0.697327 0)
(2.68755 -0.493702 0)
(2.66854 -0.208158 0)
(2.67414 -0.0550903 0)
(2.64012 0.108001 0)
(2.60331 0.213346 0)
(2.56544 0.248959 0)
(2.5332 0.246623 0)
(2.52855 0.194826 0)
(2.45364 0.317715 0)
(2.47463 0.289263 0)
(1.03449 -1.08319 0)
(1.6385 -2.05106 0)
(1.92693 -2.18893 0)
(1.93967 -1.95341 0)
(2.13874 -1.64896 0)
(2.22664 -1.46945 0)
(2.33569 -1.16495 0)
(2.41817 -0.955063 0)
(2.45717 -0.743412 0)
(2.49903 -0.586702 0)
(2.55645 -0.388795 0)
(2.55591 -0.156997 0)
(2.57012 0.0144977 0)
(2.54585 0.191109 0)
(2.48963 0.368325 0)
(2.45454 0.450843 0)
(2.38011 0.56116 0)
(2.3579 0.527283 0)
(2.31854 0.561663 0)
(2.32833 0.516821 0)
(0.972745 -1.25328 0)
(1.61758 -2.21212 0)
(1.80996 -2.01681 0)
(1.921 -1.74631 0)
(2.17734 -1.52594 0)
(2.37839 -0.943835 0)
(2.45983 -0.784506 0)
(2.53274 -0.543727 0)
(2.51371 -0.210149 0)
(2.53686 -0.113164 0)
(2.52374 0.0740399 0)
(2.48784 0.218802 0)
(2.45328 0.324918 0)
(2.41468 0.414358 0)
(2.35911 0.509273 0)
(2.33174 0.558849 0)
(2.24856 0.666535 0)
(2.19174 0.741467 0)
(2.15791 0.789529 0)
(2.14231 0.791403 0)
(0.942345 -1.33147 0)
(1.58019 -2.04973 0)
(1.90269 -1.82994 0)
(2.16072 -1.11709 0)
(2.41596 -1.04983 0)
(2.43726 -0.218363 0)
(2.52208 -0.0988413 0)
(2.51724 0.128737 0)
(2.48526 0.216085 0)
(2.46257 0.362596 0)
(2.40621 0.515662 0)
(2.32624 0.649896 0)
(2.26812 0.723506 0)
(2.21013 0.788328 0)
(2.17202 0.796942 0)
(2.13527 0.809192 0)
(2.08828 0.852559 0)
(2.06663 0.879361 0)
(2.0314 0.931815 0)
(2.05679 0.956344 0)
(1.09832 -1.09459 0)
(1.94249 -1.47605 0)
(2.20082 -1.3689 0)
(2.25417 -0.189928 0)
(2.37533 0.0539325 0)
(2.45444 -0.169798 0)
(2.46081 0.0481298 0)
(2.3966 0.307048 0)
(2.34165 0.421939 0)
(2.31762 0.567812 0)
(2.22954 0.726081 0)
(2.13878 0.851195 0)
(2.07179 0.924635 0)
(2.01206 0.986978 0)
(1.97638 0.989939 0)
(1.95312 0.99824 0)
(1.95601 1.01647 0)
(1.97124 0.993363 0)
(1.99651 0.992757 0)
(2.07144 0.976255 0)
(1.28643 -0.299418 0)
(2.0639 -0.722685 0)
(2.27552 -0.649357 0)
(2.34284 -0.0182218 0)
(2.36365 0.196305 0)
(2.35135 0.331022 0)
(2.27326 0.521344 0)
(2.21177 0.632511 0)
(2.14134 0.746387 0)
(2.0924 0.886179 0)
(1.98316 0.997804 0)
(1.92488 1.05278 0)
(1.8873 1.07563 0)
(1.86976 1.08823 0)
(1.87269 1.0578 0)
(1.89764 1.05011 0)
(1.96249 1.02284 0)
(2.16525 0.905148 0)
(2.38554 0.790535 0)
(2.78401 0.435246 0)
(1.22036 -0.0635545 0)
(1.9492 -0.489839 0)
(2.19137 0.488476 0)
(2.21354 0.57777 0)
(2.21531 0.563912 0)
(2.14686 0.735503 0)
(2.03684 0.90136 0)
(1.95605 0.987218 0)
(1.90738 1.04224 0)
(1.84957 1.12874 0)
(1.79185 1.15899 0)
(1.79398 1.15266 0)
(1.80964 1.13144 0)
(1.85024 1.0875 0)
(2.0428 0.949969 0)
(2.26063 0.829077 0)
(2.66562 0.504393 0)
(3.03633 0.0926353 0)
(3.05439 -0.0231963 0)
(3.00388 -0.00455145 0)
(1.01298 0.0111598 0)
(1.89037 0.907148 0)
(2.11737 0.811983 0)
(2.01216 0.932054 0)
(1.95566 0.99604 0)
(1.85445 1.10061 0)
(1.79098 1.13502 0)
(1.76235 1.14475 0)
(1.7605 1.16211 0)
(1.73906 1.20232 0)
(1.72278 1.19367 0)
(1.86326 1.06746 0)
(2.09281 0.885723 0)
(2.49944 0.578048 0)
(2.98669 0.135791 0)
(3.07373 -0.0294638 0)
(3.00806 -0.00767265 0)
(3.00288 -0.00381629 0)
(3.0012 -0.00217736 0)
(3.00008 -0.000486883 0)
(1.15759 0.777524 0)
(1.83306 1.14532 0)
(1.84222 1.15027 0)
(1.73818 1.19562 0)
(1.70522 1.19731 0)
(1.65905 1.23874 0)
(1.65711 1.21141 0)
(1.72607 1.16475 0)
(1.75752 1.23199 0)
(1.79358 1.13973 0)
(2.27395 0.7356 0)
(2.86373 0.203772 0)
(3.09968 -0.0304505 0)
(3.02084 -0.0126214 0)
(3.00462 -0.00550655 0)
(3.00184 -0.00302784 0)
(3.00006 -0.000591399 0)
(2.99998 -2.29113e-05 0)
(2.99999 1.41869e-05 0)
(3 5.85645e-06 0)
(1.58001 1.2577 0)
(1.58404 1.26308 0)
(1.59154 1.26701 0)
(1.59887 1.26197 0)
(1.6013 1.24711 0)
(1.58158 1.2693 0)
(1.89408 1.17029 0)
(2.94626 0.414945 0)
(3.36103 -0.631714 0)
(3 -6.66907e-11 0)
(3 -4.95988e-12 0)
(3 1.12187e-10 0)
(3 3.61504e-11 0)
(3 -1.37291e-10 0)
(3 1.83149e-12 0)
(3 1.14644e-12 0)
(3 4.01546e-13 0)
(3 1.22428e-13 0)
(3 6.45907e-14 0)
(3 -6.86587e-14 0)
(1.58205 1.2478 0)
(1.59296 1.25755 0)
(1.60235 1.26473 0)
(1.60957 1.27225 0)
(1.65996 1.26721 0)
(1.6944 1.24348 0)
(2.23064 0.761837 0)
(2.99099 0.0212834 0)
(3 2.93697e-09 0)
(3 -3.19914e-10 0)
(3 6.9698e-13 0)
(3 5.07084e-15 0)
(3 -4.11483e-15 0)
(3 6.17195e-15 0)
(3 -2.03062e-15 0)
(3 -1.8241e-15 0)
(3 -1.1152e-15 0)
(3 -2.81969e-15 0)
(3 -6.66211e-16 0)
(3 6.89314e-16 0)
(1.58392 1.2488 0)
(1.60526 1.25302 0)
(1.61553 1.25513 0)
(1.61109 1.27643 0)
(1.7057 1.21652 0)
(2.3013 0.756972 0)
(3.00935 -0.0120356 0)
(3.00003 -0.000396892 0)
(3 7.85349e-07 0)
(3 -1.79155e-09 0)
(3 4.79567e-12 0)
(3 1.12071e-14 0)
(3 -3.13913e-15 0)
(3 -2.0634e-15 0)
(3 -1.66874e-15 0)
(3 -2.01602e-15 0)
(3 -1.55288e-15 0)
(3 -3.09141e-15 0)
(3 -8.73963e-16 0)
(3 6.80405e-16 0)
(1.58359 1.25302 0)
(1.60453 1.25303 0)
(1.6253 1.25611 0)
(1.64663 1.26568 0)
(1.8671 1.08371 0)
(2.75137 0.217679 0)
(3.00462 -0.000628451 0)
(2.99991 7.22657e-05 0)
(3 -7.78367e-07 0)
(3 3.34591e-09 0)
(3 -2.0483e-11 0)
(3 -2.44063e-14 0)
(3 -1.97457e-15 0)
(3 -1.71688e-15 0)
(3 -1.95516e-15 0)
(3 -2.87364e-15 0)
(3 -2.02978e-15 0)
(3 -3.2001e-15 0)
(3 -2.44319e-16 0)
(3 6.46952e-16 0)
(1.5824 1.26322 0)
(1.59529 1.2624 0)
(1.63276 1.26352 0)
(1.68432 1.23084 0)
(2.37662 0.624611 0)
(3.01948 -0.0187824 0)
(2.99976 0.00014174 0)
(3 -4.28405e-06 0)
(3 8.30398e-08 0)
(3 -1.27435e-09 0)
(3 1.36117e-11 0)
(3 -7.17032e-15 0)
(3 -2.40552e-15 0)
(3 -2.01927e-15 0)
(3 -2.38988e-15 0)
(3 -2.86177e-15 0)
(3 -3.27212e-15 0)
(3 -2.92529e-15 0)
(3 -8.32783e-16 0)
(3 6.40858e-16 0)
(1.58145 1.2812 0)
(1.58539 1.28188 0)
(1.64337 1.26123 0)
(1.75657 1.1751 0)
(2.66704 0.28465 0)
(3 -6.66591e-10 0)
(3 1.47018e-08 0)
(3 -1.3098e-08 0)
(3 5.41999e-10 0)
(3 -2.60848e-12 0)
(3 -9.4406e-14 0)
(3 -2.85682e-15 0)
(3 -2.65228e-15 0)
(3 -2.32692e-15 0)
(3 -2.69801e-15 0)
(3 -2.34443e-15 0)
(3 -3.403e-15 0)
(3 -3.0054e-15 0)
(3 -2.07254e-15 0)
(3 -2.5694e-16 0)
(1.58112 1.29466 0)
(1.55091 1.30865 0)
(1.67953 1.24156 0)
(2.21607 0.823578 0)
(3.02281 -0.0230778 0)
(3 -7.02162e-11 0)
(3 -3.33653e-11 0)
(3 5.55362e-11 0)
(3 -4.04418e-12 0)
(3 2.49168e-14 0)
(3 -3.65278e-15 0)
(3 -4.36303e-15 0)
(3 -3.33279e-15 0)
(3 -2.65249e-15 0)
(3 -2.70862e-15 0)
(3 -2.78426e-15 0)
(3 -3.32497e-15 0)
(3 -3.20451e-15 0)
(3 -2.09124e-15 0)
(3 -5.16711e-16 0)
(1.59372 1.33123 0)
(1.4935 1.33939 0)
(1.73691 1.18585 0)
(2.39962 0.552315 0)
(3.00005 -2.8241e-05 0)
(3 3.39561e-11 0)
(3 3.77378e-13 0)
(3 -2.27164e-13 0)
(3 2.61959e-14 0)
(3 -2.29952e-15 0)
(3 -3.77781e-15 0)
(3 -4.74092e-15 0)
(3 -3.8434e-15 0)
(3 -2.88149e-15 0)
(3 -2.57155e-15 0)
(3 -3.40732e-15 0)
(3 -3.24933e-15 0)
(3 -3.20835e-15 0)
(3 -3.04348e-15 0)
(3 -1.22518e-15 0)
(1.59022 1.30564 0)
(1.47556 1.35882 0)
(1.94151 1.03541 0)
(2.86015 0.11789 0)
(3 -5.64988e-09 0)
(3 7.03646e-11 0)
(3 -3.6866e-13 0)
(3 4.05167e-15 0)
(3 -2.08018e-15 0)
(3 -7.13217e-16 0)
(3 -2.80794e-15 0)
(3 -4.26025e-15 0)
(3 -4.45553e-15 0)
(3 -3.65889e-15 0)
(3 -2.98863e-15 0)
(3 -3.19197e-15 0)
(3 -2.28021e-15 0)
(3 -2.20189e-15 0)
(3 -3.15993e-15 0)
(3 -2.50127e-15 0)
(1.60322 1.29033 0)
(1.48403 1.36747 0)
(2.1991 0.799853 0)
(3.0103 -0.00859831 0)
(3 1.93233e-08 0)
(3 -6.18023e-11 0)
(3 1.65785e-13 0)
(3 -1.65331e-15 0)
(3 -5.46066e-16 0)
(3 -3.37313e-16 0)
(3 -1.42928e-15 0)
(3 -2.21935e-15 0)
(3 -3.58109e-15 0)
(3 -3.40444e-15 0)
(3 -2.97147e-15 0)
(3 -1.88187e-15 0)
(3 -1.3749e-15 0)
(3 -1.54805e-15 0)
(3 -2.75273e-15 0)
(3 -2.43072e-15 0)
(1.61886 1.27847 0)
(1.55512 1.32802 0)
(2.4022 0.560696 0)
(3 -2.45788e-12 0)
(3 -1.61089e-11 0)
(3 3.058e-13 0)
(3 -2.38551e-15 0)
(3 1.66001e-16 0)
(3 4.162e-16 0)
(3 -1.05137e-18 0)
(3 -6.27521e-16 0)
(3 -1.74487e-15 0)
(3 -2.74434e-15 0)
(3 -2.73651e-15 0)
(3 -2.33972e-15 0)
(3 -1.31476e-15 0)
(3 -1.35026e-15 0)
(3 -1.10895e-15 0)
(3 -1.87335e-15 0)
(3 -2.95392e-15 0)
(1.63573 1.26269 0)
(1.64015 1.24356 0)
(2.65301 0.293245 0)
(3 8.92619e-13 0)
(3 -1.18686e-13 0)
(3 -1.72688e-15 0)
(3 8.25266e-16 0)
(3 1.28593e-15 0)
(3 1.29163e-15 0)
(3 1.06601e-15 0)
(3 8.85251e-16 0)
(3 -2.8783e-16 0)
(3 -1.16105e-15 0)
(3 -1.82075e-15 0)
(3 -1.75899e-15 0)
(3 -9.91839e-16 0)
(3 -1.554e-15 0)
(3 -1.36454e-15 0)
(3 -3.23215e-16 0)
(3 -1.05077e-15 0)
(1.65082 1.23882 0)
(1.81333 1.10589 0)
(2.86084 0.105052 0)
(3 -1.54881e-15 0)
(3 1.19397e-15 0)
(3 1.07516e-15 0)
(3 1.18647e-15 0)
(3 1.30207e-15 0)
(3 1.563e-15 0)
(3 1.86572e-15 0)
(3 1.64802e-15 0)
(3 1.09362e-15 0)
(3 -3.61312e-16 0)
(3 -1.20805e-15 0)
(3 -1.19459e-15 0)
(3 -1.02283e-15 0)
(3 -2.33397e-15 0)
(3 -3.26627e-15 0)
(3 -1.99511e-15 0)
(3 -3.12157e-16 0)
(1.66217 1.20752 0)
(1.88196 0.97908 0)
(2.97685 0.0150606 0)
(3 7.5228e-16 0)
(3 1.04373e-15 0)
(3 9.17542e-16 0)
(3 1.41536e-15 0)
(3 1.53328e-15 0)
(3 1.53625e-15 0)
(3 1.6749e-15 0)
(3 1.57467e-15 0)
(3 1.40537e-15 0)
(3 7.37889e-16 0)
(3 5.41063e-16 0)
(3 4.72545e-16 0)
(3 6.48017e-16 0)
(3 1.77377e-16 0)
(3 -6.43233e-16 0)
(3 -1.82541e-15 0)
(3 -2.81337e-15 0)
(1.72578 1.17074 0)
(2.0697 0.81624 0)
(3 -1.75183e-15 0)
(3 -1.84608e-15 0)
(3 -1.67502e-15 0)
(3 -2.06657e-15 0)
(3 -2.04185e-15 0)
(3 -1.12781e-15 0)
(3 -7.39046e-16 0)
(3 -3.51032e-16 0)
(3 1.81751e-16 0)
(3 6.07645e-16 0)
(3 8.8383e-16 0)
(3 7.35576e-16 0)
(3 6.98327e-16 0)
(3 6.71369e-16 0)
(3 9.46833e-16 0)
(3 9.72126e-16 0)
(3 4.09603e-16 0)
(3 -2.13197e-16 0)
(1.76887 1.09444 0)
(2.23785 0.648078 0)
(3 -4.11887e-15 0)
(3 -3.68241e-15 0)
(3 -3.78241e-15 0)
(3 -4.6362e-15 0)
(3 -4.47458e-15 0)
(3 -3.28344e-15 0)
(3 -2.32885e-15 0)
(3 -1.71806e-15 0)
(3 -6.19135e-16 0)
(3 -7.10724e-17 0)
(3 4.56985e-16 0)
(3 5.57341e-16 0)
(3 6.48069e-16 0)
(3 4.77849e-16 0)
(3 7.04089e-16 0)
(3 1.01758e-15 0)
(3 1.16219e-15 0)
(3 1.19672e-15 0)
(1.81089 1.00906 0)
(2.43861 0.448093 0)
(3 -4.75501e-15 0)
(3 -4.48123e-15 0)
(3 -4.77181e-15 0)
(3 -5.31248e-15 0)
(3 -5.34854e-15 0)
(3 -4.0323e-15 0)
(3 -2.97728e-15 0)
(3 -2.84092e-15 0)
(3 -2.5738e-15 0)
(3 -1.70889e-15 0)
(3 -1.26747e-15 0)
(3 -1.4057e-15 0)
(3 -1.21322e-15 0)
(3 -8.4124e-16 0)
(3 -1.00326e-15 0)
(3 -1.03666e-15 0)
(3 -9.15932e-16 0)
(3 -1.02813e-15 0)
(1.94235 0.882921 0)
(2.70466 0.21545 0)
(3 -3.78096e-15 0)
(3 -2.79531e-15 0)
(3 -1.96881e-15 0)
(3 -1.3766e-15 0)
(3 -1.49716e-15 0)
(3 -1.64692e-15 0)
(3 -1.51538e-15 0)
(3 -1.5166e-15 0)
(3 -1.63648e-15 0)
(3 -1.91554e-15 0)
(3 -1.84184e-15 0)
(3 -1.92032e-15 0)
(3 -2.26896e-15 0)
(3 -2.2977e-15 0)
(3 -1.9656e-15 0)
(3 -2.01572e-15 0)
(3 -1.60123e-15 0)
(3 -1.24975e-15 0)
(2.10236 0.64915 0)
(2.99071 0.000193209 0)
(3 -1.91416e-15 0)
(3 -1.91507e-15 0)
(3 -1.88438e-15 0)
(3 -5.45978e-16 0)
(3 1.02764e-16 0)
(3 -8.58384e-17 0)
(3 -7.95862e-17 0)
(3 1.49075e-17 0)
(3 -8.51074e-17 0)
(3 -5.72764e-16 0)
(3 -1.38701e-15 0)
(3 -2.06717e-15 0)
(3 -2.31109e-15 0)
(3 -3.21494e-15 0)
(3 -3.84601e-15 0)
(3 -3.90558e-15 0)
(3 -3.6159e-15 0)
(3 -2.81321e-15 0)
(1.99394 0.37453 0)
(2.99992 -9.43774e-06 0)
(3 -1.98383e-15 0)
(3 -2.78653e-15 0)
(3 -2.68831e-15 0)
(3 -8.94204e-16 0)
(3 -9.31312e-17 0)
(3 -1.36192e-16 0)
(3 -4.58567e-16 0)
(3 -3.7412e-16 0)
(3 -3.06965e-16 0)
(3 3.62562e-17 0)
(3 1.10505e-16 0)
(3 8.88957e-18 0)
(3 -1.34857e-16 0)
(3 -2.22265e-16 0)
(3 -6.01645e-16 0)
(3 -8.98651e-16 0)
(3 -1.0496e-15 0)
(3 -1.1534e-15 0)
(1.99407 -0.374655 0)
(2.99993 8.7898e-06 0)
(3 -3.97337e-16 0)
(3 7.9911e-16 0)
(3 9.90176e-16 0)
(3 6.48401e-16 0)
(3 -2.95019e-16 0)
(3 -8.18627e-16 0)
(3 -1.13567e-15 0)
(3 -1.09409e-15 0)
(3 -2.38871e-16 0)
(3 2.13214e-16 0)
(3 4.79652e-16 0)
(3 7.67121e-16 0)
(3 9.49201e-16 0)
(3 1.7503e-15 0)
(3 2.56698e-15 0)
(3 2.9329e-15 0)
(3 2.99334e-15 0)
(3 2.9341e-15 0)
(2.10314 -0.648419 0)
(2.99073 -0.000206809 0)
(3 -2.1369e-16 0)
(3 5.11999e-16 0)
(3 6.24228e-16 0)
(3 3.85008e-16 0)
(3 -9.53678e-16 0)
(3 -9.96101e-16 0)
(3 -1.15618e-15 0)
(3 -1.34615e-15 0)
(3 -1.72082e-15 0)
(3 -1.41984e-15 0)
(3 -7.43398e-16 0)
(3 -2.62718e-16 0)
(3 -1.54595e-16 0)
(3 2.52652e-17 0)
(3 5.42676e-16 0)
(3 8.1576e-16 0)
(3 1.08224e-15 0)
(3 1.04557e-15 0)
(1.94304 -0.883867 0)
(2.70408 -0.216031 0)
(3 1.04977e-15 0)
(3 5.519e-16 0)
(3 1.0984e-15 0)
(3 1.41463e-15 0)
(3 1.26153e-15 0)
(3 3.52857e-16 0)
(3 1.47867e-17 0)
(3 -1.24857e-16 0)
(3 -5.56477e-17 0)
(3 1.25185e-16 0)
(3 1.80596e-16 0)
(3 2.69401e-16 0)
(3 1.55555e-16 0)
(3 4.86618e-16 0)
(3 3.40618e-16 0)
(3 6.98732e-17 0)
(3 -2.35811e-16 0)
(3 -2.43156e-16 0)
(1.80904 -1.00974 0)
(2.43525 -0.450108 0)
(3 3.58761e-16 0)
(3 3.77173e-16 0)
(3 1.32598e-15 0)
(3 1.24108e-15 0)
(3 6.44041e-16 0)
(3 -2.40236e-16 0)
(3 -8.94396e-16 0)
(3 -1.15924e-15 0)
(3 -9.15071e-16 0)
(3 -1.32348e-15 0)
(3 -1.6592e-15 0)
(3 -2.73088e-15 0)
(3 -2.67763e-15 0)
(3 -2.43101e-15 0)
(3 -1.95076e-15 0)
(3 -1.29652e-15 0)
(3 -1.16373e-15 0)
(3 -1.28386e-15 0)
(1.76694 -1.094 0)
(2.23752 -0.648148 0)
(3 -1.28885e-15 0)
(3 -6.95882e-16 0)
(3 -9.41743e-16 0)
(3 -6.60386e-16 0)
(3 -8.92234e-16 0)
(3 -1.39509e-15 0)
(3 -1.64271e-15 0)
(3 -1.53996e-15 0)
(3 -1.61745e-15 0)
(3 -1.97374e-15 0)
(3 -2.14073e-15 0)
(3 -2.44233e-15 0)
(3 -2.62721e-15 0)
(3 -2.61688e-15 0)
(3 -2.64457e-15 0)
(3 -2.34222e-15 0)
(3 -2.2533e-15 0)
(3 -1.56865e-15 0)
(1.72733 -1.17052 0)
(2.07025 -0.816406 0)
(3 -1.34382e-15 0)
(3 -2.1719e-15 0)
(3 -1.86724e-15 0)
(3 -1.21736e-15 0)
(3 -1.28692e-15 0)
(3 -1.46531e-15 0)
(3 -1.50565e-15 0)
(3 -1.59355e-15 0)
(3 -1.91321e-15 0)
(3 -2.39823e-15 0)
(3 -3.19026e-15 0)
(3 -3.20779e-15 0)
(3 -3.02177e-15 0)
(3 -2.66562e-15 0)
(3 -2.81155e-15 0)
(3 -2.38928e-15 0)
(3 -1.66555e-15 0)
(3 -1.02622e-15 0)
(1.66317 -1.20642 0)
(1.88339 -0.978012 0)
(2.97841 -0.0139243 0)
(3 -1.20476e-15 0)
(3 -1.64968e-15 0)
(3 -1.49733e-15 0)
(3 -1.98727e-15 0)
(3 -1.67094e-15 0)
(3 -1.53358e-15 0)
(3 -1.89179e-15 0)
(3 -2.00869e-15 0)
(3 -2.22765e-15 0)
(3 -2.30378e-15 0)
(3 -2.21897e-15 0)
(3 -1.65767e-15 0)
(3 -1.62272e-15 0)
(3 -1.8801e-15 0)
(3 -6.31918e-16 0)
(3 1.48783e-16 0)
(3 5.02865e-16 0)
(1.65074 -1.23977 0)
(1.8141 -1.10524 0)
(2.86102 -0.104589 0)
(3 8.77299e-16 0)
(3 -1.52832e-15 0)
(3 -1.98622e-15 0)
(3 -2.08749e-15 0)
(3 -2.19519e-15 0)
(3 -2.02259e-15 0)
(3 -2.57658e-15 0)
(3 -2.77537e-15 0)
(3 -2.40735e-15 0)
(3 -1.95496e-15 0)
(3 -1.57249e-15 0)
(3 -8.56625e-16 0)
(3 -2.89271e-16 0)
(3 4.38824e-16 0)
(3 1.36719e-15 0)
(3 1.80384e-15 0)
(3 2.13345e-15 0)
(1.63497 -1.26315 0)
(1.63976 -1.24339 0)
(2.65147 -0.294231 0)
(3 -6.99033e-13 0)
(3 9.42793e-14 0)
(3 -1.22044e-16 0)
(3 -1.72452e-15 0)
(3 -2.29197e-15 0)
(3 -2.35768e-15 0)
(3 -2.11095e-15 0)
(3 -1.91299e-15 0)
(3 -1.66853e-15 0)
(3 -1.3013e-15 0)
(3 -1.03003e-15 0)
(3 -5.31856e-16 0)
(3 5.96129e-16 0)
(3 1.67458e-15 0)
(3 2.40855e-15 0)
(3 2.51506e-15 0)
(3 1.8568e-15 0)
(1.61819 -1.27794 0)
(1.55251 -1.32933 0)
(2.40188 -0.562133 0)
(3 1.8934e-12 0)
(3 1.26884e-11 0)
(3 -2.32527e-13 0)
(3 1.90523e-15 0)
(3 -9.8555e-16 0)
(3 -7.45488e-16 0)
(3 -7.31524e-16 0)
(3 -1.59249e-16 0)
(3 8.15978e-18 0)
(3 -1.15112e-16 0)
(3 7.36539e-16 0)
(3 7.36833e-16 0)
(3 2.21601e-15 0)
(3 2.64232e-15 0)
(3 2.33111e-15 0)
(3 1.79048e-15 0)
(3 1.35457e-15 0)
(1.60289 -1.28997 0)
(1.48364 -1.36839 0)
(2.19776 -0.801376 0)
(3.01025 0.00849372 0)
(3 -1.52108e-08 0)
(3 4.86714e-11 0)
(3 -7.4404e-14 0)
(3 5.87309e-16 0)
(3 4.77929e-16 0)
(3 2.76426e-16 0)
(3 5.93228e-16 0)
(3 3.96327e-16 0)
(3 2.48436e-16 0)
(3 9.34923e-16 0)
(3 1.39359e-15 0)
(3 2.54351e-15 0)
(3 2.76061e-15 0)
(3 2.47438e-15 0)
(3 1.5314e-15 0)
(3 1.59362e-15 0)
(1.59033 -1.30506 0)
(1.47657 -1.35678 0)
(1.94895 -1.03177 0)
(2.86535 -0.114049 0)
(3 4.40211e-09 0)
(3 -6.82866e-11 0)
(3 2.14788e-13 0)
(3 8.75659e-16 0)
(3 5.10639e-16 0)
(3 5.33136e-16 0)
(3 4.65364e-17 0)
(3 1.31775e-16 0)
(3 6.64007e-16 0)
(3 1.58894e-15 0)
(3 2.37475e-15 0)
(3 2.66605e-15 0)
(3 3.00952e-15 0)
(3 2.49779e-15 0)
(3 2.03802e-15 0)
(3 2.05341e-15 0)
(1.59468 -1.3316 0)
(1.49474 -1.33962 0)
(1.73399 -1.18593 0)
(2.39578 -0.552319 0)
(3.00003 1.89286e-05 0)
(3 2.53073e-12 0)
(3 -2.80228e-13 0)
(3 3.07188e-13 0)
(3 -2.03354e-14 0)
(3 1.56855e-16 0)
(3 -2.91085e-16 0)
(3 5.20249e-17 0)
(3 8.9268e-16 0)
(3 1.22207e-15 0)
(3 2.0777e-15 0)
(3 2.45104e-15 0)
(3 2.75334e-15 0)
(3 2.49754e-15 0)
(3 2.47265e-15 0)
(3 1.83677e-15 0)
(1.58169 -1.29589 0)
(1.55048 -1.30957 0)
(1.67877 -1.24044 0)
(2.21334 -0.823561 0)
(3.02289 0.0230967 0)
(3 5.7753e-11 0)
(3 3.47793e-11 0)
(3 -5.43616e-11 0)
(3 2.32769e-12 0)
(3 -2.91046e-16 0)
(3 -6.08924e-16 0)
(3 2.67044e-17 0)
(3 1.02822e-15 0)
(3 1.07269e-15 0)
(3 2.16529e-15 0)
(3 2.54405e-15 0)
(3 2.41638e-15 0)
(3 2.20718e-15 0)
(3 1.88982e-15 0)
(3 8.36342e-16 0)
(1.58174 -1.28242 0)
(1.58587 -1.28305 0)
(1.64246 -1.26176 0)
(1.7588 -1.17308 0)
(2.66723 -0.284353 0)
(3 6.40218e-10 0)
(3 -1.47602e-08 0)
(3 1.29768e-08 0)
(3 -3.19384e-10 0)
(3 -4.48135e-12 0)
(3 4.20974e-15 0)
(3 4.54825e-16 0)
(3 6.29076e-16 0)
(3 1.18952e-15 0)
(3 2.09155e-15 0)
(3 2.19734e-15 0)
(3 2.04512e-15 0)
(3 2.31527e-15 0)
(3 1.76212e-15 0)
(3 7.92386e-16 0)
(1.58219 -1.26341 0)
(1.59522 -1.26388 0)
(1.63308 -1.26422 0)
(1.67844 -1.23568 0)
(2.37081 -0.627201 0)
(3.0196 0.0187176 0)
(2.99976 -0.00013858 0)
(3 4.25471e-06 0)
(3 -5.27416e-08 0)
(3 2.85509e-11 0)
(3 -1.77086e-14 0)
(3 7.84287e-16 0)
(3 7.39159e-16 0)
(3 1.18088e-15 0)
(3 1.98552e-15 0)
(3 2.51939e-15 0)
(3 1.96779e-15 0)
(3 2.78588e-15 0)
(3 2.37558e-15 0)
(3 1.20508e-15 0)
(1.58337 -1.25277 0)
(1.60484 -1.253 0)
(1.62605 -1.25678 0)
(1.6464 -1.26616 0)
(1.87537 -1.0778 0)
(2.75468 -0.215162 0)
(3.00456 0.000543647 0)
(2.99992 -7.10389e-05 0)
(3 7.04169e-08 0)
(3 -5.35682e-12 0)
(3 2.32402e-14 0)
(3 5.427e-16 0)
(3 1.01626e-15 0)
(3 8.21635e-16 0)
(3 2.08981e-15 0)
(3 2.11728e-15 0)
(3 1.95025e-15 0)
(3 3.13034e-15 0)
(3 2.05872e-15 0)
(3 2.08527e-15 0)
(1.58355 -1.24852 0)
(1.60535 -1.25284 0)
(1.61675 -1.25527 0)
(1.6113 -1.27654 0)
(1.7016 -1.21772 0)
(2.29693 -0.754936 0)
(3.00938 0.0123899 0)
(3.00003 0.000384415 0)
(3 -1.22305e-08 0)
(3 2.11036e-11 0)
(3 -2.7039e-13 0)
(3 2.47079e-15 0)
(3 1.29537e-15 0)
(3 6.28276e-16 0)
(3 1.64797e-15 0)
(3 1.87872e-15 0)
(3 2.47935e-15 0)
(3 3.31365e-15 0)
(3 2.27528e-15 0)
(3 2.37079e-15 0)
(1.58185 -1.24729 0)
(1.59311 -1.2572 0)
(1.60328 -1.26433 0)
(1.61044 -1.27221 0)
(1.66075 -1.26735 0)
(1.6999 -1.23886 0)
(2.23286 -0.758373 0)
(2.99145 -0.0204612 0)
(3 3.03561e-09 0)
(3 8.44381e-12 0)
(3 4.037e-13 0)
(3 -3.9249e-15 0)
(3 5.73969e-16 0)
(3 1.34896e-15 0)
(3 1.20109e-15 0)
(3 2.47154e-15 0)
(3 2.32294e-15 0)
(3 3.04062e-15 0)
(3 2.37713e-15 0)
(3 2.32017e-15 0)
(1.57996 -1.25765 0)
(1.58414 -1.26291 0)
(1.59202 -1.26693 0)
(1.59954 -1.26226 0)
(1.60089 -1.24835 0)
(1.58221 -1.26954 0)
(1.89196 -1.17184 0)
(2.94593 -0.416075 0)
(3.36176 0.634198 0)
(3 6.72579e-12 0)
(3 -5.93591e-12 0)
(3 2.25693e-13 0)
(3 -1.32626e-13 0)
(3 -2.47328e-15 0)
(3 5.56466e-15 0)
(3 3.87954e-15 0)
(3 3.11168e-15 0)
(3 4.23605e-15 0)
(3 3.22596e-15 0)
(3 5.15035e-15 0)
(1.16296 -0.769601 0)
(1.83033 -1.15032 0)
(1.84095 -1.15287 0)
(1.7384 -1.19695 0)
(1.70553 -1.19779 0)
(1.65821 -1.23989 0)
(1.65578 -1.21241 0)
(1.72559 -1.16526 0)
(1.75775 -1.23344 0)
(1.7953 -1.14066 0)
(2.27678 -0.734304 0)
(2.86545 -0.202144 0)
(3.09984 0.0308805 0)
(3.02088 0.0126582 0)
(3.00466 0.00552898 0)
(3.00186 0.00303851 0)
(3.00006 0.000588965 0)
(2.99998 2.27751e-05 0)
(2.99999 -1.42658e-05 0)
(3 -5.87815e-06 0)
(1.01367 -0.0257635 0)
(1.91381 -0.807963 0)
(2.11559 -0.798157 0)
(2.0091 -0.930321 0)
(1.96195 -0.986024 0)
(1.85496 -1.09672 0)
(1.78892 -1.1356 0)
(1.76214 -1.14457 0)
(1.76074 -1.16171 0)
(1.73986 -1.20209 0)
(1.72398 -1.1934 0)
(1.86376 -1.06669 0)
(2.09251 -0.884658 0)
(2.49837 -0.577686 0)
(2.98553 -0.136343 0)
(3.07375 0.0294441 0)
(3.00813 0.00771091 0)
(3.00291 0.0038332 0)
(3.00121 0.00218661 0)
(3.00008 0.000487189 0)
(0.952309 -0.0599081 0)
(1.92439 -0.126329 0)
(2.25216 -0.403568 0)
(2.22054 -0.571924 0)
(2.2107 -0.589263 0)
(2.14565 -0.741427 0)
(2.03916 -0.896592 0)
(1.95616 -0.985577 0)
(1.90716 -1.04137 0)
(1.84885 -1.12911 0)
(1.79156 -1.15959 0)
(1.79411 -1.15344 0)
(1.80973 -1.13182 0)
(1.8495 -1.08767 0)
(2.04253 -0.949579 0)
(2.26088 -0.828227 0)
(2.66482 -0.505007 0)
(3.03588 -0.0933748 0)
(3.0547 0.0232403 0)
(3.00393 0.00458464 0)
(1.15036 0.71459 0)
(1.58527 0.887115 0)
(2.21943 0.259851 0)
(2.36205 0.00887843 0)
(2.37314 -0.124515 0)
(2.36096 -0.314731 0)
(2.2726 -0.53339 0)
(2.21089 -0.640673 0)
(2.14041 -0.749141 0)
(2.09024 -0.888208 0)
(1.98254 -0.99962 0)
(1.92498 -1.05406 0)
(1.88783 -1.07593 0)
(1.86983 -1.08786 0)
(1.87241 -1.05745 0)
(1.89738 -1.04975 0)
(1.96205 -1.02278 0)
(2.16462 -0.905511 0)
(2.38456 -0.791606 0)
(2.78296 -0.436801 0)
(1.10142 1.47481 0)
(1.4973 1.87364 0)
(2.09934 1.38739 0)
(2.25617 0.187698 0)
(2.39296 -0.165536 0)
(2.44798 0.156149 0)
(2.45993 -0.029047 0)
(2.39917 -0.285248 0)
(2.34308 -0.410762 0)
(2.31847 -0.559112 0)
(2.23114 -0.719858 0)
(2.14138 -0.846528 0)
(2.07398 -0.921477 0)
(2.01305 -0.985152 0)
(1.97603 -0.989896 0)
(1.95232 -0.998882 0)
(1.95566 -1.01694 0)
(1.97098 -0.993479 0)
(1.9965 -0.992763 0)
(2.07143 -0.976258 0)
(1.21122 1.71686 0)
(1.42733 2.09179 0)
(1.85928 1.7332 0)
(2.10239 1.00315 0)
(2.45434 0.876395 0)
(2.46325 0.22565 0)
(2.53235 0.101216 0)
(2.51762 -0.136095 0)
(2.49034 -0.206107 0)
(2.4648 -0.360692 0)
(2.40842 -0.515846 0)
(2.32718 -0.652743 0)
(2.26796 -0.72778 0)
(2.20804 -0.794705 0)
(2.1693 -0.803256 0)
(2.13349 -0.813281 0)
(2.0881 -0.854085 0)
(2.06777 -0.878009 0)
(2.03217 -0.929968 0)
(2.05677 -0.955951 0)
(1.26187 1.68007 0)
(1.61196 2.35745 0)
(1.80774 1.93368 0)
(1.97891 1.73456 0)
(2.21812 1.55529 0)
(2.3699 0.840421 0)
(2.46033 0.73724 0)
(2.54413 0.516933 0)
(2.52015 0.183996 0)
(2.53989 0.0895018 0)
(2.52609 -0.0910319 0)
(2.48964 -0.231015 0)
(2.45283 -0.334497 0)
(2.41412 -0.419325 0)
(2.35851 -0.50948 0)
(2.33231 -0.554977 0)
(2.25125 -0.65921 0)
(2.19356 -0.737018 0)
(2.15616 -0.790605 0)
(2.14099 -0.792273 0)
(1.25262 1.44313 0)
(1.78496 2.34848 0)
(1.93255 2.13943 0)
(1.93935 1.91042 0)
(2.09706 1.67774 0)
(2.24098 1.40886 0)
(2.32954 1.16013 0)
(2.41303 0.963568 0)
(2.45804 0.733269 0)
(2.4971 0.590514 0)
(2.55229 0.394022 0)
(2.55264 0.167438 0)
(2.56605 -0.00265387 0)
(2.5453 -0.175834 0)
(2.48922 -0.356448 0)
(2.45682 -0.442189 0)
(2.38045 -0.560923 0)
(2.35428 -0.53445 0)
(2.31623 -0.565274 0)
(2.32707 -0.518653 0)
(1.19673 1.10067 0)
(1.67662 1.87952 0)
(2.03849 2.30369 0)
(2.03691 2.17664 0)
(2.18297 1.78913 0)
(2.24011 1.6207 0)
(2.37369 1.28921 0)
(2.46231 1.09949 0)
(2.51852 1.0052 0)
(2.58656 0.728629 0)
(2.67142 0.520054 0)
(2.66038 0.232167 0)
(2.67068 0.070261 0)
(2.63857 -0.100956 0)
(2.60075 -0.218078 0)
(2.56408 -0.258164 0)
(2.53074 -0.263612 0)
(2.52779 -0.199898 0)
(2.45352 -0.316027 0)
(2.47589 -0.283462 0)
(1.22253 1.01652 0)
(1.43291 1.39227 0)
(1.8535 2.16403 0)
(2.05588 2.41162 0)
(2.37122 1.93159 0)
(2.41332 1.84334 0)
(2.58816 1.39665 0)
(2.70765 1.19543 0)
(2.80897 1.05932 0)
(2.79846 0.67161 0)
(2.79191 0.564918 0)
(2.75314 0.373476 0)
(2.73336 0.330023 0)
(2.71451 0.232652 0)
(2.68682 0.172842 0)
(2.6534 0.141081 0)
(2.63762 0.117795 0)
(2.61615 0.0276378 0)
(2.55717 -0.151377 0)
(2.56719 -0.154466 0)
(1.28923 0.99929 0)
(1.37315 1.25592 0)
(1.55218 1.88203 0)
(1.80011 2.26629 0)
(2.32303 2.06378 0)
(2.49252 1.99083 0)
(2.58325 1.55152 0)
(2.63667 1.30685 0)
(2.66778 1.20764 0)
(2.68168 1.1539 0)
(2.67153 1.08611 0)
(2.67963 0.912861 0)
(2.65379 0.792759 0)
(2.68165 0.702951 0)
(2.67365 0.541442 0)
(2.6925 0.43828 0)
(2.70714 0.289789 0)
(2.68727 0.0934089 0)
(2.65093 -0.0291819 0)
(2.61536 -0.0229026 0)
(1.35689 1.03322 0)
(1.38328 1.20599 0)
(1.46885 1.78678 0)
(1.58194 2.13872 0)
(1.86953 2.15842 0)
(2.15253 1.98928 0)
(2.22805 1.83372 0)
(2.3268 1.60117 0)
(2.35766 1.58039 0)
(2.38433 1.53253 0)
(2.46137 1.33432 0)
(2.54304 1.21992 0)
(2.5818 0.997875 0)
(2.69582 0.905661 0)
(2.70599 0.653179 0)
(2.75749 0.494992 0)
(2.75774 0.303076 0)
(2.74391 0.169615 0)
(2.70251 0.244793 0)
(2.65986 0.225649 0)
(1.42755 1.10412 0)
(1.47907 1.21383 0)
(1.4852 1.76659 0)
(1.47984 2.13669 0)
(1.63899 2.18545 0)
(1.84857 2.07901 0)
(1.96982 2.02389 0)
(2.11079 1.74536 0)
(2.16924 1.66419 0)
(2.29559 1.61529 0)
(2.42698 1.37144 0)
(2.58945 1.28733 0)
(2.63634 1.00388 0)
(2.74196 0.899054 0)
(2.7594 0.668807 0)
(2.76871 0.624433 0)
(2.7722 0.54518 0)
(2.75316 0.521325 0)
(2.72986 0.642071 0)
(2.69507 0.498127 0)
(1.52872 1.20207 0)
(1.63291 1.26647 0)
(1.5916 1.75638 0)
(1.49361 2.16149 0)
(1.59624 2.20209 0)
(1.7733 2.09186 0)
(1.89112 2.04324 0)
(2.076 1.76471 0)
(2.19701 1.69212 0)
(2.4003 1.61622 0)