/*--------------------------------*- C++ -*----------------------------------*\
  =========                 |
  \\      /  F ield         | OpenFOAM: The Open Source CFD Toolbox
   \\    /   O peration     | Website:  https://openfoam.org
    \\  /    A nd           | Version:  7
     \\/     M anipulation  |
\*---------------------------------------------------------------------------*/
FoamFile
{
    version     2.0;
    format      ascii;
    class       volScalarField;
    location    "7.7";
    object      T;
}
// * * * * * * * * * * * * * * * * * * * * * * * * * * * * * * * * * * * * * //

dimensions      [0 0 0 1 0 0 0];

internalField   nonuniform List<scalar> 
3700
(
100.427
100.653
100.743
100.799
100.841
100.969
101.107
101.146
101.136
101.099
101.084
101.111
101.124
101.11
101.074
101.06
101.081
101.104
101.101
101.089
100.025
100.092
100.238
100.293
100.299
100.481
100.713
100.74
100.666
100.472
100.467
100.528
100.528
100.477
100.382
100.38
100.415
100.498
100.575
100.544
100.024
100.064
100.076
100.056
99.9931
99.9096
99.872
99.873
99.885
99.912
99.9471
99.9796
100.01
100.031
100.045
100.051
100.05
100.039
100.022
100.013
100.038
100.062
100.058
100.031
99.9959
99.9845
99.9399
99.9188
99.9097
99.9238
99.9353
99.965
100.001
100.033
100.058
100.076
100.093
100.1
100.096
100.072
100.038
100.061
100.074
100.055
100.037
100.046
100.046
100.053
100.047
100.054
100.022
100.016
100.006
100.022
100.049
100.077
100.1
100.129
100.143
100.155
100.066
100.073
100.082
100.042
100.021
100.047
100.072
100.105
100.123
100.129
100.131
100.126
100.109
100.097
100.08
100.079
100.091
100.132
100.165
100.206
100.148
100.076
100.038
99.9801
99.9743
99.9948
100.042
100.102
100.14
100.166
100.186
100.184
100.19
100.188
100.182
100.173
100.166
100.166
100.182
100.247
100.202
100.038
99.9482
99.9414
99.957
99.9777
100.017
100.073
100.115
100.161
100.195
100.207
100.233
100.242
100.249
100.258
100.261
100.266
100.272
100.312
100.198
99.9572
99.8933
99.9335
99.9579
99.9921
100.039
100.083
100.111
100.15
100.178
100.204
100.247
100.27
100.289
100.31
100.325
100.338
100.348
100.39
100.156
99.9013
99.8546
99.9444
99.985
100.077
100.136
100.175
100.201
100.231
100.239
100.26
100.28
100.301
100.32
100.346
100.376
100.399
100.422
100.455
100.09
99.8629
99.8131
99.8989
99.9788
100.114
100.195
100.233
100.282
100.326
100.344
100.362
100.381
100.393
100.4
100.409
100.428
100.453
100.501
100.497
100.029
99.8312
99.7888
99.8455
99.9747
100.13
100.221
100.254
100.314
100.376
100.407
100.429
100.451
100.464
100.48
100.497
100.515
100.532
100.569
100.566
99.969
99.7936
99.7848
99.8424
100.052
100.232
100.268
100.294
100.36
100.417
100.455
100.481
100.505
100.523
100.551
100.577
100.601
100.622
100.652
100.651
99.9039
99.7091
99.749
99.8956
100.206
100.383
100.415
100.465
100.515
100.546
100.559
100.569
100.581
100.597
100.626
100.657
100.686
100.711
100.725
100.735
99.8144
99.6641
99.7104
100.069
100.373
100.489
100.531
100.578
100.619
100.642
100.651
100.662
100.678
100.701
100.729
100.753
100.771
100.782
100.778
100.773
99.6152
99.6482
99.8686
100.314
100.496
100.559
100.612
100.661
100.698
100.716
100.727
100.743
100.766
100.794
100.816
100.825
100.823
100.815
100.789
100.745
99.2743
99.6537
100.2
100.477
100.614
100.683
100.724
100.762
100.792
100.806
100.816
100.831
100.848
100.856
100.855
100.844
100.791
100.677
100.516
100.279
99.5544
100.144
100.505
100.664
100.754
100.805
100.838
100.867
100.88
100.884
100.882
100.882
100.88
100.858
100.773
100.624
100.358
100.1
100.005
99.9978
100.125
100.525
100.728
100.833
100.885
100.902
100.916
100.925
100.921
100.911
100.895
100.838
100.722
100.468
100.147
100.01
99.9967
99.9985
99.9992
99.9998
100.696
100.836
100.914
100.949
100.956
100.949
100.951
100.932
100.847
100.764
100.578
100.236
100.03
99.9957
99.9977
99.9989
99.9998
100
100
100
100.999
100.996
100.993
100.987
100.976
100.948
100.884
100.466
99.8406
100
100
100
100
100
100
100
100
100
100
100
100.999
100.997
100.991
100.98
100.958
100.849
100.471
100.012
100
100
100
100
100
100
100
100
100
100
100
100
100.992
100.994
100.989
100.968
100.924
100.63
100.032
99.9995
100
100
100
100
100
100
100
100
100
100
100
100
100.986
100.992
100.988
100.949
100.803
100.265
99.9964
100
100
100
100
100
100
100
100
100
100
100
100
100
100.978
100.989
100.987
100.925
100.578
99.9918
100
100
100
100
100
100
100
100
100
100
100
100
100
100
100.972
100.983
100.979
100.831
100.227
100
100
100
100
100
100
100
100
100
100
100
100
100
100
100
100.971
100.978
100.963
100.69
99.9943
100
100
100
100
100
100
100
100
100
100
100
100
100
100
100
100.984
100.976
100.92
100.478
100
100
100
100
100
100
100
100
100
100
100
100
100
100
100
100
101.005
100.977
100.828
100.132
100
100
100
100
100
100
100
100
100
100
100
100
100
100
100
100
101.016
100.943
100.692
99.9964
100
100
100
100
100
100
100
100
100
100
100
100
100
100
100
100
101.024
100.908
100.502
100
100
100
100
100
100
100
100
100
100
100
100
100
100
100
100
100
101.027
100.854
100.311
100
100
100
100
100
100
100
100
100
100
100
100
100
100
100
100
100
101.03
100.795
100.118
100
100
100
100
100
100
100
100
100
100
100
100
100
100
100
100
100
101.024
100.727
100
100
100
100
100
100
100
100
100
100
100
100
100
100
100
100
100
100
101.013
100.661
100
100
100
100
100
100
100
100
100
100
100
100
100
100
100
100
100
100
100.993
100.589
100
100
100
100
100
100
100
100
100
100
100
100
100
100
100
100
100
100
100.96
100.443
100
100
100
100
100
100
100
100
100
100
100
100
100
100
100
100
100
100
100.9
100.217
100
100
100
100
100
100
100
100
100
100
100
100
100
100
100
100
100
100
100.854
100.004
100
100
100
100
100
100
100
100
100
100
100
100
100
100
100
100
100
100
100.815
100
100
100
100
100
100
100
100
100
100
100
100
100
100
100
100
100
100
100
100.816
100
100
100
100
100
100
100
100
100
100
100
100
100
100
100
100
100
100
100
100.856
100.004
100
100
100
100
100
100
100
100
100
100
100
100
100
100
100
100
100
100
100.898
100.213
100
100
100
100
100
100
100
100
100
100
100
100
100
100
100
100
100
100
100.957
100.438
100
100
100
100
100
100
100
100
100
100
100
100
100
100
100
100
100
100
100.993
100.592
100
100
100
100
100
100
100
100
100
100
100
100
100
100
100
100
100
100
101.014
100.665
100
100
100
100
100
100
100
100
100
100
100
100
100
100
100
100
100
100
101.025
100.726
100
100
100
100
100
100
100
100
100
100
100
100
100
100
100
100
100
100
101.03
100.794
100.117
100
100
100
100
100
100
100
100
100
100
100
100
100
100
100
100
100
101.027
100.852
100.312
100
100
100
100
100
100
100
100
100
100
100
100
100
100
100
100
100
101.024
100.908
100.499
100
100
100
100
100
100
100
100
100
100
100
100
100
100
100
100
100
101.015
100.943
100.69
99.9964
100
100
100
100
100
100
100
100
100
100
100
100
100
100
100
100
101.005
100.978
100.829
100.137
100
100
100
100
100
100
100
100
100
100
100
100
100
100
100
100
100.985
100.978
100.924
100.479
100
100
100
100
100
100
100
100
100
100
100
100
100
100
100
100
100.972
100.979
100.963
100.693
99.9987
100
100
100
100
100
100
100
100
100
100
100
100
100
100
100
100.972
100.983
100.978
100.827
100.221
100
100
100
100
100
100
100
100
100
100
100
100
100
100
100
100.977
100.988
100.986
100.927
100.572
99.9919
100
100
100
100
100
100
100
100
100
100
100
100
100
100
100.985
100.991
100.988
100.949
100.806
100.273
99.9962
100
100
100
100
100
100
100
100
100
100
100
100
100
100.992
100.994
100.988
100.967
100.925
100.635
100.035
99.9994
100
100
100
100
100
100
100
100
100
100
100
100
100.999
100.997
100.991
100.98
100.96
100.85
100.469
100.01
100
100
100
100
100
100
100
100
100
100
100
100
100.999
100.997
100.993
100.988
100.978
100.948
100.881
100.459
99.8451
100
100
100
100
100
100
100
100
100
100
100
100.697
100.836
100.914
100.949
100.957
100.949
100.95
100.931
100.847
100.765
100.578
100.236
100.03
99.9958
99.9977
99.9989
99.9998
100
100
100
100.117
100.528
100.734
100.836
100.885
100.902
100.915
100.924
100.92
100.911
100.895
100.839
100.722
100.466
100.146
100.01
99.9967
99.9985
99.9992
99.9998
99.5291
100.114
100.493
100.667
100.756
100.806
100.837
100.866
100.879
100.884
100.883
100.882
100.881
100.857
100.772
100.623
100.358
100.1
100.005
99.9978
99.3487
99.7243
100.22
100.481
100.62
100.685
100.723
100.76
100.792
100.806
100.817
100.832
100.848
100.855
100.855
100.844
100.791
100.677
100.516
100.279
99.4422
99.5778
99.9015
100.303
100.498
100.561
100.613
100.661
100.699
100.717
100.728
100.744
100.766
100.794
100.815
100.825
100.823
100.815
100.789
100.745
99.5558
99.4853
99.5852
100.012
100.356
100.494
100.536
100.581
100.621
100.644
100.652
100.663
100.678
100.7
100.729
100.753
100.771
100.783
100.778
100.773
99.6691
99.5144
99.5815
99.8202
100.171
100.385
100.421
100.471
100.519
100.549
100.561
100.57
100.581
100.597
100.625
100.657
100.687
100.711
100.725
100.735
99.7881
99.6005
99.6319
99.8264
100.018
100.222
100.265
100.295
100.362
100.419
100.457
100.482
100.505
100.523
100.551
100.577
100.601
100.623
100.652
100.651
99.8987
99.712
99.7318
99.8526
99.9641
100.122
100.223
100.256
100.317
100.379
100.408
100.43
100.451
100.464
100.481
100.497
100.516
100.532
100.569
100.566
99.9883
99.8137
99.84
99.911
99.9826
100.116
100.199
100.237
100.286
100.329
100.346
100.363
100.381
100.392
100.4
100.409
100.429
100.453
100.5
100.497
100.072
99.8772
99.8714
99.9349
99.9985
100.087
100.145
100.186
100.21
100.238
100.245
100.261
100.279
100.3
100.321
100.347
100.376
100.398
100.421
100.455
100.173
99.9267
99.8822
99.9154
99.9683
100.01
100.056
100.104
100.124
100.155
100.178
100.203
100.244
100.268
100.289
100.31
100.325
100.337
100.347
100.39
100.259
100.017
99.9139
99.9188
99.9534
99.9849
100.028
100.086
100.125
100.163
100.192
100.204
100.23
100.24
100.248
100.255
100.258
100.263
100.27
100.312
100.275
100.128
100.006
99.9623
99.9696
100.002
100.045
100.107
100.142
100.164
100.181
100.179
100.187
100.185
100.178
100.169
100.162
100.162
100.18
100.247
100.236
100.136
100.082
100.033
100.019
100.053
100.067
100.099
100.123
100.125
100.126
100.122
100.103
100.091
100.075
100.075
100.089
100.131
100.166
100.207
100.161
100.135
100.086
100.049
100.035
100.05
100.037
100.041
100.048
100.051
100.018
100.012
100.001
100.016
100.044
100.072
100.098
100.129
100.145
100.156
100.123
100.134
100.086
100.037
99.9899
99.9798
99.9297
99.9105
99.9107
99.9233
99.9317
99.96
99.9947
100.028
100.053
100.072
100.092
100.102
100.099
100.076
100.098
100.13
100.109
100.061
99.9911
99.908
99.87
99.8674
99.8853
99.9097
99.9427
99.9727
100.004
100.026
100.042
100.049
100.052
100.043
100.025
100.015
100.129
100.215
100.303
100.374
100.49
100.507
100.43
100.416
100.538
100.601
100.552
100.463
100.478
100.546
100.647
100.706
100.693
100.617
100.454
100.347
100.5
100.721
100.76
100.817
100.92
101.019
101.054
101.076
101.124
101.124
101.112
101.091
101.102
101.149
101.171
101.168
101.158
101.126
101.051
101.008
101.055
101.033
101.011
100.997
100.965
100.934
100.912
100.905
100.894
100.875
100.862
100.858
100.855
100.853
100.842
100.824
100.815
100.814
100.813
100.807
100.599
100.641
100.699
100.765
100.782
100.779
100.779
100.797
100.818
100.817
100.81
100.802
100.799
100.8
100.798
100.791
100.787
100.785
100.785
100.783
100.026
100.052
100.166
100.321
100.446
100.503
100.553
100.604
100.653
100.681
100.682
100.679
100.682
100.688
100.698
100.706
100.711
100.713
100.714
100.719
100.07
100.091
100.106
100.099
100.126
100.196
100.34
100.427
100.492
100.545
100.564
100.56
100.561
100.57
100.588
100.603
100.612
100.617
100.622
100.632
100.122
100.133
100.145
100.144
100.125
100.121
100.142
100.219
100.352
100.447
100.481
100.491
100.49
100.497
100.512
100.527
100.534
100.537
100.54
100.55
100.185
100.182
100.187
100.177
100.165
100.164
100.161
100.157
100.185
100.289
100.397
100.459
100.459
100.467
100.473
100.484
100.488
100.487
100.488
100.496
100.239
100.229
100.23
100.222
100.213
100.21
100.202
100.19
100.179
100.185
100.245
100.367
100.435
100.45
100.448
100.457
100.459
100.457
100.459
100.465
100.297
100.278
100.271
100.259
100.252
100.245
100.232
100.216
100.201
100.181
100.182
100.216
100.339
100.411
100.426
100.442
100.438
100.437
100.443
100.447
100.367
100.333
100.308
100.289
100.285
100.276
100.263
100.245
100.22
100.203
100.179
100.18
100.206
100.299
100.39
100.421
100.415
100.42
100.432
100.432
100.439
100.399
100.35
100.324
100.312
100.3
100.286
100.266
100.238
100.212
100.192
100.179
100.182
100.192
100.279
100.368
100.386
100.409
100.419
100.414
100.535
100.463
100.397
100.343
100.312
100.317
100.316
100.301
100.276
100.233
100.209
100.201
100.191
100.178
100.18
100.225
100.31
100.365
100.377
100.379
100.617
100.544
100.488
100.434
100.366
100.344
100.332
100.313
100.289
100.261
100.233
100.22
100.207
100.186
100.163
100.153
100.169
100.224
100.279
100.32
100.608
100.586
100.537
100.487
100.431
100.376
100.34
100.303
100.287
100.28
100.261
100.243
100.224
100.197
100.17
100.149
100.141
100.131
100.144
100.221
100.488
100.547
100.541
100.514
100.475
100.422
100.379
100.335
100.309
100.292
100.266
100.238
100.212
100.187
100.17
100.154
100.134
100.114
100.097
100.106
100.25
100.377
100.446
100.482
100.475
100.448
100.407
100.365
100.325
100.293
100.259
100.228
100.208
100.193
100.18
100.163
100.14
100.115
100.09
100.071
100.043
100.145
100.253
100.336
100.39
100.415
100.404
100.38
100.343
100.305
100.274
100.24
100.217
100.196
100.173
100.148
100.124
100.102
100.082
100.06
100.002
100.015
100.065
100.155
100.234
100.291
100.328
100.349
100.339
100.315
100.284
100.249
100.215
100.186
100.155
100.132
100.118
100.102
100.089
100.065
100
100
100.003
100.024
100.079
100.15
100.208
100.249
100.279
100.291
100.282
100.261
100.229
100.199
100.166
100.141
100.127
100.11
100.088
100.055
100
100
100
100.001
100.006
100.031
100.08
100.138
100.187
100.217
100.241
100.244
100.236
100.215
100.187
100.156
100.128
100.104
100.081
100.048
100
100
100
100
100
100.001
100.007
100.033
100.078
100.129
100.169
100.192
100.21
100.209
100.202
100.184
100.156
100.125
100.101
100.069
100
100
100
100
100
100
100
100.002
100.008
100.032
100.073
100.118
100.153
100.173
100.186
100.185
100.178
100.161
100.137
100.098
100
100
100
100
100
100
100
100
100
100.002
100.008
100.028
100.065
100.108
100.141
100.158
100.168
100.166
100.162
100.139
100
100
100
100
100
100
100
100
100
100
100
100.001
100.007
100.024
100.056
100.096
100.129
100.146
100.154
100.15
100
100
100
100
100
100
100
100
100
100
100
100
100
100.001
100.006
100.02
100.047
100.085
100.114
100.138
100
100
100
100
100
100
100
100
100
100
100
100
100
100
100
100.001
100.004
100.016
100.041
100.106
100.598
100.654
100.61
100.415
100.142
100.017
100.001
100
100
100
100
100
100
100
100
100.672
100.663
100.518
100.217
100.022
100
100
100
100
100
100
100
100
100
100
100.704
100.636
100.373
100.074
100.002
100
100
100
100
100
100
100
100
100
100
100.72
100.519
100.167
100.009
100
100
100
100
100
100
100
100
100
100
100
100.651
100.285
100.025
100
100
100
100
100
100
100
100
100
100
100
100
100.395
100.038
100
100
100
100
100
100
100
100
100
100
100
100
100
100.043
100
100
100
100
100
100
100
100
100
100
100
100
100
100
99.9995
100
100
100
100
100
100
100
100
100
100
100
100
100
100
100
100
100
100
100
100
100
100
100
100
100
100
100
100
100
100
100
100
100
100
100
100
100
100
100
100
100
100
100
100
100
100
100
100
100
100
100
100
100
100
100
100
100
100
100
100
100
100
100
100
100
100
100
100
100
100
100
100
100
100
100
100
100
100
100
100
100
100
100
100
100
100
100
100
100
100
100
100
100
100
100
100
100
100
100
100
100
100
100
100
100
100
100
100
100
100
100
100
100
100
100
100
100
100
100
100
100
100
100
100
100
100
100
100
100
100
100
100
100
100
100
100
100
100
100
100
100
100
100
100
100
100
100
100
100
100
100
100
100
100
100
100
100
100
100
100
100
100
100
100
100
100
100
100
100
100
100
100
100
100
100
100
100
100
100
100
100
100
100
100
100
100
100
100
100
100
100
100
100
100
100
100
100
100
100
100
100
100
100
100
100
100
100
100
100
100
100
100
100
100
100
100
100
100
100
100
100
100
100
100
100
100
100
100
100
100
100
100
100
100
100
100
100
100
100
100
100
100
100
100
100
100
100
100
100
100
100
100
100
100
100
100
100
100
100
100
100
100
100
100
100
100
100
100
100
100
100
100
100
100
100
100
100
100
100
100
100
100
100
100
100
100
100
100
100
100
100
100
100
100
100
100
100
100
100
100
100
100
100
100
100
100
100
100
100
100
100
100
100
100
100
100
100
100
100
100
100
100
100
100
100
100
100
100
100
100
100
100
100
100
100
100
100
100
100
100
100
100
100
100
100
100
100
100
100
100
100
100
100
100
100
100
100
100
100
100
100
100
100
100
100
100
100
100
100
100
100
100
100
100
100
100
100
100
100
100
100
100
100
100
100
100
100
100
100
100
100
100
100
100
100
100
100
100
100
100
100
100
100
100
100
100
100
100
100
100
100
100
100
100
100
100
100
100
100
100
100
100
100
100
100
100
100
100
100
100
100
100
100
100
100
100
100
100
100
100
100
100
100
100
100
100
100
100
100
100
100
100
100
100
100
100
100
100
100
100
100
100
100
100
100
100
100
100
100
100
100
100
100
100
100
100
100
100
100
100
100
100
100
100
100
100
100
100
100
100
100
100
100
100
100
100
100
100
100
100
100
100
100
100
100
100
100
100
100
100
100
100
100
100
100
100
100
100
100
100
100
100
100
100
100
100
100
100
100
100
100
100
100
100
100
100
100
100
100
100
100
100
100
100
100
100
100
100
100
100
100
100
100
100
100
100
100
100
100
100
100
100
100
100
100
100
100
100
100
100
100
100
100
100
100
100
100
100
100
100
100
100
100
100
100
100
100
100
100
100
100
100
100
100
100
100
100
100
100
100
100
100
100
100
100
100
100
100
100
100
100
100
100
100
100
100
100
100
100
100
100
100
100
100
100
100
100
100
100
100
100
100
100
100
100
100
100
100
100
100
100
100
100
100
100
100
100
100
100
100
100
100
100
100
100
100
100
100
100
100
100
100
100
100
100
100
100
100
100
100
100
100
100
100
100
100
100
100
100
100
100
100
100
100
100
100
100
100
100
100
100
100
100
100
100
100
100
100
100
100
100
100
100
100
100
100
100
100
100
100
100
100
100
100
100
100
100
100
100
100
100
100
100
100
100
100
100
100
100
100
100
100
100
100
100
100
100
100
100
100
100
100
100
100
100
100
100
100
100
100
100
100
100
100
100
100
100
100
100
100
100
100
100
100
100
100
100
100
100
100
100
100
100
100
100
100
100
100
100
100
100
100
100
100
100
100
100
100
100
100
100
100
100
100
100
100
100
100
100
100
100
100
100
100
100
100
100
100
100
100
100
100
100
100
100
100
100
100
100
100
100
100
100
100
100
100
100
100
100
100
100
100
100
100
100
100
100
100
100
100
100
100
100
100
100
100
100
100
100
100
100
100
100
100
100
100
100
100
100
100
100
100
100
100
100
100
100
100
100
100
100
100
100
100
99.9995
100
100
100
100
100
100
100
100
100
100
100
100
100
100
100.043
100
100
100
100
100
100
100
100
100
100
100
100
100
100
100.394
100.038
100
100
100
100
100
100
100
100
100
100
100
100
100
100.651
100.285
100.025
100
100
100
100
100
100
100
100
100
100
100
100
100.72
100.519
100.168
100.009
100
100
100
100
100
100
100
100
100
100
100
100.704
100.636
100.373
100.074
100.002
100
100
100
100
100
100
100
100
100
100
100.672
100.663
100.517
100.217
100.022
100
100
100
100
100
100
100
100
100
100
100.598
100.654
100.61
100.415
100.142
100.017
100.001
100
100
100
100
100
100
100
100
100.536
100.617
100.608
100.488
100.25
100.043
100.002
100
100
100
100
100
100
100
100
100.46
100.546
100.587
100.547
100.377
100.145
100.015
100
100
100
100
100
100
100
100
100.393
100.486
100.536
100.541
100.446
100.253
100.065
100.003
100
100
100
100
100
100
100
100.343
100.433
100.486
100.514
100.482
100.336
100.155
100.024
100.001
100
100
100
100
100
100
100.314
100.367
100.432
100.473
100.474
100.389
100.234
100.079
100.006
100
100
100
100
100
100
100.318
100.344
100.377
100.423
100.448
100.415
100.291
100.15
100.031
100.001
100
100
100
100
100
100.316
100.332
100.336
100.377
100.408
100.405
100.329
100.209
100.08
100.007
100
100
100
100
100
100.302
100.314
100.306
100.333
100.363
100.381
100.349
100.249
100.139
100.033
100.001
100
100
100
100
100.272
100.285
100.291
100.316
100.324
100.341
100.339
100.279
100.187
100.078
100.008
100
100
100
100
100.233
100.255
100.276
100.295
100.294
100.305
100.315
100.291
100.217
100.128
100.032
100.002
100
100
100
100.213
100.229
100.256
100.264
100.26
100.276
100.285
100.282
100.241
100.169
100.073
100.008
100
100
100
100.205
100.22
100.241
100.236
100.227
100.242
100.249
100.261
100.244
100.192
100.118
100.028
100.001
100
100
100.195
100.208
100.223
100.212
100.21
100.218
100.214
100.229
100.236
100.21
100.153
100.065
100.007
100
100
100.182
100.187
100.197
100.189
100.192
100.197
100.185
100.198
100.216
100.209
100.173
100.108
100.024
100.001
100
100.183
100.167
100.171
100.17
100.179
100.173
100.156
100.166
100.187
100.202
100.186
100.141
100.057
100.006
100
100.226
100.153
100.147
100.152
100.163
100.148
100.134
100.142
100.156
100.183
100.184
100.158
100.096
100.02
100.001
100.309
100.168
100.14
100.132
100.14
100.123
100.117
100.127
100.128
100.156
100.178
100.168
100.129
100.047
100.004
100.364
100.224
100.132
100.115
100.114
100.1
100.1
100.109
100.104
100.125
100.161
100.167
100.146
100.085
100.016
100.374
100.278
100.145
100.098
100.089
100.082
100.088
100.087
100.081
100.101
100.137
100.162
100.154
100.114
100.041
100.379
100.32
100.222
100.106
100.072
100.061
100.065
100.055
100.049
100.069
100.098
100.138
100.15
100.138
100.105
100.438
100.394
100.352
100.329
100.314
100.297
100.284
100.263
100.229
100.203
100.194
100.185
100.186
100.193
100.28
100.369
100.385
100.406
100.417
100.413
100.365
100.329
100.314
100.298
100.286
100.273
100.261
100.242
100.215
100.197
100.183
100.183
100.205
100.3
100.387
100.419
100.414
100.419
100.431
100.431
100.295
100.278
100.274
100.261
100.249
100.242
100.23
100.214
100.197
100.18
100.184
100.218
100.331
100.415
100.423
100.438
100.436
100.436
100.443
100.447
100.239
100.23
100.23
100.22
100.209
100.208
100.201
100.189
100.175
100.183
100.246
100.364
100.435
100.446
100.444
100.454
100.457
100.456
100.459
100.466
100.185
100.18
100.19
100.179
100.168
100.167
100.163
100.158
100.18
100.284
100.397
100.456
100.458
100.46
100.467
100.481
100.489
100.488
100.489
100.496
100.123
100.136
100.137
100.138
100.118
100.118
100.147
100.221
100.343
100.448
100.486
100.493
100.491
100.495
100.511
100.528
100.536
100.538
100.54
100.549
100.071
100.093
100.104
100.098
100.125
100.213
100.357
100.432
100.484
100.536
100.567
100.567
100.568
100.575
100.591
100.607
100.615
100.619
100.621
100.628
100.027
100.043
100.165
100.289
100.435
100.526
100.581
100.613
100.636
100.66
100.678
100.687
100.69
100.695
100.703
100.713
100.717
100.717
100.716
100.717
100.554
100.626
100.698
100.722
100.761
100.799
100.81
100.809
100.803
100.799
100.801
100.805
100.805
100.805
100.802
100.797
100.793
100.79
100.786
100.781
101.032
101.029
101.01
100.983
100.954
100.938
100.924
100.913
100.896
100.875
100.864
100.857
100.855
100.852
100.84
100.824
100.817
100.814
100.813
100.806
)
;

boundaryField
{
    inlet
    {
        type            fixedValue;
        value           uniform 100;
    }
    outlet
    {
        type            inletOutlet;
        inletValue      uniform 100;
        value           nonuniform List<scalar> 
50
(
100.379
100.32
100.221
100.106
100.071
100.06
100.065
100.055
100.048
100.069
100.098
100.139
100.15
100.138
100.105
100.807
100.783
100.719
100.632
100.55
100.496
100.465
100.447
100.432
100.414
100.413
100.431
100.447
100.466
100.496
100.549
100.628
100.717
100.781
100.806
100.379
100.32
100.222
100.106
100.072
100.061
100.065
100.055
100.049
100.069
100.098
100.138
100.15
100.138
100.105
)
;
    }
    airfoil
    {
        type            zeroGradient;
    }
    top
    {
        type            symmetryPlane;
    }
    bottom
    {
        type            symmetryPlane;
    }
    defaultFaces
    {
        type            empty;
    }
}


// ************************************************************************* //
