/*--------------------------------*- C++ -*----------------------------------*\
  =========                 |
  \\      /  F ield         | OpenFOAM: The Open Source CFD Toolbox
   \\    /   O peration     | Website:  https://openfoam.org
    \\  /    A nd           | Version:  7
     \\/     M anipulation  |
\*---------------------------------------------------------------------------*/
FoamFile
{
    version     2.0;
    format      ascii;
    class       volVectorField;
    location    "7.7";
    object      U;
}
// * * * * * * * * * * * * * * * * * * * * * * * * * * * * * * * * * * * * * //

dimensions      [0 1 -1 0 0 0 0];

internalField   nonuniform List<vector> 
3700
(
(1.59395 -0.469889 0)
(1.36391 -0.649022 0)
(1.36454 -0.385495 0)
(1.42958 -0.387626 0)
(1.55231 -0.426214 0)
(1.54554 -0.27248 0)
(1.54854 -0.0924013 0)
(1.56936 -0.0652023 0)
(1.59673 -0.116135 0)
(1.61019 -0.223161 0)
(1.58875 -0.265201 0)
(1.56218 -0.187211 0)
(1.63638 -0.133023 0)
(1.7017 -0.177928 0)
(1.74032 -0.274796 0)
(1.7683 -0.323272 0)
(1.72897 -0.296247 0)
(1.69522 -0.237172 0)
(1.71178 -0.109832 0)
(1.78927 -0.118682 0)
(1.73791 -1.43708 0)
(1.62505 -1.5167 0)
(1.6241 -1.36581 0)
(1.73332 -1.39111 0)
(1.81533 -1.50197 0)
(1.7374 -1.2996 0)
(1.68262 -1.03647 0)
(1.74832 -1.00751 0)
(1.86531 -1.20792 0)
(1.92732 -1.49136 0)
(1.88686 -1.55561 0)
(1.87165 -1.40206 0)
(1.95858 -1.30381 0)
(2.09387 -1.37012 0)
(2.20003 -1.40652 0)
(2.23148 -1.35479 0)
(2.23458 -1.27267 0)
(2.21108 -1.13391 0)
(2.21957 -0.946696 0)
(2.27342 -0.97977 0)
(1.50725 -1.41457 0)
(1.59629 -1.63199 0)
(1.63936 -1.7613 0)
(1.7001 -1.93767 0)
(1.80638 -2.11675 0)
(1.88346 -2.19333 0)
(1.91323 -2.23152 0)
(1.94734 -2.21739 0)
(1.97932 -2.2172 0)
(2.09456 -2.129 0)
(2.14199 -2.12226 0)
(2.19898 -2.03023 0)
(2.24679 -1.94348 0)
(2.27074 -1.91186 0)
(2.3279 -1.81899 0)
(2.42608 -1.77326 0)
(2.51632 -1.69709 0)
(2.62146 -1.63784 0)
(2.70185 -1.55045 0)
(2.75767 -1.52244 0)
(1.3769 -1.43803 0)
(1.48917 -1.74306 0)
(1.59492 -1.99522 0)
(1.67901 -2.18889 0)
(1.77911 -2.29112 0)
(1.81644 -2.29994 0)
(1.87892 -2.12932 0)
(1.95639 -2.04052 0)
(2.07116 -1.99403 0)
(2.29246 -1.91301 0)
(2.42569 -1.79029 0)
(2.47438 -1.80036 0)
(2.51591 -1.75755 0)
(2.45902 -1.79511 0)
(2.45365 -1.73139 0)
(2.48421 -1.6873 0)
(2.52781 -1.56935 0)
(2.60101 -1.4673 0)
(2.68127 -1.36982 0)
(2.80148 -1.19199 0)
(1.23976 -1.40439 0)
(1.42133 -1.8731 0)
(1.63257 -2.10221 0)
(1.7322 -2.27752 0)
(1.92814 -2.341 0)
(1.98956 -2.3649 0)
(1.99635 -2.08381 0)
(1.93229 -2.02094 0)
(2.00501 -1.96359 0)
(2.19039 -1.87274 0)
(2.35713 -1.66918 0)
(2.52578 -1.59128 0)
(2.64209 -1.42492 0)
(2.66813 -1.42672 0)
(2.67827 -1.40083 0)
(2.64401 -1.46165 0)
(2.6225 -1.42338 0)
(2.62125 -1.31379 0)
(2.64462 -1.33007 0)
(2.71477 -1.13469 0)
(1.18363 -1.46778 0)
(1.46686 -1.99876 0)
(1.76638 -2.20126 0)
(1.99397 -2.32344 0)
(2.24778 -2.29442 0)
(2.19125 -2.33754 0)
(2.18097 -2.03317 0)
(2.04835 -2.00658 0)
(2.07448 -1.91825 0)
(2.15631 -1.85301 0)
(2.27849 -1.67956 0)
(2.47424 -1.56821 0)
(2.5633 -1.4231 0)
(2.72435 -1.31961 0)
(2.78222 -1.10943 0)
(2.79835 -1.02675 0)
(2.76416 -1.02857 0)
(2.76122 -0.957563 0)
(2.69727 -1.07964 0)
(2.68826 -0.979886 0)
(1.25623 -1.60839 0)
(1.57824 -2.10084 0)
(1.99238 -2.30217 0)
(2.12622 -2.30647 0)
(2.29099 -2.2382 0)
(2.33013 -2.19527 0)
(2.39315 -1.89304 0)
(2.33913 -1.84223 0)
(2.30926 -1.85657 0)
(2.31832 -1.77906 0)
(2.36616 -1.64745 0)
(2.46389 -1.5275 0)
(2.52698 -1.35383 0)
(2.64737 -1.26476 0)
(2.6981 -1.09929 0)
(2.77133 -0.909908 0)
(2.82311 -0.754885 0)
(2.83517 -0.572401 0)
(2.77017 -0.598193 0)
(2.72642 -0.626949 0)
(1.3963 -1.77354 0)
(1.73505 -2.23137 0)
(1.9799 -2.34141 0)
(2.09766 -2.29714 0)
(2.23146 -2.16909 0)
(2.33592 -2.08244 0)
(2.43635 -1.83888 0)
(2.50582 -1.66247 0)
(2.57193 -1.61308 0)
(2.62499 -1.48349 0)
(2.5815 -1.52855 0)
(2.62372 -1.34978 0)
(2.60466 -1.23799 0)
(2.63471 -1.14922 0)
(2.66487 -1.00182 0)
(2.69703 -0.866278 0)
(2.7585 -0.75424 0)
(2.79329 -0.544835 0)
(2.79544 -0.378368 0)
(2.74897 -0.308456 0)
(1.49743 -1.8446 0)
(1.74578 -2.24266 0)
(1.83762 -2.30734 0)
(1.89179 -2.24048 0)
(2.02956 -2.03451 0)
(2.20891 -1.73858 0)
(2.32929 -1.74417 0)
(2.52142 -1.51358 0)
(2.67186 -1.42882 0)
(2.74523 -1.13956 0)
(2.7815 -1.14344 0)
(2.79747 -0.926785 0)
(2.75398 -0.9092 0)
(2.74229 -0.814051 0)
(2.72968 -0.732063 0)
(2.70742 -0.641099 0)
(2.70554 -0.579014 0)
(2.73809 -0.504787 0)
(2.71565 -0.302895 0)
(2.68272 -0.121875 0)
(1.57635 -1.8615 0)
(1.61085 -2.16328 0)
(1.71149 -2.17221 0)
(1.80351 -2.1609 0)
(1.94824 -1.94082 0)
(2.06897 -1.68509 0)
(2.12103 -1.69365 0)
(2.28676 -1.50029 0)
(2.41883 -1.40638 0)
(2.55204 -1.15417 0)
(2.67169 -0.893752 0)
(2.73081 -0.649464 0)
(2.74091 -0.491031 0)
(2.75043 -0.370144 0)
(2.74411 -0.270447 0)
(2.72409 -0.25242 0)
(2.69683 -0.209547 0)
(2.68565 -0.278427 0)
(2.64895 -0.187637 0)
(2.61338 -0.0129111 0)
(1.51168 -1.71662 0)
(1.53932 -1.98365 0)
(1.68663 -1.92787 0)
(1.73539 -1.85517 0)
(1.89953 -1.74639 0)
(2.06619 -1.59776 0)
(2.13438 -1.61088 0)
(2.27854 -1.39769 0)
(2.36518 -1.24494 0)
(2.43456 -1.12275 0)
(2.53818 -0.918521 0)
(2.61098 -0.703016 0)
(2.64956 -0.465927 0)
(2.70792 -0.301044 0)
(2.66853 -0.0523434 0)
(2.65833 0.0485523 0)
(2.6244 0.177029 0)
(2.59841 0.09707 0)
(2.55053 0.12302 0)
(2.58857 0.0384793 0)
(1.36877 -1.51399 0)
(1.56855 -1.75781 0)
(1.75412 -1.75329 0)
(1.77961 -1.47853 0)
(1.84883 -1.62575 0)
(2.11014 -1.46723 0)
(2.33261 -1.38627 0)
(2.45418 -1.18432 0)
(2.52954 -0.920494 0)
(2.5459 -0.837745 0)
(2.58438 -0.639408 0)
(2.6024 -0.466702 0)
(2.59796 -0.297964 0)
(2.62311 -0.189731 0)
(2.58342 0.00259439 0)
(2.5931 0.0998672 0)
(2.53504 0.289407 0)
(2.48415 0.370111 0)
(2.42667 0.404984 0)
(2.45645 0.323683 0)
(1.21362 -1.35122 0)
(1.6743 -1.61546 0)
(1.8412 -1.68466 0)
(1.85338 -1.21765 0)
(1.93741 -1.43282 0)
(2.36034 -1.34243 0)
(2.57534 -0.955232 0)
(2.69355 -0.543883 0)
(2.67146 -0.315126 0)
(2.64645 -0.218695 0)
(2.64176 -0.081629 0)
(2.61403 0.050435 0)
(2.57965 0.144963 0)
(2.54368 0.223598 0)
(2.49525 0.286797 0)
(2.47537 0.297798 0)
(2.43327 0.363917 0)
(2.37475 0.476591 0)
(2.30023 0.595271 0)
(2.29681 0.570046 0)
(1.02329 -1.22868 0)
(1.70762 -1.56975 0)
(2.03062 -1.58454 0)
(2.03541 -1.00805 0)
(2.49475 -0.872622 0)
(2.53197 -1.09282 0)
(2.64303 -0.719981 0)
(2.62639 -0.327175 0)
(2.60039 -0.224742 0)
(2.57361 0.000304868 0)
(2.57011 0.164612 0)
(2.50062 0.364671 0)
(2.45636 0.482314 0)
(2.38262 0.60376 0)
(2.3332 0.644869 0)
(2.29696 0.64338 0)
(2.25828 0.657175 0)
(2.24595 0.658828 0)
(2.17922 0.737416 0)
(2.1336 0.785431 0)
(0.824039 -1.12482 0)
(1.56839 -1.61424 0)
(2.09249 -1.39712 0)
(2.53093 -0.869579 0)
(2.46295 -0.85334 0)
(2.41547 -0.798552 0)
(2.46004 -0.513421 0)
(2.46508 -0.215028 0)
(2.45051 -0.037197 0)
(2.45096 0.140894 0)
(2.41927 0.332007 0)
(2.35251 0.510194 0)
(2.30171 0.633728 0)
(2.22148 0.75891 0)
(2.16099 0.825186 0)
(2.11372 0.852336 0)
(2.0625 0.904773 0)
(2.05658 0.904972 0)
(2.04077 0.92629 0)
(2.06189 0.950023 0)
(1.18161 -1.06439 0)
(1.38694 -1.51354 0)
(2.3533 -0.2041 0)
(2.22768 -0.847893 0)
(2.31461 -0.708546 0)
(2.42697 -0.228528 0)
(2.4197 0.111418 0)
(2.38058 0.286456 0)
(2.31985 0.44 0)
(2.30457 0.571583 0)
(2.20981 0.729008 0)
(2.14102 0.830281 0)
(2.086 0.891755 0)
(2.02916 0.952655 0)
(1.98952 0.964331 0)
(1.95673 0.986 0)
(1.95532 1.01447 0)
(1.9693 0.996652 0)
(1.99357 0.996542 0)
(2.06973 0.979763 0)
(1.26151 -0.395642 0)
(1.86225 -0.456946 0)
(2.29071 -0.445391 0)
(2.32374 -0.130667 0)
(2.36271 0.109203 0)
(2.34842 0.355134 0)
(2.28754 0.561841 0)
(2.1813 0.735098 0)
(2.12585 0.807033 0)
(2.07316 0.922473 0)
(1.97017 1.01936 0)
(1.91335 1.06925 0)
(1.88185 1.0859 0)
(1.86753 1.09309 0)
(1.86981 1.0579 0)
(1.89702 1.0484 0)
(1.96389 1.0193 0)
(2.16608 0.899426 0)
(2.38063 0.790476 0)
(2.77608 0.443642 0)
(1.111 -0.121055 0)
(1.83268 -0.145308 0)
(2.25151 0.056101 0)
(2.23865 0.485532 0)
(2.20069 0.678693 0)
(2.13671 0.799062 0)
(2.0464 0.899727 0)
(1.9649 0.961099 0)
(1.90916 1.03076 0)
(1.8493 1.12276 0)
(1.79079 1.15597 0)
(1.79372 1.15013 0)
(1.81311 1.12967 0)
(1.84932 1.08809 0)
(2.03456 0.955438 0)
(2.25517 0.83268 0)
(2.66618 0.503838 0)
(3.03829 0.089419 0)
(3.0556 -0.0246389 0)
(3.00408 -0.00473245 0)
(1.0207 0.0255994 0)
(1.93031 0.777265 0)
(2.10676 0.864728 0)
(1.99303 0.99106 0)
(1.96457 0.9905 0)
(1.88346 1.078 0)
(1.78736 1.14111 0)
(1.75232 1.14711 0)
(1.74986 1.16347 0)
(1.7285 1.20638 0)
(1.7165 1.1981 0)
(1.87681 1.06742 0)
(2.1094 0.880288 0)
(2.50459 0.573406 0)
(2.9849 0.134997 0)
(3.07338 -0.0294741 0)
(3.00817 -0.0076942 0)
(3.00293 -0.00382091 0)
(3.00123 -0.00218543 0)
(3.00008 -0.00047925 0)
(1.16902 0.759158 0)
(1.82646 1.14956 0)
(1.83881 1.14759 0)
(1.75094 1.18375 0)
(1.71796 1.20262 0)
(1.664 1.24703 0)
(1.65304 1.21791 0)
(1.71952 1.16444 0)
(1.74423 1.23636 0)
(1.77464 1.15347 0)
(2.26301 0.755536 0)
(2.85193 0.217583 0)
(3.09478 -0.0257729 0)
(3.02055 -0.0123185 0)
(3.00472 -0.00550882 0)
(3.00192 -0.00307508 0)
(3.00006 -0.000603758 0)
(2.99998 -2.41681e-05 0)
(2.99999 1.43364e-05 0)
(3 5.91038e-06 0)
(1.57765 1.25288 0)
(1.58377 1.25862 0)
(1.5948 1.26403 0)
(1.60434 1.26553 0)
(1.61581 1.25542 0)
(1.60573 1.26248 0)
(1.87624 1.15983 0)
(2.96054 0.37535 0)
(3.375 -0.636518 0)
(3 6.1708e-11 0)
(3 -7.26732e-11 0)
(3 7.77284e-11 0)
(3 5.36801e-15 0)
(3 -4.25202e-13 0)
(3 -1.19865e-14 0)
(3 1.80532e-14 0)
(3 -8.07833e-15 0)
(3 2.62203e-16 0)
(3 2.66905e-15 0)
(3 1.75646e-15 0)
(1.5744 1.24269 0)
(1.58902 1.25543 0)
(1.60403 1.26427 0)
(1.61246 1.26278 0)
(1.66915 1.23948 0)
(1.76874 1.20022 0)
(2.30026 0.713547 0)
(3.00209 0.0074733 0)
(3 7.0806e-08 0)
(3 -3.12829e-11 0)
(3 -5.43724e-13 0)
(3 -3.29306e-15 0)
(3 1.18463e-15 0)
(3 1.21674e-15 0)
(3 3.88362e-15 0)
(3 3.65899e-15 0)
(3 1.6899e-15 0)
(3 3.2096e-16 0)
(3 1.39717e-15 0)
(3 2.3986e-15 0)
(1.57969 1.25264 0)
(1.59816 1.25847 0)
(1.60234 1.26499 0)
(1.57617 1.28436 0)
(1.7593 1.19477 0)
(2.22661 0.820656 0)
(2.99731 -0.00147855 0)
(3.00005 -0.000300218 0)
(3 5.27701e-07 0)
(3 5.91511e-11 0)
(3 -2.61123e-12 0)
(3 1.42924e-15 0)
(3 1.42359e-15 0)
(3 1.8143e-15 0)
(3 3.63302e-15 0)
(3 3.58136e-15 0)
(3 1.31893e-15 0)
(3 -3.54848e-16 0)
(3 8.02651e-16 0)
(3 1.63014e-15 0)
(1.58276 1.25701 0)
(1.60074 1.26297 0)
(1.61733 1.2711 0)
(1.57349 1.34067 0)
(1.83898 1.11562 0)
(2.71384 0.257563 0)
(3.00448 -0.000441911 0)
(2.99993 5.3735e-05 0)
(3 -7.17606e-07 0)
(3 8.39746e-10 0)
(3 -3.89327e-12 0)
(3 1.0841e-15 0)
(3 2.37883e-15 0)
(3 3.46661e-15 0)
(3 3.84338e-15 0)
(3 3.38032e-15 0)
(3 1.69846e-15 0)
(3 -1.45645e-16 0)
(3 4.8585e-16 0)
(3 1.03781e-15 0)
(1.58612 1.27179 0)
(1.60331 1.2706 0)
(1.63533 1.26455 0)
(1.66212 1.24044 0)
(2.32462 0.656456 0)
(3.0226 -0.0209756 0)
(2.99971 8.50337e-05 0)
(3 -3.93923e-06 0)
(3 7.76682e-08 0)
(3 -8.62733e-10 0)
(3 6.10329e-12 0)
(3 1.65606e-15 0)
(3 2.76166e-15 0)
(3 4.39663e-15 0)
(3 4.28641e-15 0)
(3 2.60444e-15 0)
(3 4.37597e-16 0)
(3 1.33748e-15 0)
(3 -5.2949e-16 0)
(3 2.49943e-16 0)
(1.58787 1.28754 0)
(1.58938 1.28282 0)
(1.6485 1.24509 0)
(1.89506 1.07257 0)
(2.74774 0.215061 0)
(3 -5.81223e-10 0)
(3 1.34877e-08 0)
(3 -1.212e-08 0)
(3 5.12189e-10 0)
(3 1.74254e-12 0)
(3 -1.09172e-13 0)
(3 2.77475e-15 0)
(3 3.21378e-15 0)
(3 3.80091e-15 0)
(3 4.16145e-15 0)
(3 2.74088e-15 0)
(3 2.0117e-15 0)
(3 2.05839e-15 0)
(3 3.74925e-16 0)
(3 -6.0579e-16 0)
(1.58685 1.29778 0)
(1.55011 1.28793 0)
(1.66216 1.22608 0)
(2.0958 0.844052 0)
(3.02267 -0.0177717 0)
(3 -5.93503e-12 0)
(3 -1.24635e-11 0)
(3 2.02201e-11 0)
(3 -3.43888e-12 0)
(3 5.86504e-15 0)
(3 -2.70973e-17 0)
(3 2.79691e-16 0)
(3 3.26821e-15 0)
(3 2.93426e-15 0)
(3 2.64585e-15 0)
(3 2.0086e-15 0)
(3 2.843e-15 0)
(3 2.29594e-15 0)
(3 1.06838e-15 0)
(3 -2.0901e-16 0)
(1.58365 1.32257 0)
(1.50015 1.32418 0)
(1.74566 1.19055 0)
(2.40732 0.550853 0)
(3 -7.14331e-09 0)
(3 3.41694e-11 0)
(3 1.12073e-13 0)
(3 -8.30897e-14 0)
(3 1.89562e-14 0)
(3 -2.04385e-15 0)
(3 -1.67271e-15 0)
(3 1.2979e-16 0)
(3 2.45959e-15 0)
(3 2.58612e-15 0)
(3 1.7894e-15 0)
(3 2.0648e-15 0)
(3 2.20215e-15 0)
(3 8.31929e-17 0)
(3 -8.26681e-16 0)
(3 -1.21039e-16 0)
(1.58177 1.30291 0)
(1.47054 1.33465 0)
(2.00351 1.03947 0)
(2.89124 0.119328 0)
(3 -2.27236e-09 0)
(3 5.57177e-12 0)
(3 -2.10777e-14 0)
(3 -1.66257e-15 0)
(3 -1.65201e-15 0)
(3 -1.74328e-15 0)
(3 -2.05834e-15 0)
(3 -8.27254e-16 0)
(3 1.69548e-15 0)
(3 2.02377e-15 0)
(3 1.50933e-15 0)
(3 1.97868e-15 0)
(3 1.70209e-15 0)
(3 2.30744e-16 0)
(3 -5.89412e-16 0)
(3 -1.56756e-15 0)
(1.6021 1.29688 0)
(1.47896 1.40053 0)
(2.10575 0.870223 0)
(3.01118 -0.00929966 0)
(3 1.285e-08 0)
(3 -2.56768e-11 0)
(3 7.05568e-14 0)
(3 -1.81998e-15 0)
(3 -1.30916e-15 0)
(3 -1.20827e-15 0)
(3 -1.22308e-15 0)
(3 3.91809e-16 0)
(3 8.7935e-16 0)
(3 1.21417e-15 0)
(3 1.29465e-15 0)
(3 1.14159e-15 0)
(3 1.76215e-15 0)
(3 2.32941e-15 0)
(3 -4.63777e-16 0)
(3 -1.26974e-15 0)
(1.6206 1.28066 0)
(1.57618 1.31026 0)
(2.42521 0.529172 0)
(3 -7.21069e-14 0)
(3 -8.40947e-12 0)
(3 1.63913e-13 0)
(3 -3.61577e-15 0)
(3 -8.23336e-16 0)
(3 -1.04404e-15 0)
(3 -1.68629e-16 0)
(3 1.33866e-15 0)
(3 1.6255e-15 0)
(3 1.53118e-15 0)
(3 1.68996e-15 0)
(3 1.70739e-15 0)
(3 1.30119e-15 0)
(3 2.00898e-15 0)
(3 2.72456e-15 0)
(3 2.11464e-15 0)
(3 5.12554e-16 0)
(1.6358 1.26522 0)
(1.65446 1.23149 0)
(2.65632 0.283377 0)
(3 8.50729e-13 0)
(3 -3.62957e-15 0)
(3 1.59884e-16 0)
(3 -7.63361e-16 0)
(3 -1.20063e-15 0)
(3 2.59479e-16 0)
(3 1.53506e-15 0)
(3 2.21442e-15 0)
(3 2.01344e-15 0)
(3 2.02125e-15 0)
(3 2.27988e-15 0)
(3 2.23619e-15 0)
(3 2.00656e-15 0)
(3 2.51571e-15 0)
(3 2.99843e-15 0)
(3 1.71533e-15 0)
(3 -4.02683e-17 0)
(1.6536 1.24269 0)
(1.7904 1.10393 0)
(2.86705 0.0933165 0)
(3 -1.04725e-12 0)
(3 1.8193e-16 0)
(3 1.24974e-16 0)
(3 5.36631e-16 0)
(3 -4.19017e-16 0)
(3 3.17552e-16 0)
(3 1.19188e-15 0)
(3 1.49056e-15 0)
(3 1.74864e-15 0)
(3 1.86951e-15 0)
(3 1.75331e-15 0)
(3 1.28776e-15 0)
(3 1.34495e-15 0)
(3 2.20705e-15 0)
(3 2.78775e-15 0)
(3 3.85791e-15 0)
(3 4.614e-15 0)
(1.68513 1.1988 0)
(1.92321 0.963958 0)
(2.99899 0.000352699 0)
(3 2.02465e-14 0)
(3 2.93864e-16 0)
(3 -3.0569e-16 0)
(3 -3.62192e-16 0)
(3 -5.16473e-16 0)
(3 1.07589e-16 0)
(3 6.58268e-16 0)
(3 1.01153e-15 0)
(3 1.47662e-15 0)
(3 1.87253e-15 0)
(3 2.01434e-15 0)
(3 1.28296e-15 0)
(3 1.15417e-15 0)
(3 1.36251e-15 0)
(3 1.9113e-15 0)
(3 2.84788e-15 0)
(3 3.54695e-15 0)
(1.71902 1.15842 0)
(2.05612 0.829643 0)
(3 -2.99785e-17 0)
(3 2.79436e-16 0)
(3 2.13262e-16 0)
(3 -6.34346e-16 0)
(3 -8.48492e-16 0)
(3 -9.53461e-16 0)
(3 -7.46447e-16 0)
(3 -3.87355e-16 0)
(3 -3.05231e-16 0)
(3 9.17381e-17 0)
(3 1.07185e-15 0)
(3 9.82466e-16 0)
(3 6.96819e-16 0)
(3 3.75132e-16 0)
(3 1.63981e-16 0)
(3 -7.50722e-17 0)
(3 6.77582e-16 0)
(3 1.06979e-15 0)
(1.7266 1.10802 0)
(2.20045 0.664036 0)
(3 4.73088e-16 0)
(3 -9.12684e-16 0)
(3 -1.68582e-15 0)
(3 -1.66533e-15 0)
(3 -1.58635e-15 0)
(3 -2.02007e-15 0)
(3 -2.26984e-15 0)
(3 -1.98204e-15 0)
(3 -1.72607e-15 0)
(3 -1.43757e-15 0)
(3 -7.45248e-16 0)
(3 -8.00619e-16 0)
(3 -1.14304e-15 0)
(3 -1.06919e-15 0)
(3 -3.61639e-16 0)
(3 -4.30758e-16 0)
(3 -9.99139e-16 0)
(3 -8.36708e-16 0)
(1.83048 1.01756 0)
(2.43432 0.453079 0)
(3 -3.77576e-16 0)
(3 -1.1447e-15 0)
(3 -2.10046e-15 0)
(3 -2.64735e-15 0)
(3 -2.53577e-15 0)
(3 -2.02028e-15 0)
(3 -2.18798e-15 0)
(3 -2.46813e-15 0)
(3 -2.18209e-15 0)
(3 -1.70266e-15 0)
(3 -1.10337e-15 0)
(3 1.0559e-16 0)
(3 6.27442e-16 0)
(3 1.93561e-16 0)
(3 6.31155e-16 0)
(3 1.01574e-15 0)
(3 1.38634e-15 0)
(3 1.44937e-15 0)
(1.96249 0.872925 0)
(2.73097 0.196655 0)
(3 3.35461e-15 0)
(3 3.4116e-15 0)
(3 3.67605e-15 0)
(3 3.54154e-15 0)
(3 3.16529e-15 0)
(3 3.23124e-15 0)
(3 3.26394e-15 0)
(3 3.3496e-15 0)
(3 3.45914e-15 0)
(3 3.49007e-15 0)
(3 3.63303e-15 0)
(3 3.8572e-15 0)
(3 4.08911e-15 0)
(3 4.14972e-15 0)
(3 4.33586e-15 0)
(3 4.62807e-15 0)
(3 4.84899e-15 0)
(3 5.06111e-15 0)
(2.0952 0.639431 0)
(2.99257 0.000192944 0)
(3 3.332e-15 0)
(3 3.20735e-15 0)
(3 3.96046e-15 0)
(3 4.12434e-15 0)
(3 4.07842e-15 0)
(3 3.85817e-15 0)
(3 3.88991e-15 0)
(3 4.17022e-15 0)
(3 4.38654e-15 0)
(3 4.05985e-15 0)
(3 3.14332e-15 0)
(3 2.85161e-15 0)
(3 2.81915e-15 0)
(3 2.90861e-15 0)
(3 2.62152e-15 0)
(3 2.41337e-15 0)
(3 2.25571e-15 0)
(3 2.07895e-15 0)
(1.99319 0.379619 0)
(2.99992 -1.18212e-05 0)
(3 8.2932e-16 0)
(3 -4.48427e-16 0)
(3 1.04038e-15 0)
(3 1.24063e-15 0)
(3 7.00143e-16 0)
(3 4.36951e-16 0)
(3 1.66361e-16 0)
(3 1.44025e-16 0)
(3 6.96486e-16 0)
(3 8.71244e-16 0)
(3 4.92709e-16 0)
(3 3.20037e-16 0)
(3 2.30221e-17 0)
(3 -1.63918e-16 0)
(3 -2.94242e-16 0)
(3 -3.96525e-16 0)
(3 -3.67953e-16 0)
(3 -4.51115e-16 0)
(1.99264 -0.379186 0)
(2.9999 1.72348e-05 0)
(3 -1.50405e-16 0)
(3 -3.47566e-16 0)
(3 -9.67008e-16 0)
(3 -1.18403e-15 0)
(3 -1.31611e-15 0)
(3 -1.46158e-15 0)
(3 -1.39827e-15 0)
(3 -1.42547e-15 0)
(3 -1.55129e-15 0)
(3 -1.83946e-15 0)
(3 -1.82488e-15 0)
(3 -1.79624e-15 0)
(3 -1.7479e-15 0)
(3 -1.75227e-15 0)
(3 -1.67079e-15 0)
(3 -1.5934e-15 0)
(3 -1.55624e-15 0)
(3 -1.58928e-15 0)
(2.09118 -0.641486 0)
(2.99282 -0.000158308 0)
(3 -1.19977e-15 0)
(3 -5.32474e-16 0)
(3 4.93238e-16 0)
(3 3.23664e-16 0)
(3 3.48052e-16 0)
(3 -1.84397e-16 0)
(3 -8.83583e-16 0)
(3 -1.63618e-15 0)
(3 -2.5699e-15 0)
(3 -2.76996e-15 0)
(3 -2.73734e-15 0)
(3 -2.80251e-15 0)
(3 -2.84558e-15 0)
(3 -2.92125e-15 0)
(3 -2.99683e-15 0)
(3 -3.30227e-15 0)
(3 -3.88402e-15 0)
(3 -4.20594e-15 0)
(1.96143 -0.868449 0)
(2.73592 -0.192299 0)
(3 -8.21932e-16 0)
(3 -4.40842e-16 0)
(3 -8.13569e-16 0)
(3 -8.52386e-16 0)
(3 -9.13596e-16 0)
(3 -1.22418e-15 0)
(3 -1.54785e-15 0)
(3 -1.84265e-15 0)
(3 -2.38139e-15 0)
(3 -2.44101e-15 0)
(3 -2.54683e-15 0)
(3 -2.35958e-15 0)
(3 -2.49715e-15 0)
(3 -2.63814e-15 0)
(3 -3.04231e-15 0)
(3 -3.40866e-15 0)
(3 -3.69617e-15 0)
(3 -3.92477e-15 0)
(1.83721 -1.01925 0)
(2.4403 -0.450484 0)
(3 1.96906e-15 0)
(3 2.63809e-15 0)
(3 3.58546e-15 0)
(3 2.50684e-15 0)
(3 7.95127e-16 0)
(3 8.03934e-17 0)
(3 -1.6167e-16 0)
(3 -1.07513e-16 0)
(3 1.55237e-17 0)
(3 -3.15689e-16 0)
(3 -6.80328e-16 0)
(3 -9.16284e-16 0)
(3 -8.12793e-16 0)
(3 -1.09378e-15 0)
(3 -1.24952e-15 0)
(3 -1.75875e-15 0)
(3 -2.03721e-15 0)
(3 -2.18467e-15 0)
(1.72751 -1.10874 0)
(2.19873 -0.664227 0)
(3 -3.96447e-16 0)
(3 1.00399e-15 0)
(3 1.29994e-15 0)
(3 1.5362e-15 0)
(3 6.58514e-16 0)
(3 -8.4198e-17 0)
(3 -5.11143e-16 0)
(3 -6.60818e-16 0)
(3 -9.41588e-16 0)
(3 -1.07337e-15 0)
(3 -1.39117e-15 0)
(3 -1.56682e-15 0)
(3 -2.08506e-15 0)
(3 -2.22332e-15 0)
(3 -2.24624e-15 0)
(3 -2.38843e-15 0)
(3 -2.17143e-15 0)
(3 -1.38859e-15 0)
(1.71148 -1.15934 0)
(2.04997 -0.832671 0)
(3 -1.09315e-15 0)
(3 -5.40079e-16 0)
(3 -3.38631e-16 0)
(3 -1.16019e-15 0)
(3 -1.55535e-15 0)
(3 -1.55919e-15 0)
(3 -1.4341e-15 0)
(3 -1.97267e-15 0)
(3 -2.76804e-15 0)
(3 -3.25679e-15 0)
(3 -3.23638e-15 0)
(3 -2.93147e-15 0)
(3 -3.02026e-15 0)
(3 -2.36382e-15 0)
(3 -2.25714e-15 0)
(3 -2.09787e-15 0)
(3 -1.6568e-15 0)
(3 -9.43381e-16 0)
(1.68825 -1.19672 0)
(1.92509 -0.964248 0)
(2.99948 -0.000162764 0)
(3 -1.36451e-14 0)
(3 -6.26537e-16 0)
(3 -1.38696e-15 0)
(3 -1.91108e-15 0)
(3 -2.28664e-15 0)
(3 -2.99814e-15 0)
(3 -3.72216e-15 0)
(3 -3.77943e-15 0)
(3 -3.69567e-15 0)
(3 -3.2274e-15 0)
(3 -2.95801e-15 0)
(3 -2.6228e-15 0)
(3 -2.28127e-15 0)
(3 -2.09501e-15 0)
(3 -1.79307e-15 0)
(3 -1.42114e-15 0)
(3 -1.17947e-15 0)
(1.65508 -1.24256 0)
(1.79424 -1.10284 0)
(2.86854 -0.0922431 0)
(3 1.40084e-12 0)
(3 -1.47967e-15 0)
(3 -1.63663e-15 0)
(3 -2.15633e-15 0)
(3 -2.99227e-15 0)
(3 -3.09245e-15 0)
(3 -3.77307e-15 0)
(3 -3.73805e-15 0)
(3 -3.43035e-15 0)
(3 -2.99137e-15 0)
(3 -2.42308e-15 0)
(3 -1.9035e-15 0)
(3 -1.64134e-15 0)
(3 -1.3102e-15 0)
(3 -8.06572e-16 0)
(3 -4.24674e-16 0)
(3 -1.68948e-16 0)
(1.63536 -1.26592 0)
(1.64834 -1.23434 0)
(2.65489 -0.284734 0)
(3 -9.05782e-13 0)
(3 -9.27203e-15 0)
(3 -2.5716e-15 0)
(3 -1.74079e-15 0)
(3 -2.89234e-15 0)
(3 -2.96265e-15 0)
(3 -3.46479e-15 0)
(3 -3.03146e-15 0)
(3 -2.82008e-15 0)
(3 -1.96701e-15 0)
(3 -1.26467e-15 0)
(3 -1.12086e-15 0)
(3 -7.73542e-16 0)
(3 -4.70862e-16 0)
(3 -3.92481e-16 0)
(3 -5.95353e-16 0)
(3 -3.58897e-16 0)
(1.6207 -1.28029 0)
(1.5803 -1.30744 0)
(2.43161 -0.522937 0)
(3 -3.52676e-13 0)
(3 8.46663e-12 0)
(3 -1.5453e-13 0)
(3 1.33317e-15 0)
(3 -2.11658e-15 0)
(3 -2.46058e-15 0)
(3 -2.29912e-15 0)
(3 -2.37831e-15 0)
(3 -2.005e-15 0)
(3 -9.77921e-16 0)
(3 -6.65618e-16 0)
(3 -7.66504e-16 0)
(3 -3.74749e-16 0)
(3 -6.62942e-16 0)
(3 -1.38771e-15 0)
(3 -7.70077e-16 0)
(3 -2.04473e-16 0)
(1.6036 -1.29706 0)
(1.4822 -1.39963 0)
(2.10528 -0.866986 0)
(3.01132 0.00948 0)
(3 -1.26808e-08 0)
(3 2.79341e-11 0)
(3 -8.3669e-14 0)
(3 -1.01343e-15 0)
(3 -2.0182e-15 0)
(3 -2.48727e-15 0)
(3 -2.53312e-15 0)
(3 -2.33649e-15 0)
(3 -1.11354e-15 0)
(3 -5.25383e-16 0)
(3 -5.00864e-16 0)
(3 -7.32695e-16 0)
(3 -7.421e-16 0)
(3 -4.52526e-16 0)
(3 2.3767e-15 0)
(3 4.08759e-15 0)
(1.5833 -1.3045 0)
(1.4709 -1.3365 0)
(1.99071 -1.04227 0)
(2.88418 -0.124782 0)
(3 2.14119e-09 0)
(3 -5.00911e-12 0)
(3 9.48958e-15 0)
(3 -1.78798e-15 0)
(3 -1.93574e-15 0)
(3 -2.29499e-15 0)
(3 -2.64233e-15 0)
(3 -1.58564e-15 0)
(3 -2.52893e-16 0)
(3 -1.52951e-16 0)
(3 -3.73841e-16 0)
(3 -1.56498e-16 0)
(3 1.2578e-15 0)
(3 2.58048e-15 0)
(3 4.02892e-15 0)
(3 5.46914e-15 0)
(1.5815 -1.32132 0)
(1.50122 -1.32241 0)
(1.75599 -1.18918 0)
(2.4173 -0.548591 0)
(3 3.46092e-09 0)
(3 -3.01181e-11 0)
(3 -1.70354e-13 0)
(3 1.27937e-14 0)
(3 -4.82323e-15 0)
(3 -1.80078e-15 0)
(3 -1.87141e-15 0)
(3 -5.29497e-16 0)
(3 5.39849e-16 0)
(3 1.77183e-16 0)
(3 5.78121e-16 0)
(3 1.22341e-15 0)
(3 2.60896e-15 0)
(3 3.62727e-15 0)
(3 4.54526e-15 0)
(3 5.38835e-15 0)
(1.58575 -1.29622 0)
(1.54881 -1.28523 0)
(1.65612 -1.23288 0)
(2.0809 -0.858105 0)
(3.01815 0.0129521 0)
(3 -3.3447e-12 0)
(3 9.19524e-12 0)
(3 -6.63664e-12 0)
(3 7.69341e-13 0)
(3 -2.42133e-14 0)
(3 -3.7333e-16 0)
(3 4.47141e-16 0)
(3 8.94878e-16 0)
(3 2.07923e-16 0)
(3 1.58981e-15 0)
(3 2.24475e-15 0)
(3 3.81959e-15 0)
(3 3.53712e-15 0)
(3 3.81237e-15 0)
(3 4.90528e-15 0)
(1.58764 -1.28671 0)
(1.58847 -1.27946 0)
(1.6477 -1.24076 0)
(1.89315 -1.07089 0)
(2.75696 -0.209162 0)
(3 5.77496e-10 0)
(3 -1.3632e-08 0)
(3 1.22709e-08 0)
(3 -5.22071e-10 0)
(3 -1.94284e-12 0)
(3 1.11772e-13 0)
(3 -1.19914e-15 0)
(3 7.85112e-16 0)
(3 3.14349e-16 0)
(3 1.7952e-15 0)
(3 2.68199e-15 0)
(3 4.29804e-15 0)
(3 3.45134e-15 0)
(3 3.92798e-15 0)
(3 4.80107e-15 0)
(1.58723 -1.27193 0)
(1.60564 -1.26856 0)
(1.63706 -1.2621 0)
(1.68809 -1.22453 0)
(2.33096 -0.64774 0)
(3.02239 0.0207949 0)
(2.99972 -0.000112721 0)
(3 4.04231e-06 0)
(3 -7.9407e-08 0)
(3 8.65419e-10 0)
(3 -1.14656e-12 0)
(3 5.66885e-15 0)
(3 6.20847e-16 0)
(3 3.66085e-16 0)
(3 1.07089e-15 0)
(3 3.846e-15 0)
(3 4.62045e-15 0)
(3 4.66987e-15 0)
(3 4.79678e-15 0)
(3 4.381e-15 0)
(1.58383 -1.25761 0)
(1.60238 -1.26336 0)
(1.61988 -1.27112 0)
(1.57348 -1.3401 0)
(1.83141 -1.12025 0)
(2.70434 -0.265071 0)
(3.00479 0.00110344 0)
(2.99993 -5.86699e-05 0)
(3 7.20002e-07 0)
(3 -8.38994e-10 0)
(3 3.51985e-13 0)
(3 1.3276e-16 0)
(3 1.05231e-15 0)
(3 7.83566e-16 0)
(3 6.22002e-16 0)
(3 3.24484e-15 0)
(3 4.02433e-15 0)
(3 5.36618e-15 0)
(3 4.30504e-15 0)
(3 4.71487e-15 0)
(1.58058 -1.25388 0)
(1.59813 -1.25942 0)
(1.59818 -1.26767 0)
(1.56834 -1.29366 0)
(1.74858 -1.20031 0)
(2.21506 -0.827935 0)
(2.99361 -0.00245672 0)
(3.00012 0.000369101 0)
(3 -5.2823e-07 0)
(3 -5.98843e-11 0)
(3 7.55858e-13 0)
(3 -1.48804e-15 0)
(3 1.35163e-15 0)
(3 9.07853e-16 0)
(3 -5.53589e-16 0)
(3 2.44958e-15 0)
(3 3.92701e-15 0)
(3 4.79811e-15 0)
(3 3.93885e-15 0)
(3 4.4741e-15 0)
(1.57436 -1.2444 0)
(1.58849 -1.25673 0)
(1.60095 -1.26528 0)
(1.60576 -1.26211 0)
(1.67108 -1.23986 0)
(1.76925 -1.20568 0)
(2.31201 -0.708441 0)
(3.00332 -0.00631021 0)
(3 -6.72945e-08 0)
(3 3.09844e-11 0)
(3 1.26727e-13 0)
(3 -1.3919e-15 0)
(3 5.15861e-16 0)
(3 -1.95836e-16 0)
(3 -9.58141e-16 0)
(3 1.39431e-16 0)
(3 2.01665e-15 0)
(3 3.16158e-15 0)
(3 2.5996e-15 0)
(3 4.16165e-15 0)
(1.57686 -1.25299 0)
(1.5826 -1.25883 0)
(1.59358 -1.26405 0)
(1.60503 -1.26421 0)
(1.62167 -1.25135 0)
(1.60889 -1.26205 0)
(1.88211 -1.15635 0)
(2.9641 -0.364187 0)
(3.36673 0.619246 0)
(3 -6.29522e-11 0)
(3 7.356e-11 0)
(3 -7.80966e-11 0)
(3 -4.5128e-15 0)
(3 4.24982e-13 0)
(3 1.29117e-14 0)
(3 -1.54662e-14 0)
(3 1.38469e-14 0)
(3 3.39149e-15 0)
(3 4.16298e-15 0)
(3 6.28786e-15 0)
(1.17345 -0.753119 0)
(1.82529 -1.15244 0)
(1.83734 -1.15258 0)
(1.74927 -1.18907 0)
(1.71657 -1.2048 0)
(1.6654 -1.24795 0)
(1.65389 -1.2187 0)
(1.72038 -1.16472 0)
(1.7458 -1.23409 0)
(1.77407 -1.1511 0)
(2.26213 -0.754791 0)
(2.85163 -0.217837 0)
(3.09429 0.0251979 0)
(3.02037 0.0121851 0)
(3.00467 0.00545783 0)
(3.00191 0.00305946 0)
(3.00006 0.000604756 0)
(2.99998 2.45089e-05 0)
(2.99999 -1.43442e-05 0)
(3 -5.91402e-06 0)
(1.00719 -0.0406472 0)
(1.92719 -0.732226 0)
(2.10962 -0.814045 0)
(1.99602 -0.963621 0)
(1.96819 -0.979597 0)
(1.88508 -1.07521 0)
(1.7887 -1.14167 0)
(1.75294 -1.14728 0)
(1.74988 -1.1635 0)
(1.72728 -1.20634 0)
(1.71416 -1.19858 0)
(1.87561 -1.06885 0)
(2.11112 -0.881106 0)
(2.5086 -0.571863 0)
(2.98717 -0.133052 0)
(3.07325 0.0297721 0)
(3.00812 0.00768371 0)
(3.00292 0.0038232 0)
(3.00123 0.00218726 0)
(3.00008 0.000478954 0)
(1.10995 0.130563 0)
(1.91647 -0.166734 0)
(2.26405 -0.221441 0)
(2.25018 -0.488494 0)
(2.20236 -0.675319 0)
(2.1359 -0.797782 0)
(2.04831 -0.896384 0)
(1.96689 -0.957839 0)
(1.90912 -1.02924 0)
(1.84816 -1.12296 0)
(1.78942 -1.15655 0)
(1.79333 -1.15044 0)
(1.81395 -1.12963 0)
(1.8507 -1.08764 0)
(2.03535 -0.954689 0)
(2.25512 -0.832172 0)
(2.66639 -0.503495 0)
(3.03847 -0.0892468 0)
(3.05554 0.0246626 0)
(3.00408 0.00472874 0)
(0.950225 0.474441 0)
(1.66246 0.194382 0)
(2.19941 0.654679 0)
(2.32246 0.127627 0)
(2.36652 -0.107172 0)
(2.35202 -0.35294 0)
(2.28715 -0.565772 0)
(2.18078 -0.737242 0)
(2.12515 -0.806072 0)
(2.07173 -0.922322 0)
(1.969 -1.01988 0)
(1.91334 -1.06946 0)
(1.8827 -1.08548 0)
(1.86847 -1.09267 0)
(1.86979 -1.05804 0)
(1.89634 -1.04888 0)
(1.96334 -1.01977 0)
(2.16623 -0.899421 0)
(2.38108 -0.789948 0)
(2.77628 -0.442967 0)
(0.886785 0.806905 0)
(1.19307 1.1457 0)
(2.28769 0.280396 0)
(2.25368 0.756979 0)
(2.32153 0.694841 0)
(2.43739 0.233031 0)
(2.42471 -0.110455 0)
(2.3811 -0.290971 0)
(2.31898 -0.442983 0)
(2.30267 -0.573447 0)
(2.20818 -0.730241 0)
(2.14112 -0.830219 0)
(2.08728 -0.89049 0)
(2.03041 -0.951546 0)
(1.98947 -0.964904 0)
(1.95562 -0.987442 0)
(1.95516 -1.01517 0)
(1.96919 -0.996536 0)
(1.9937 -0.996178 0)
(2.06985 -0.979271 0)
(1.0198 1.13657 0)
(1.34456 1.21764 0)
(1.86066 0.790523 0)
(2.36627 1.03083 0)
(2.48387 0.840329 0)
(2.42102 0.810965 0)
(2.46018 0.520047 0)
(2.46242 0.216303 0)
(2.44917 0.037908 0)
(2.44992 -0.138063 0)
(2.41783 -0.329361 0)
(2.35305 -0.507399 0)
(2.30343 -0.631297 0)
(2.22253 -0.758239 0)
(2.16064 -0.827167 0)
(2.11278 -0.854756 0)
(2.06254 -0.905721 0)
(2.05689 -0.904721 0)
(2.04126 -0.925344 0)
(2.06181 -0.949598 0)
(1.24502 1.30983 0)
(1.47127 1.31912 0)
(1.81322 1.0612 0)
(1.92767 1.50982 0)
(2.54377 0.881123 0)
(2.52813 1.0998 0)
(2.63829 0.714803 0)
(2.62354 0.328643 0)
(2.60153 0.235508 0)
(2.57434 0.00494411 0)
(2.56821 -0.163612 0)
(2.5005 -0.362786 0)
(2.45734 -0.480558 0)
(2.38347 -0.603418 0)
(2.33353 -0.646621 0)
(2.29734 -0.644559 0)
(2.25899 -0.657036 0)
(2.24676 -0.658269 0)
(2.17894 -0.737378 0)
(2.13358 -0.784478 0)
(1.45224 1.46445 0)
(1.62812 1.50682 0)
(1.8511 1.33619 0)
(1.85637 1.48567 0)
(1.99486 1.39654 0)
(2.33966 1.33686 0)
(2.5668 0.950232 0)
(2.70405 0.530455 0)
(2.68058 0.307523 0)
(2.64752 0.213989 0)
(2.63984 0.0803158 0)
(2.61414 -0.0473345 0)
(2.58105 -0.14219 0)
(2.54535 -0.222005 0)
(2.49595 -0.287911 0)
(2.47604 -0.298948 0)
(2.43367 -0.365414 0)
(2.37522 -0.47787 0)
(2.30001 -0.596044 0)
(2.29564 -0.571557 0)
(1.56693 1.63241 0)
(1.61785 1.7328 0)
(1.70251 1.59445 0)
(1.78224 1.54989 0)
(1.93239 1.53778 0)
(2.1385 1.43337 0)
(2.33575 1.36233 0)
(2.45232 1.17434 0)
(2.52807 0.921049 0)
(2.54228 0.841029 0)
(2.58252 0.642623 0)
(2.60278 0.470389 0)
(2.59992 0.300493 0)
(2.62451 0.188728 0)
(2.58357 -0.00600831 0)
(2.59286 -0.103737 0)
(2.53504 -0.292756 0)
(2.48457 -0.370371 0)
(2.42692 -0.404194 0)
(2.45719 -0.321119 0)
(1.64631 1.79644 0)
(1.575 1.99268 0)
(1.5415 1.96098 0)
(1.72967 1.82355 0)
(1.95038 1.71618 0)
(2.09483 1.58464 0)
(2.1356 1.59538 0)
(2.2701 1.39306 0)
(2.35782 1.24362 0)
(2.42993 1.12019 0)
(2.53692 0.919308 0)
(2.61136 0.702518 0)
(2.65124 0.465723 0)
(2.70707 0.296223 0)
(2.66726 0.0480772 0)
(2.65685 -0.0505744 0)
(2.62439 -0.175842 0)
(2.59932 -0.0937017 0)
(2.55069 -0.120706 0)
(2.58839 -0.0382085 0)
(1.72853 1.92742 0)
(1.61731 2.18189 0)
(1.65068 2.23581 0)
(1.76596 2.11604 0)
(1.92888 1.92687 0)
(2.04535 1.70873 0)
(2.13539 1.65743 0)
(2.27634 1.49221 0)
(2.41246 1.39168 0)
(2.5466 1.14814 0)
(2.66861 0.895723 0)
(2.72688 0.648222 0)
(2.73776 0.49009 0)
(2.74699 0.368407 0)
(2.74197 0.27123 0)
(2.72294 0.254989 0)
(2.69645 0.213855 0)
(2.68618 0.281437 0)
(2.6476 0.186322 0)
(2.61507 0.0138428 0)
(1.75893 1.95451 0)
(1.71747 2.21282 0)
(1.78214 2.26665 0)
(1.85172 2.22458 0)
(2.00672 2.01211 0)
(2.16142 1.79592 0)
(2.326 1.64955 0)
(2.48387 1.49886 0)
(2.64563 1.40879 0)
(2.73071 1.12864 0)
(2.76846 1.13931 0)
(2.78758 0.926581 0)
(2.74791 0.907624 0)
(2.73852 0.813268 0)
(2.7274 0.731611 0)
(2.70662 0.64345 0)
(2.70562 0.581668 0)
(2.73835 0.505326 0)
(2.71527 0.299513 0)
(2.68488 0.123926 0)
(1.63226 1.86384 0)
(1.84849 2.17437 0)
(1.88348 2.28852 0)
(2.04172 2.27854 0)
(2.22345 2.12336 0)
(2.30528 2.07529 0)
(2.42782 1.75481 0)
(2.49314 1.62874 0)
(2.55765 1.59351 0)
(2.60552 1.48222 0)
(2.56953 1.52779 0)
(2.61737 1.34953 0)
(2.60259 1.23454 0)
(2.63466 1.14522 0)
(2.66534 0.999449 0)
(2.69861 0.867175 0)
(2.75965 0.753576 0)
(2.79365 0.542818 0)
(2.79527 0.375522 0)
(2.74981 0.311492 0)
(1.49944 1.75587 0)
(1.70173 2.07284 0)
(1.95817 2.25369 0)
(2.06365 2.26267 0)
(2.25739 2.1794 0)
(2.28926 2.21274 0)
(2.38304 1.83887 0)
(2.30973 1.84759 0)
(2.29279 1.84519 0)
(2.30996 1.77027 0)
(2.36708 1.64155 0)
(2.46928 1.52311 0)
(2.53166 1.34744 0)