/*--------------------------------*- C++ -*----------------------------------*\
  =========                 |
  \\      /  F ield         | OpenFOAM: The Open Source CFD Toolbox
   \\    /   O peration     | Website:  https://openfoam.org
    \\  /    A nd           | Version:  7
     \\/     M anipulation  |
\*---------------------------------------------------------------------------*/
FoamFile
{
    version     2.0;
    format      ascii;
    class       volScalarField;
    location    "5.8";
    object      p;
}
// * * * * * * * * * * * * * * * * * * * * * * * * * * * * * * * * * * * * * //

dimensions      [1 -1 -2 0 0 0 0];

internalField   nonuniform List<scalar> 
3700
(
0.179513
0.264453
0.318104
0.383393
0.414449
0.413257
0.39182
0.389473
0.411827
0.42021
0.441873
0.463035
0.456932
0.467661
0.490449
0.495006
0.51147
0.51931
0.513374
0.526014
0.110931
0.11788
0.130702
0.13856
0.137812
0.128247
0.107224
0.0920816
0.106859
0.141835
0.18775
0.219242
0.20989
0.194531
0.194914
0.201893
0.210303
0.203168
0.197761
0.19442
0.0910425
0.0875533
0.0816653
0.06753
0.0466203
0.0461902
0.0501311
0.0570177
0.0648067
0.0736422
0.086424
0.0950233
0.100356
0.102122
0.101867
0.102006
0.103176
0.105683
0.112953
0.128877
0.0765746
0.0794494
0.0758745
0.0570135
0.0423968
0.0454629
0.0499439
0.0558304
0.0633949
0.0740231
0.0888291
0.101558
0.120025
0.1369
0.145262
0.153435
0.150532
0.148607
0.148761
0.165679
0.0641917
0.0653364
0.0618412
0.0473227
0.045255
0.0528872
0.0590272
0.0624081
0.0691227
0.0787679
0.0880009
0.0996678
0.120485
0.146846
0.167188
0.187721
0.198014
0.204026
0.203668
0.211983
0.0515882
0.0501905
0.052975
0.0471276
0.0535179
0.0643808
0.0745954
0.083584
0.0961666
0.113705
0.109085
0.112764
0.121874
0.146307
0.176571
0.207034
0.236695
0.26357
0.285329
0.309557
0.0399712
0.0408322
0.0517134
0.054074
0.0578814
0.0704614
0.0830343
0.100309
0.128805
0.155749
0.159406
0.169353
0.169711
0.178332
0.191881
0.221665
0.263936
0.313793
0.355279
0.42341
0.0316385
0.0365088
0.0515154
0.056796
0.0604965
0.0730912
0.0840998
0.105368
0.146561
0.180919
0.211455
0.234712
0.256542
0.279322
0.290999
0.309176
0.330956
0.38025
0.439322
0.552947
0.0264572
0.0349416
0.0528608
0.0578589
0.0614802
0.0794246
0.0849206
0.103784
0.147922
0.194976
0.242961
0.281473
0.33313
0.374328
0.413426
0.450955
0.484048
0.525402
0.579402
0.729449
0.0241316
0.0369361
0.0547638
0.0594996
0.0728891
0.0986593
0.103043
0.128079
0.161219
0.202685
0.263397
0.321407
0.399701
0.462812
0.532486
0.604068
0.67292
0.734417
0.813657
0.951774
0.0245203
0.0391008
0.0534133
0.068082
0.0963511
0.126023
0.15561
0.209896
0.261707
0.30942
0.36582
0.429574
0.507973
0.585516
0.671267
0.778071
0.895914
1.00046
1.16512
1.1262
0.0288142
0.0368401
0.0539934
0.0842729
0.115934
0.153722
0.211043
0.291885
0.383386
0.492088
0.581918
0.67112
0.759182
0.841912
0.922123
1.03282
1.18621
1.33531
1.56315
1.52056
0.0340381
0.034615
0.0584933
0.0925073
0.116232
0.155432
0.246097
0.342769
0.475503
0.651755
0.79435
0.937359
1.07091
1.19403
1.32698
1.48043
1.64378
1.81599
2.09025
2.09272
0.0360335
0.034681
0.0534749
0.0800454
0.103124
0.155188
0.274697
0.418959
0.627249
0.862939
1.08155
1.28393
1.47653
1.65754
1.88133
2.1109
2.33415
2.56903
2.79698
3.00381
0.0355746
0.0369485
0.0473535
0.0643898
0.109722
0.310736
0.550121
0.825392
1.1613
1.46001
1.71048
1.93338
2.15592
2.3885
2.69332
2.97491
3.24327
3.48867
3.64852
3.7846
0.0274863
0.0395983
0.0519549
0.0916579
0.312291
0.749895
1.14594
1.55247
1.99702
2.36986
2.64179
2.90834
3.17664
3.46025
3.77988
3.97901
4.08906
4.12546
4.03199
3.90719
0.0178573
0.0435327
0.110945
0.376115
0.910605
1.46502
2.01338
2.58681
3.17257
3.53635
3.77253
4.01664
4.22729
4.3795
4.46948
4.39633
4.18069
3.64908
2.79318
1.89014
0.0224644
0.102761
0.477243
1.206
2.12558
2.88779
3.5358
4.20715
4.76473
4.84376
4.7626
4.76277
4.71745
4.54204
4.02657
3.06472
2.08979
1.33323
1.01888
0.992921
0.308685
0.891395
2.02337
3.19769
4.15773
4.81289
5.41916
5.89674
5.74922
5.29008
4.8562
4.31978
3.39993
2.33407
1.43281
1.0319
0.989447
0.994952
0.99734
0.999442
2.3195
3.64116
4.89755
5.69176
6.18398
6.40386
6.54354
6.24545
4.54798
3.20788
2.36548
1.5543
1.07533
0.986866
0.992668
0.996191
0.999149
0.999976
1.00002
1.00001
6.96781
6.92304
6.88481
6.85967
6.91958
6.75656
6.01442
2.38155
0.63317
1
1
1
1
1
1
1
1
1
1
1
6.96288
6.90154
6.83681
6.76836
6.75907
5.77418
2.64285
1.02485
1
1
1
1
1
1
1
1
1
1
1
1
6.81742
6.85711
6.83742
6.75017
6.48003
3.30508
1.02305
0.999616
1
1
1
1
1
1
1
1
1
1
1
1
6.69805
6.83244
6.81962
6.48034
4.66472
1.39399
0.995068
1.00009
0.999999
1
1
1
1
1
1
1
1
1
1
1
6.54629
6.83278
6.82192
6.01609
2.81729
0.974109
1.00035
0.999994
1
1
1
1
1
1
1
1
1
1
1
1
6.41703
6.78876
6.83348
5.07575
1.43188
1
1
1
1
1
1
1
1
1
1
1
1
1
1
1
6.35513
6.66576
6.65203
3.47373
0.974147
1
1
1
1
1
1
1
1
1
1
1
1
1
1
1
6.48191
6.61097
6.02417
2.06691
1
1
1
1
1
1
1
1
1
1
1
1
1
1
1
1
6.99743
6.71528
4.90938
1.16302
1
1
1
1
1
1
1
1
1
1
1
1
1
1
1
1
7.23634
6.37273
3.49577
0.988008
1
1
1
1
1
1
1
1
1
1
1
1
1
1
1
1
7.40424
5.98674
2.33405
1
1
1
1
1
1
1
1
1
1
1
1
1
1
1
1
1
7.48406
5.42049
1.60468
1
1
1
1
1
1
1
1
1
1
1
1
1
1
1
1
1
7.53393
4.7373
1.17612
1
1
1
1
1
1
1
1
1
1
1
1
1
1
1
1
1
7.40946
3.99545
1.00835
1
1
1
1
1
1
1
1
1
1
1
1
1
1
1
1
1
7.21985
3.16546
1
1
1
1
1
1
1
1
1
1
1
1
1
1
1
1
1
1
6.87521
2.54564
1
1
1
1
1
1
1
1
1
1
1
1
1
1
1
1
1
1
6.6864
1.93862
1
1
1
1
1
1
1
1
1
1
1
1
1
1
1
1
1
1
6.3461
1.36537
1
1
1
1
1
1
1
1
1
1
1
1
1
1
1
1
1
1
5.64207
1.00529
1
1
1
1
1
1
1
1
1
1
1
1
1
1
1
1
1
1
4.66378
1.00005
1
1
1
1
1
1
1
1
1
1
1
1
1
1
1
1
1
1
4.66755
1.00005
1
1
1
1
1
1
1
1
1
1
1
1
1
1
1
1
1
1
5.63984
1.00515
1
1
1
1
1
1
1
1
1
1
1
1
1
1
1
1
1
1
6.33854
1.36143
1
1
1
1
1
1
1
1
1
1
1
1
1
1
1
1
1
1
6.69965
1.93709
1
1
1
1
1
1
1
1
1
1
1
1
1
1
1
1
1
1
6.87676
2.55943
1
1
1
1
1
1
1
1
1
1
1
1
1
1
1
1
1
1
7.20293
3.16935
1
1
1
1
1
1
1
1
1
1
1
1
1
1
1
1
1
1
7.41608
3.98965
1.00521
1
1
1
1
1
1
1
1
1
1
1
1
1
1
1
1
1
7.54066
4.72732
1.17347
1
1
1
1
1
1
1
1
1
1
1
1
1
1
1
1
1
7.48942
5.41695
1.59766
1
1
1
1
1
1
1
1
1
1
1
1
1
1
1
1
1
7.40648
5.99721
2.32993
1
1
1
1
1
1
1
1
1
1
1
1
1
1
1
1
1
7.22714
6.36927
3.51639
0.987907
1
1
1
1
1
1
1
1
1
1
1
1
1
1
1
1
6.98556
6.71956
4.92349
1.16215
1
1
1
1
1
1
1
1
1
1
1
1
1
1
1
1
6.48137
6.61114
6.03428
2.06965
1
1
1
1
1
1
1
1
1
1
1
1
1
1
1
1
6.35345
6.66183
6.63461
3.45921
0.974393
1
1
1
1
1
1
1
1
1
1
1
1
1
1
1
6.40969
6.78249
6.8406
5.0842
1.4187
1
1
1
1
1
1
1
1
1
1
1
1
1
1
1
6.538
6.83466
6.83203
6.04249
2.83046
0.973775
1.00035
0.999994
1
1
1
1
1
1
1
1
1
1
1
1
6.69441
6.83505
6.81712
6.43449
4.67195
1.40818
0.995096
1.00009
0.999999
1
1
1
1
1
1
1
1
1
1
1
6.81676
6.86004
6.83719
6.74042
6.478
3.29618
1.02285
0.999652
1
1
1
1
1
1
1
1
1
1
1
1
6.9629
6.90185
6.84148
6.78534
6.79562
5.77809
2.62804
1.02318
1
1
1
1
1
1
1
1
1
1
1
1
6.97412
6.9251
6.88406
6.86051
6.91396
6.76599
6.0204
2.38353
0.631082
1
1
1
1
1
1
1
1
1
1
1
2.31936
3.64241
4.89996
5.68795
6.16601
6.40518
6.54354
6.24858
4.55054
3.21018
2.36846
1.55675
1.07601
0.986951
0.992693
0.996194
0.999146
0.999975
1.00002
1.00001
0.312388
0.894993
2.02351
3.21209
4.15248
4.79466
5.40639
5.89646
5.74916
5.28884
4.85412
4.31757
3.39735
2.33142
1.43117
1.03151
0.989443
0.99495
0.997338
0.999442
0.020546
0.109332
0.500152
1.20476
2.12801
2.89581
3.5357
4.20135
4.75281
4.83821
4.75479
4.76091
4.71762
4.54307
4.02663
3.06387
2.08845
1.33247
1.01876
0.992907
0.0140308
0.0294391
0.104961
0.392599
0.931001
1.47652
2.02083
2.58934
3.16885
3.53052
3.76595
4.01272
4.22669
4.38062
4.46878
4.39529
4.17959
3.64846
2.79364
1.89133
0.0246309
0.0314727
0.0339737
0.0926056
0.305702
0.753604
1.15572
1.5617
2.00144
2.37135
2.642
2.91001
3.17958
3.46282
3.78029
3.97975
4.09062
4.12701
4.03341
3.90835
0.040139
0.0348554
0.0346562
0.0558249
0.105765
0.310226
0.554376
0.833102
1.16931
1.46903
1.71819
1.94064
2.16273
2.39287
2.69457
2.97523
3.24377
3.48849
3.6475
3.78407
0.0463121
0.0347346
0.040081
0.0669268
0.110384
0.154711
0.265007
0.408857
0.619919
0.855437
1.07616
1.27924
1.47333
1.65421
1.87923
2.10947
2.33435
2.56842
2.79511
3.00522
0.0451089
0.0324065
0.0509633
0.0841168
0.118118
0.153866
0.244187
0.336871
0.467667
0.643375
0.788893
0.934379
1.07021
1.19384
1.32862
1.48259
1.64333
1.81393
2.08708
2.09048
0.0408759
0.033671
0.0481339
0.079626
0.116067
0.154662
0.213211
0.292154
0.38417
0.494983
0.585459
0.675681
0.763786
0.847064
0.926086
1.03293
1.18145
1.32994
1.56233
1.52277
0.0338235
0.038188
0.0460641
0.0622896
0.0943574
0.128168
0.158732
0.214682
0.267511
0.318742
0.373365
0.434852
0.509365
0.585392
0.667964
0.773219
0.892802
1.00018
1.16776
1.12905
0.028134
0.0425713
0.0494847
0.053063
0.0691953
0.0990797
0.104993
0.132766
0.164109
0.200112
0.257743
0.316982
0.396217
0.460328
0.530135
0.603145
0.673872
0.737729
0.815334
0.951208
0.0276081
0.0432091
0.0533283
0.0539182
0.0582832
0.0821095
0.0854998
0.101584
0.143097
0.190822
0.239987
0.279189
0.332748
0.374323
0.414722
0.453297
0.488179
0.528117
0.579273
0.727196
0.0311718
0.0431616
0.0535662
0.0548443
0.0584563
0.0746887
0.0834576
0.102808
0.144764
0.180227
0.212707
0.236241
0.260116
0.283256
0.295082
0.313008
0.333001
0.377265
0.43506
0.550294
0.0391072
0.0448041
0.0521199
0.0528832
0.056493
0.0705772
0.0827532
0.0999144
0.130727
0.158017
0.164855
0.175597
0.174246
0.181951
0.19225
0.218481
0.258717
0.309751
0.352682
0.423166
0.0518099
0.0491544
0.0524016
0.048357
0.0523853
0.0641288
0.0759309
0.08548
0.099842
0.119332
0.112785
0.115622
0.121461
0.142792
0.172816
0.203805
0.234264
0.262447
0.285988
0.312651
0.0667361
0.060704
0.0572617
0.0463505
0.0462273
0.0532825
0.0613447
0.0634386
0.0701706
0.080396
0.0874372
0.0977269
0.117364
0.143972
0.165405
0.186191
0.199066
0.20692
0.207055
0.213351
0.0767946
0.0779629
0.0752509
0.056776
0.0430864
0.0451558
0.0499516
0.0552407
0.0621806
0.0726509
0.086919
0.0992961
0.117696
0.136105
0.145706
0.154659
0.153258
0.151224
0.150552
0.164173
0.0794814
0.0843423
0.082686
0.0689046
0.0525729
0.04565
0.0498969
0.0564353
0.0633758
0.0720941
0.0841828
0.0934873
0.100723
0.104077
0.103705
0.103598
0.104329
0.106516
0.113193
0.128042
0.0889864
0.0986004
0.11631
0.108063
0.0914649
0.0847971
0.106176
0.140904
0.154723
0.14246
0.143101
0.157174
0.179298
0.199398
0.19962
0.180789
0.169824
0.176229
0.198224
0.212884
0.16081
0.23997
0.307406
0.355531
0.360599
0.373423
0.379391
0.414027
0.441685
0.42205
0.414501
0.448392
0.455761
0.471703
0.486515
0.480006
0.487848
0.513061
0.524695
0.530927
0.56694
0.644713
0.717402
0.778532
0.801046
0.845143
0.876602
0.906938
0.904858
0.897376
0.889562
0.912288
0.957174
0.972931
0.959653
0.93744
0.935046
0.947595
0.963693
0.967752
0.297475
0.423129
0.545617
0.671416
0.743167
0.816165
0.857165
0.897545
0.903162
0.904672
0.90356
0.917223
0.947125
0.966535
0.966355
0.958244
0.951377
0.948894
0.950142
0.954507
0.13819
0.158829
0.232423
0.352417
0.539781
0.688927
0.770185
0.857109
0.900725
0.917966
0.91676
0.918346
0.930937
0.947595
0.961277
0.969146
0.969865
0.959646
0.947284
0.949166
0.190036
0.214169
0.243827
0.242976
0.262666
0.337966
0.519165
0.712424
0.837812
0.894811
0.935904
0.921652
0.916657
0.926755
0.950859
0.971547
0.974552
0.964981
0.945313
0.948209
0.232323
0.261546
0.280712
0.295562
0.290472
0.282181
0.297013
0.379126
0.590563
0.798624
0.897492
0.90882
0.903892
0.908803
0.939116
0.970948
0.975249
0.96334
0.946452
0.952148
0.302592
0.318209
0.345937
0.347773
0.335321
0.325373
0.323473
0.323746
0.354779
0.493618
0.71924
0.88592
0.905693
0.899516
0.918886
0.957029
0.971627
0.960089
0.952464
0.96116
0.39462
0.392933
0.399715
0.404324
0.396889
0.378162
0.366616
0.363992
0.360362
0.372896
0.454531
0.675942
0.879519
0.912433
0.906385
0.937816
0.953662
0.947004
0.956317
0.967897
0.529085
0.489915
0.45228
0.452192
0.450516
0.426753
0.400698
0.394861
0.392686
0.386734
0.388721
0.440871
0.64016
0.873054
0.895034
0.933309
0.935233
0.93582
0.958449
0.969846
0.69078
0.606656
0.521437
0.497632
0.5077
0.493466
0.464917
0.446277
0.427349
0.42064
0.405992
0.408074
0.446264
0.627005
0.840217
0.934489
0.914029
0.926985
0.964331
0.966656
0.882818
0.760548
0.621292
0.567491
0.566303
0.556143
0.523729
0.493764
0.459906
0.438796
0.436322
0.427731
0.434592
0.462346
0.624611
0.840338
0.878362
0.930588
0.972372
0.962055
1.26484
0.99856
0.789035
0.630272
0.608694
0.627994
0.623147
0.592824
0.552895
0.502178
0.481992
0.471612
0.471728
0.475158
0.485118
0.562812
0.742441
0.885913
0.938659
0.951217
2.01797
1.50047
1.22858
0.933235
0.769724
0.74811
0.737159
0.689325
0.623263
0.573705
0.546618
0.532673
0.528816
0.521251
0.497789
0.492449
0.527921
0.639705
0.784349
0.906376
2.50607
2.15579
1.73271
1.37079
1.09254
0.894572
0.816934
0.769952
0.688197
0.667161
0.664591
0.640063
0.608441
0.581808
0.551346
0.520923
0.52627
0.537
0.576704
0.743145
2.36548
2.34958
2.22945
1.93162
1.58107
1.2733
1.04082
0.966403
0.883464
0.815769
0.767711
0.710039
0.651624
0.617168
0.602973
0.578688
0.565673
0.559259
0.549833
0.582981
1.67789
2.15314
2.22217
2.19502
2.05316
1.78468
1.46995
1.23684
1.09219
0.955325
0.866687
0.801901
0.723964
0.707807
0.705967
0.682682
0.647272
0.617778
0.577234
0.57706
1.1076
1.4416
1.85187
2.11467
2.11224
2.07165
1.93233
1.67728
1.44049
1.22469
1.07621
1.00315
0.916729
0.850687
0.799701
0.743615
0.693471
0.657508
0.630454
0.604367
1.00451
1.04459
1.2081
1.55059
1.86629
2.01896
2.01384
1.96737
1.83691
1.63161
1.39068
1.22189
1.08729
0.965058
0.88604
0.820894
0.767034
0.73601
0.728762
0.695473
1.00009
1.0011
1.01071
1.07949
1.26984
1.57131
1.82197
1.93595
1.9304
1.89118
1.77021
1.57745
1.3884
1.21208
1.08834
1.01234
0.936982
0.880356
0.833741
0.762004
1
1.00001
1.00015
1.00255
1.01865
1.10106
1.29039
1.55796
1.76666
1.85922
1.85337
1.81594
1.71843
1.55766
1.37534
1.22445
1.10376
0.998993
0.920919
0.832301
1
1
1
1.00003
1.00032
1.00393
1.02462
1.10786
1.28596
1.52223
1.70351
1.78813
1.78416
1.75706
1.67755
1.53746
1.38411
1.23158
1.12201
0.997404
1
1
1
1
1
1.00005
1.00049
1.00466
1.0264
1.10573
1.26384
1.47703
1.63635
1.72562
1.72323
1.70352
1.64434
1.52884
1.39611
1.19598
1
1
1
1
1
1
1
1.00006
1.00058
1.00481
1.0254
1.09425
1.23294
1.42587
1.5737
1.6649
1.66453
1.65278
1.61624
1.46367
1
1
1
1
1
1
1
1
1.00001
1.00006
1.00059
1.00413
1.02248
1.07925
1.1985
1.36762
1.51403
1.60397
1.61265
1.58992
1
1
1
1
1
1
1
1
1
1
1.00001
1.00005
1.00054
1.00328
1.01792
1.06429
1.16249
1.3139
1.44539
1.55047
1
1
1
1
1
1
1
1
1
1
1
1
1.00001
1.00004
1.00042
1.00257
1.01392
1.05139
1.13661
1.38855
1.61802
2.46613
2.58329
2.08554
1.31035
1.037
1.00188
1.00005
1
1
1
1
1
1
1
2.34869
2.81538
2.52711
1.54032
1.04825
1.00081
1
1
1
1
1
1
1
1
1
2.93188
2.87042
1.97999
1.15278
1.00527
1.00005
1
1
1
1
1
1
1
1
1
3.25518
2.55963
1.36492
1.01909
1.00018
1
1
1
1
1
1
1
1
1
1
3.32407
1.68376
1.04709
1.00052
1
1
1
1
1
1
1
1
1
1
1
2.06677
1.07336
1.00049
0.999999
1
1
1
1
1
1
1
1
1
1
1
1.10167
1.00055
0.999997
1
1
1
1
1
1
1
1
1
1
1
1
0.99815
0.999865
0.999996
1
1
1
1
1
1
1
1
1
1
1
1
0.999966
1
1
1
1
1
1
1
1
1
1
1
1
1
1
1
1
1
1
1
1
1
1
1
1
1
1
1
1
1
1
1
1
1
1
1
1
1
1
1
1
1
1
1
1
1
1
1
1
1
1
1
1
1
1
1
1
1
1
1
1
1
1
1
1
1
1
1
1
1
1
1
1
1
1
1
1
1
1
1
1
1
1
1
1
1
1
1
1
1
1
1
1
1
1
1
1
1
1
1
1
1
1
1
1
1
1
1
1
1
1
1
1
1
1
1
1
1
1
1
1
1
1
1
1
1
1
1
1
1
1
1
1
1
1
1
1
1
1
1
1
1
1
1
1
1
1
1
1
1
1
1
1
1
1
1
1
1
1
1
1
1
1
1
1
1
1
1
1
1
1
1
1
1
1
1
1
1
1
1
1
1
1
1
1
1
1
1
1
1
1
1
1
1
1
1
1
1
1
1
1
1
1
1
1
1
1
1
1
1
1
1
1
1
1
1
1
1
1
1
1
1
1
1
1
1
1
1
1
1
1
1
1
1
1
1
1
1
1
1
1
1
1
1
1
1
1
1
1
1
1
1
1
1
1
1
1
1
1
1
1
1
1
1
1
1
1
1
1
1
1
1
1
1
1
1
1
1
1
1
1
1
1
1
1
1
1
1
1
1
1
1
1
1
1
1
1
1
1
1
1
1
1
1
1
1
1
1
1
1
1
1
1
1
1
1
1
1
1
1
1
1
1
1
1
1
1
1
1
1
1
1
1
1
1
1
1
1
1
1
1
1
1
1
1
1
1
1
1
1
1
1
1
1
1
1
1
1
1
1
1
1
1
1
1
1
1
1
1
1
1
1
1
1
1
1
1
1
1
1
1
1
1
1
1
1
1
1
1
1
1
1
1
1
1
1
1
1
1
1
1
1
1
1
1
1
1
1
1
1
1
1
1
1
1
1
1
1
1
1
1
1
1
1
1
1
1
1
1
1
1
1
1
1
1
1
1
1
1
1
1
1
1
1
1
1
1
1
1
1
1
1
1
1
1
1
1
1
1
1
1
1
1
1
1
1
1
1
1
1
1
1
1
1
1
1
1
1
1
1
1
1
1
1
1
1
1
1
1
1
1
1
1
1
1
1
1
1
1
1
1
1
1
1
1
1
1
1
1
1
1
1
1
1
1
1
1
1
1
1
1
1
1
1
1
1
1
1
1
1
1
1
1
1
1
1
1
1
1
1
1
1
1
1
1
1
1
1
1
1
1
1
1
1
1
1
1
1
1
1
1
1
1
1
1
1
1
1
1
1
1
1
1
1
1
1
1
1
1
1
1
1
1
1
1
1
1
1
1
1
1
1
1
1
1
1
1
1
1
1
1
1
1
1
1
1
1
1
1
1
1
1
1
1
1
1
1
1
1
1
1
1
1
1
1
1
1
1
1
1
1
1
1
1
1
1
1
1
1
1
1
1
1
1
1
1
1
1
1
1
1
1
1
1
1
1
1
1
1
1
1
1
1
1
1
1
1
1
1
1
1
1
1
1
1
1
1
1
1
1
1
1
1
1
1
1
1
1
1
1
1
1
1
1
1
1
1
1
1
1
1
1
1
1
1
1
1
1
1
1
1
1
1
1
1
1
1
1
1
1
1
1
1
1
1
1
1
1
1
1
1
1
1
1
1
1
1
1
1
1
1
1
1
1
1
1
1
1
1
1
1
1
1
1
1
1
1
1
1
1
1
1
1
1
1
1
1
1
1
1
1
1
1
1
1
1
1
1
1
1
1
1
1
1
1
1
1
1
1
1
1
1
1
1
1
1
1
1
1
1
1
1
1
1
1
1
1
1
1
1
1
1
1
1
1
1
1
1
1
1
1
1
1
1
1
1
1
1
1
1
1
1
1
1
1
1
1
1
1
1
1
1
1
1
1
0.999966
1
1
1
1
1
1
1
1
1
1
1
1
1
1
0.998146
0.999865
0.999996
1
1
1
1
1
1
1
1
1
1
1
1
1.10191
1.00055
0.999997
1
1
1
1
1
1
1
1
1
1
1
1
2.06743
1.07343
1.00049
0.999999
1
1
1
1
1
1
1
1
1
1
1
3.32429
1.68401
1.04715
1.00052
1
1
1
1
1
1
1
1
1
1
1
3.25598
2.55987
1.36477
1.01905
1.00018
1
1
1
1
1
1
1
1
1
1
2.93234
2.87099
1.9802
1.15273
1.00526
1.00005
1
1
1
1
1
1
1
1
1
2.34895
2.81567
2.52706
1.54034
1.04828
1.00081
1
1
1
1
1
1
1
1
1
1.6197
2.46667
2.583
2.08491
1.31016
1.03698
1.00188
1.00005
1
1
1
1
1
1
1
1.25852
2.01701
2.50665
2.36632
1.67878
1.10779
1.00451
1.00009
1
1
1
1
1
1
1
1.00239
1.49571
2.15286
2.34932
2.1505
1.4413
1.04466
1.00111
1.00001
1
1
1
1
1
1
0.798841
1.23169
1.73156
2.22816
2.22336
1.85203
1.20808
1.01071
1.00015
1
1
1
1
1
1
0.630648
0.933911
1.36968
1.93575
2.19681
2.11466
1.54979
1.07934
1.00255
1.00003
1
1
1
1
1
0.605427
0.777507
1.08917
1.57675
2.05581
2.11214
1.86626
1.26971
1.01866
1.00032
1
1
1
1
1
0.624043
0.751398
0.905076
1.26495
1.77969
2.07159
2.01805
1.57109
1.10111
1.00394
1.00005
1
1
1
1
0.620866
0.729993
0.823572
1.0665
1.47324
1.92782
2.01295
1.82155
1.29067
1.02469
1.00049
1
1
1
1
0.59299
0.682471
0.76042
0.965499
1.24941
1.67888
1.96709
1.93569
1.55824
1.10808
1.00467
1.00006
1
1
1
0.558928
0.622965
0.687505
0.866911
1.08817
1.45106
1.83681
1.93033
1.76688
1.28617
1.02642
1.00057
1.00001
1
1
0.513283
0.582432
0.681727
0.815553
0.93676
1.22303
1.63321
1.89137
1.85924
1.52216
1.10567
1.00481
1.00006
1
1
0.478293
0.547667
0.675246
0.778937
0.858741
1.06464
1.39171
1.76954
1.85327
1.70332
1.26367
1.02537
1.00059
1.00001
1
0.464877
0.525716
0.640613
0.721307
0.804116
0.991595
1.22011
1.57736
1.81565
1.78782
1.47683
1.09425
1.00413
1.00005
1
0.463904
0.522881
0.603812
0.652479
0.734419
0.915502
1.08395
1.3893
1.71855
1.78386
1.63616
1.23296
1.02248
1.00054
1.00001
0.470157
0.513338
0.577176
0.615894
0.71555
0.853026
0.964589
1.21347
1.55669
1.75666
1.72539
1.42584
1.07927
1.00328
1.00004
0.484575
0.48466
0.544217
0.60491
0.710123
0.803204
0.885369
1.08568
1.37373
1.67715
1.7231
1.57368
1.19852
1.01792
1.00042
0.565307
0.487299
0.515521
0.580124
0.684815
0.745924
0.820313
1.00687
1.22424
1.53752
1.70355
1.66493
1.36763
1.06433
1.00258
0.750692
0.529454
0.524024
0.559995
0.64895
0.69133
0.765625
0.936543
1.10549
1.38419
1.64437
1.66464
1.51429
1.16256
1.01393
0.892898
0.65099
0.539952
0.549304
0.618687
0.654549
0.737661
0.882031
0.999986
1.23173
1.52931
1.653
1.60411
1.31412
1.05145
0.941829
0.794414
0.580089
0.546217
0.577771
0.630005
0.732673
0.83407
0.920447
1.12327
1.39662
1.61656
1.61297
1.44572
1.13674
0.952229
0.90729
0.743507
0.583639
0.579213
0.603789
0.700478
0.760069
0.83036
0.998686
1.1961
1.46408
1.59023
1.55075
1.38873
0.882808
0.761626
0.623957
0.563892
0.561035
0.556553
0.525385
0.49796
0.473114
0.440757
0.429746
0.420894
0.430226
0.467828
0.624057
0.835312
0.877158
0.936366
0.972462
0.963862
0.69026
0.610133
0.520789
0.486563
0.499998
0.492465
0.459336
0.449087
0.433857
0.418735
0.400812
0.404664
0.445958
0.636811
0.86207
0.941478
0.912574
0.925864
0.963472
0.966854
0.529804
0.491823
0.448549
0.448732
0.449836
0.428317
0.398167
0.397761
0.396013
0.384428
0.385912
0.438379
0.641909
0.869589
0.923199
0.954813
0.937708
0.931361
0.952898
0.966225
0.396547
0.391969
0.39656
0.404556
0.399027
0.377896
0.363711
0.364408
0.359973
0.370898
0.455811
0.670666
0.883006
0.91518
0.920289
0.954716
0.953234
0.937714
0.941963
0.959059
0.302192
0.318128
0.34153
0.346176
0.33447
0.323636
0.323069
0.324656
0.355146
0.496311
0.725823
0.886239
0.911055
0.906538
0.919266
0.95751
0.96572
0.953925
0.943112
0.952574
0.231741
0.259132
0.280151
0.300021
0.296925
0.284544
0.300354
0.380834
0.587802
0.79251
0.900779
0.914684
0.907959
0.906506
0.92658
0.960704
0.968872
0.96099
0.948677
0.952346
0.189507
0.2134
0.243042
0.242719
0.260082
0.333802
0.524768
0.711124
0.823881
0.888712
0.939234
0.933248
0.917647
0.920401
0.936732
0.957745
0.967166
0.967715
0.961306
0.957018
0.138745
0.155291
0.232525
0.347593
0.531078
0.684278
0.773103
0.851842
0.88939
0.911125
0.925547
0.931779
0.934258
0.939625
0.948375
0.956731
0.963219
0.968461
0.967599
0.962875
0.276697
0.40585
0.545148
0.67752
0.738884
0.811858
0.856273
0.897668
0.89734
0.901935
0.911288
0.925144
0.940615
0.952745
0.953437
0.950788
0.953555
0.964151
0.973659
0.970119
0.555468
0.642925
0.718269
0.783174
0.801128
0.844567
0.876778
0.897889
0.891363
0.882828
0.894783
0.919637
0.955494
0.970322
0.960196
0.939543
0.93916
0.953679
0.971962
0.97097
)
;

boundaryField
{
    inlet
    {
        type            fixedValue;
        value           uniform 1;
    }
    outlet
    {
        type            zeroGradient;
    }
    airfoil
    {
        type            zeroGradient;
    }
    top
    {
        type            symmetryPlane;
    }
    bottom
    {
        type            symmetryPlane;
    }
    defaultFaces
    {
        type            empty;
    }
}


// ************************************************************************* //
