/*--------------------------------*- C++ -*----------------------------------*\
  =========                 |
  \\      /  F ield         | OpenFOAM: The Open Source CFD Toolbox
   \\    /   O peration     | Website:  https://openfoam.org
    \\  /    A nd           | Version:  7
     \\/     M anipulation  |
\*---------------------------------------------------------------------------*/
FoamFile
{
    version     2.0;
    format      ascii;
    class       volScalarField;
    location    "5.8";
    object      rho;
}
// * * * * * * * * * * * * * * * * * * * * * * * * * * * * * * * * * * * * * //

dimensions      [1 -3 0 0 0 0 0];

internalField   nonuniform List<scalar> 
3700
(
0.249764
0.367378
0.441443
0.531328
0.574116
0.572484
0.542969
0.540077
0.571031
0.58215
0.611607
0.640867
0.632516
0.647496
0.679066
0.685336
0.708148
0.7191
0.711146
0.728873
0.154821
0.164446
0.182197
0.192915
0.191605
0.178345
0.149349
0.128602
0.149157
0.197561
0.261067
0.304747
0.291883
0.2708
0.271387
0.281016
0.292668
0.282849
0.275609
0.271164
0.127143
0.122311
0.114156
0.0944885
0.0653284
0.0647388
0.0702478
0.0798714
0.090755
0.103088
0.120944
0.132968
0.140431
0.142913
0.142578
0.142793
0.144445
0.147954
0.158112
0.18037
0.107008
0.111034
0.106097
0.0798252
0.0594417
0.0637321
0.0699988
0.0782266
0.0888
0.103643
0.124321
0.142105
0.167909
0.191482
0.203174
0.214606
0.210587
0.207959
0.208212
0.231827
0.0897822
0.0914021
0.0865579
0.0663195
0.063455
0.0741394
0.0827289
0.0874491
0.0968295
0.110296
0.123191
0.139492
0.168569
0.205381
0.23379
0.262458
0.276832
0.285254
0.284813
0.296465
0.0722055
0.0702737
0.0741866
0.0660506
0.0749865
0.0901666
0.104454
0.117033
0.134638
0.159146
0.152697
0.157823
0.170534
0.20466
0.246922
0.289444
0.330818
0.368314
0.398703
0.432504
0.0559793
0.0571951
0.0724205
0.0757299
0.0810314
0.0986034
0.116188
0.14033
0.180131
0.217775
0.222922
0.236836
0.237362
0.249412
0.268344
0.309929
0.368885
0.438373
0.496223
0.591183
0.0443281
0.0511404
0.0721167
0.0794838
0.0846389
0.102228
0.117639
0.147349
0.204835
0.252812
0.295445
0.327941
0.358415
0.390234
0.406565
0.431965
0.462382
0.53109
0.613374
0.771616
0.0370796
0.048932
0.0739545
0.0809453
0.0860024
0.111057
0.118764
0.145112
0.206706
0.272368
0.339324
0.39307
0.465089
0.522573
0.577106
0.629454
0.675606
0.733235
0.808464
1.0173
0.0338259
0.0516939
0.0765992
0.0832495
0.101956
0.137937
0.14408
0.17902
0.225269
0.283124
0.367817
0.448719
0.557822
0.645794
0.742879
0.842611
0.938528
1.02415
1.13438
1.32647
0.0343672
0.0547205
0.0747492
0.0952746
0.134743
0.176163
0.217451
0.293151
0.365417
0.431897
0.510537
0.599394
0.708635
0.816669
0.936087
1.08476
1.24874
1.39417
1.62297
1.56891
0.0403786
0.0516156
0.0756031
0.117922
0.162104
0.214797
0.294722
0.407378
0.534852
0.686213
0.811338
0.935514
1.0581
1.17329
1.28497
1.43901
1.65233
1.85953
2.17587
2.11668
0.047706
0.0485597
0.0819225
0.129427
0.162561
0.217182
0.343548
0.478232
0.663016
0.90828
1.10677
1.30575
1.49151
1.66275
1.84752
2.06077
2.2877
2.52688
2.9075
2.91077
0.05052
0.0486817
0.0749458
0.112055
0.144301
0.216843
0.383373
0.584292
0.874104
1.20197
1.50607
1.78748
2.05518
2.30659
2.61721
2.93578
3.2455
3.57133
3.88762
4.17469
0.049899
0.0518778
0.0664112
0.0902103
0.153431
0.433305
0.766402
1.14919
1.61604
2.03127
2.37948
2.68925
2.99828
3.32093
3.74353
4.13385
4.50588
4.84626
5.06852
5.25776
0.0385968
0.0556014
0.0728693
0.128203
0.43534
1.0437
1.59413
2.15879
2.77606
3.29391
3.67156
4.04139
4.41329
4.80613
5.24902
5.52509
5.67806
5.72907
5.6007
5.42972
0.0251296
0.0611317
0.155187
0.524263
1.26685
2.03691
2.79819
3.59384
4.40652
4.91133
5.23883
5.57691
5.8683
6.07924
6.2042
6.10336
5.807
5.07434
3.89037
2.63887
0.0316175
0.143882
0.665146
1.67724
2.95312
4.01045
4.90893
5.83961
6.6126
6.72199
6.60943
6.60959
6.54673
6.30471
5.59393
4.26408
2.91528
1.86465
1.42635
1.39012
0.431666
1.24141
2.81181
4.43961
5.77
6.6779
7.5176
8.17962
7.97543
7.33939
6.73851
5.99751
4.72569
3.25232
2.00292
1.44451
1.38528
1.39296
1.39629
1.39923
3.22491
5.05546
6.79468
7.89395
8.57556
8.88095
9.07445
8.66274
6.31384
4.45714
3.29287
2.17106
1.50504
1.38168
1.38977
1.39469
1.39882
1.39997
1.40003
1.40002
9.65866
9.59682
9.54418
9.50998
9.59402
9.37028
8.34602
3.31846
0.887894
1.40001
1.40001
1.40001
1.40001
1.40001
1.40001
1.40001
1.40001
1.40001
1.40001
1.40001
9.6517
9.56696
9.47779
9.38418
9.3737
8.01572
3.68197
1.43455
1.40001
1.40001
1.40001
1.40001
1.40001
1.40001
1.40001
1.40001
1.40001
1.40001
1.40001
1.40001
9.45055
9.50548
9.47859
9.35935
8.9893
4.59872
1.43191
1.39947
1.40001
1.40001
1.40001
1.40001
1.40001
1.40001
1.40001
1.40001
1.40001
1.40001
1.40001
1.40001
9.28555
9.47138
9.45399
8.9868
6.47941
1.94716
1.39314
1.40013
1.4
1.40001
1.40001
1.40001
1.40001
1.40001
1.40001
1.40001
1.40001
1.40001
1.40001
1.40001
9.07583
9.47191
9.45734
8.34596
3.92123
1.36387
1.4005
1.4
1.40001
1.40001
1.40001
1.40001
1.40001
1.40001
1.40001
1.40001
1.40001
1.40001
1.40001
1.40001
8.89724
9.41142
9.47377
7.04699
1.99957
1.40001
1.40001
1.40001
1.40001
1.40001
1.40001
1.40001
1.40001
1.40001
1.40001
1.40001
1.40001
1.40001
1.40001
1.40001
8.81172
9.24181
9.22388
4.82983
1.36391
1.40001
1.40001
1.40001
1.40001
1.40001
1.40001
1.40001
1.40001
1.40001
1.40001
1.40001
1.40001
1.40001
1.40001
1.40001
8.98669
9.16635
8.35753
2.88004
1.4
1.40001
1.40001
1.40001
1.40001
1.40001
1.40001
1.40001
1.40001
1.40001
1.40001
1.40001
1.40001
1.40001
1.40001
1.40001
9.69892
9.31081
6.81735
1.62623
1.40001
1.40001
1.40001
1.40001
1.40001
1.40001
1.40001
1.40001
1.40001
1.40001
1.40001
1.40001
1.40001
1.40001
1.40001
1.40001
10.0289
8.83846
4.86069
1.38326
1.40001
1.40001
1.40001
1.40001
1.40001
1.40001
1.40001
1.40001
1.40001
1.40001
1.40001
1.40001
1.40001
1.40001
1.40001
1.40001
10.2607
8.30606
3.25104
1.40001
1.40001
1.40001
1.40001
1.40001
1.40001
1.40001
1.40001
1.40001
1.40001
1.40001
1.40001
1.40001
1.40001
1.40001
1.40001
1.40001
10.371
7.52415
2.23946
1.40001
1.40001
1.40001
1.40001
1.40001
1.40001
1.40001
1.40001
1.40001
1.40001
1.40001
1.40001
1.40001
1.40001
1.40001
1.40001
1.40001
10.4399
6.57972
1.64463
1.40001
1.40001
1.40001
1.40001
1.40001
1.40001
1.40001
1.40001
1.40001
1.40001
1.40001
1.40001
1.40001
1.40001
1.40001
1.40001
1.40001
10.2684
5.55299
1.41164
1.40001
1.40001
1.40001
1.40001
1.40001
1.40001
1.40001
1.40001
1.40001
1.40001
1.40001
1.40001
1.40001
1.40001
1.40001
1.40001
1.40001
10.0066
4.40279
1.40001
1.40001
1.40001
1.40001
1.40001
1.40001
1.40001
1.40001
1.40001
1.40001
1.40001
1.40001
1.40001
1.40001
1.40001
1.40001
1.40001
1.40001
9.53105
3.54352
1.40001
1.40001
1.40001
1.40001
1.40001
1.40001
1.40001
1.40001
1.40001
1.40001
1.40001
1.40001
1.40001
1.40001
1.40001
1.40001
1.40001
1.40001
9.27173
2.70183
1.40001
1.40001
1.40001
1.40001
1.40001
1.40001
1.40001
1.40001
1.40001
1.40001
1.40001
1.40001
1.40001
1.40001
1.40001
1.40001
1.40001
1.40001
8.80462
1.90709
1.40001
1.40001
1.40001
1.40001
1.40001
1.40001
1.40001
1.40001
1.40001
1.40001
1.40001
1.40001
1.40001
1.40001
1.40001
1.40001
1.40001
1.40001
7.83226
1.40734
1.40001
1.40001
1.40001
1.40001
1.40001
1.40001
1.40001
1.40001
1.40001
1.40001
1.40001
1.40001
1.40001
1.40001
1.40001
1.40001
1.40001
1.40001
6.47667
1.40007
1.40001
1.40001
1.40001
1.40001
1.40001
1.40001
1.40001
1.40001
1.40001
1.40001
1.40001
1.40001
1.40001
1.40001
1.40001
1.40001
1.40001
1.40001
6.48186
1.40007
1.40001
1.40001
1.40001
1.40001
1.40001
1.40001
1.40001
1.40001
1.40001
1.40001
1.40001
1.40001
1.40001
1.40001
1.40001
1.40001
1.40001
1.40001
7.82919
1.40716
1.40001
1.40001
1.40001
1.40001
1.40001
1.40001
1.40001
1.40001
1.40001
1.40001
1.40001
1.40001
1.40001
1.40001
1.40001
1.40001
1.40001
1.40001
8.79429
1.90163
1.40001
1.40001
1.40001
1.40001
1.40001
1.40001
1.40001
1.40001
1.40001
1.40001
1.40001
1.40001
1.40001
1.40001
1.40001
1.40001
1.40001
1.40001
9.29007
2.69971
1.40001
1.40001
1.40001
1.40001
1.40001
1.40001
1.40001
1.40001
1.40001
1.40001
1.40001
1.40001
1.40001
1.40001
1.40001
1.40001
1.40001
1.40001
9.53309
3.56258
1.40001
1.40001
1.40001
1.40001
1.40001
1.40001
1.40001
1.40001
1.40001
1.40001
1.40001
1.40001
1.40001
1.40001
1.40001
1.40001
1.40001
1.40001
9.98306
4.40816
1.40001
1.40001
1.40001
1.40001
1.40001
1.40001
1.40001
1.40001
1.40001
1.40001
1.40001
1.40001
1.40001
1.40001
1.40001
1.40001
1.40001
1.40001
10.2775
5.54502
1.40727
1.40001
1.40001
1.40001
1.40001
1.40001
1.40001
1.40001
1.40001
1.40001
1.40001
1.40001
1.40001
1.40001
1.40001
1.40001
1.40001
1.40001
10.4493
6.56598
1.64095
1.40001
1.40001
1.40001
1.40001
1.40001
1.40001
1.40001
1.40001
1.40001
1.40001
1.40001
1.40001
1.40001
1.40001
1.40001
1.40001
1.40001
10.3785
7.51932
2.22973
1.40001
1.40001
1.40001
1.40001
1.40001
1.40001
1.40001
1.40001
1.40001
1.40001
1.40001
1.40001
1.40001
1.40001
1.40001
1.40001
1.40001
10.2639
8.32054
3.24533
1.40001
1.40001
1.40001
1.40001
1.40001
1.40001
1.40001
1.40001
1.40001
1.40001
1.40001
1.40001
1.40001
1.40001
1.40001
1.40001
1.40001
10.0162
8.83364
4.88922
1.38312
1.40001
1.40001
1.40001
1.40001
1.40001
1.40001
1.40001
1.40001
1.40001
1.40001
1.40001
1.40001
1.40001
1.40001
1.40001
1.40001
9.68246
9.31661
6.83679
1.62501
1.40001
1.40001
1.40001
1.40001
1.40001
1.40001
1.40001
1.40001
1.40001
1.40001
1.40001
1.40001
1.40001
1.40001
1.40001
1.40001
8.98581
9.16649
8.37147
2.88381
1.4
1.40001
1.40001
1.40001
1.40001
1.40001
1.40001
1.40001
1.40001
1.40001
1.40001
1.40001
1.40001
1.40001
1.40001
1.40001
8.8094
9.23637
9.19983
4.80974
1.36425
1.40001
1.40001
1.40001
1.40001
1.40001
1.40001
1.40001
1.40001
1.40001
1.40001
1.40001
1.40001
1.40001
1.40001
1.40001
8.88712
9.40283
9.48373
7.05876
1.98129
1.40001
1.40001
1.40001
1.40001
1.40001
1.40001
1.40001
1.40001
1.40001
1.40001
1.40001
1.40001
1.40001
1.40001
1.40001
9.0644
9.47457
9.47136
8.3825
3.93951
1.3634
1.4005
1.4
1.40001
1.40001
1.40001
1.40001
1.40001
1.40001
1.40001
1.40001
1.40001
1.40001
1.40001
1.40001
9.28054
9.475
9.45054
8.92338
6.4893
1.96684
1.39318
1.40013
1.4
1.40001
1.40001
1.40001
1.40001
1.40001
1.40001
1.40001
1.40001
1.40001
1.40001
1.40001
9.44964
9.50952
9.47823
9.34581
8.98634
4.58631
1.43163
1.39952
1.40001
1.40001
1.40001
1.40001
1.40001
1.40001
1.40001
1.40001
1.40001
1.40001
1.40001
1.40001
9.65169
9.56736
9.48421
9.40759
9.4242
8.02118
3.66149
1.43223
1.40001
1.40001
1.40001
1.40001
1.40001
1.40001
1.40001
1.40001
1.40001
1.40001
1.40001
1.40001
9.66737
9.59965
9.54314
9.51115
9.58627
9.38338
8.35435
3.32121
0.884969
1.40001
1.40001
1.40001
1.40001
1.40001
1.40001
1.40001
1.40001
1.40001
1.40001
1.40001
3.22471
5.05716
6.79798
7.88867
8.55072
8.88284
9.07452
8.6671
6.31738
4.46032
3.29699
2.17446
1.50599
1.3818
1.38981
1.39469
1.39881
1.39997
1.40003
1.40002
0.436852
1.24645
2.81207
4.45957
5.76273
6.65269
7.50001
8.17924
7.97533
7.33764
6.73561
5.99444
4.72215
3.24868
2.00065
1.44396
1.38527
1.39296
1.39629
1.39923
0.0289108
0.152983
0.696906
1.6755
2.95649
4.02156
4.90881
5.83158
6.59606
6.71427
6.59858
6.60703
6.54699
6.30617
5.59404
4.26291
2.91341
1.86358
1.42619
1.3901
0.0197568
0.0413648
0.146783
0.547171
1.2952
2.05288
2.80853
3.59737
4.40136
4.90322
5.22969
5.57148
5.8675
6.08082
6.20325
6.10192
5.80547
5.07346
3.89101
2.64053
0.0346033
0.0442215
0.047695
0.129512
0.426143
1.04881
1.6077
2.1716
2.78219
3.29595
3.67182
4.04371
4.41737
4.8097
5.24959
5.5261
5.68021
5.7312
5.60267
5.43133
0.0563012
0.0489536
0.0486482
0.0781982
0.147883
0.43256
0.772281
1.15987
1.62713
2.04376
2.39016
2.6993
3.00774
3.327
3.74527
4.13431
4.50657
4.84601
5.0671
5.25703
0.0649198
0.0487678
0.056221
0.0936922
0.154396
0.216152
0.369857
0.570226
0.863904
1.19154
1.49857
1.78099
2.05076
2.302
2.61432
2.93379
3.24578
3.57047
3.88502
4.17665
0.0632112
0.0454825
0.0714088
0.117701
0.165188
0.214988
0.340879
0.47002
0.652109
0.896618
1.09918
1.30161
1.49056
1.66249
1.8498
2.06377
2.28704
2.52399
2.90312
2.90767
0.0572663
0.0472298
0.0674403
0.111442
0.1623
0.216101
0.29774
0.40775
0.535929
0.690228
0.816263
0.941866
1.06451
1.18045
1.29046
1.43915
1.64569
1.85207
2.17475
2.11978
0.0473823
0.053502
0.0645275
0.0872132
0.131972
0.179162
0.221805
0.299817
0.373497
0.444875
0.521039
0.606736
0.710571
0.816493
0.931487
1.07801
1.24441
1.39379
1.62666
1.57288
0.0394295
0.0595972
0.0692715
0.0742867
0.0968144
0.138528
0.1468
0.185554
0.229297
0.279526
0.359932
0.442551
0.552965
0.642326
0.739596
0.841314
0.939845
1.02876
1.13672
1.32568
0.0387071
0.0604941
0.0746331
0.0754621
0.0815485
0.114803
0.119566
0.14203
0.199962
0.266561
0.335165
0.389872
0.46454
0.522551
0.5789
0.632708
0.681357
0.737014
0.808283
1.01417
0.0436988
0.0604492
0.074983
0.0767622
0.0817898
0.104446
0.116736
0.143765
0.202311
0.251828
0.297172
0.330054
0.363379
0.395706
0.412246
0.437296
0.465226
0.52694
0.60745
0.767925
0.0547972
0.0627574
0.0729901
0.0740555
0.07908
0.0987505
0.115785
0.139764
0.182791
0.22092
0.230506
0.245536
0.243683
0.25446
0.268859
0.305491
0.36162
0.432751
0.492608
0.590845
0.0725398
0.0688423
0.073397
0.0677664
0.0733925
0.0897998
0.106303
0.119666
0.139757
0.166996
0.157866
0.161821
0.169962
0.199754
0.241681
0.284942
0.327433
0.36675
0.399621
0.436817
0.093364
0.0849676
0.0801807
0.0649629
0.0648118
0.0746854
0.0859629
0.0888909
0.0982994
0.112579
0.122407
0.136782
0.164212
0.201369
0.231302
0.260326
0.2783
0.289289
0.28953
0.29837
0.107361
0.109008
0.105258
0.0795097
0.0604081
0.0633039
0.0700093
0.0774023
0.0871035
0.101729
0.121659
0.138949
0.164655
0.190373
0.20379
0.216311
0.214385
0.211602
0.210714
0.22973
0.11106
0.117848
0.115582
0.0964144
0.0736474
0.0639868
0.0699196
0.0790566
0.0887566
0.100931
0.117817
0.130824
0.140942
0.145639
0.14514
0.145013
0.146054
0.149116
0.158444
0.179199
0.124268
0.137642
0.162213
0.150776
0.127699
0.118325
0.147815
0.195921
0.215194
0.198458
0.199596
0.219118
0.249627
0.27737
0.277707
0.251741
0.23678
0.245711
0.276228
0.296654
0.223778
0.333518
0.426673
0.493061
0.500028
0.517692
0.525762
0.57342
0.611689
0.58471
0.574485
0.621244
0.630998
0.652936
0.673485
0.664672
0.675827
0.710762
0.72683
0.735484
0.785482
0.89339
0.994366
1.07932
1.11083
1.1722
1.21603
1.25821
1.25551
1.24541
1.23481
1.26642
1.32874
1.35065
1.3324
1.30174
1.29845
1.31588
1.33825
1.34398
0.413995
0.588574
0.758609
0.933146
1.03244
1.13357
1.19048
1.24649
1.25423
1.25636
1.25496
1.274
1.31552
1.34245
1.34221
1.33098
1.32146
1.31803
1.31981
1.32595
0.193414
0.222234
0.324852
0.491922
0.752337
0.95945
1.07215
1.1927
1.2529
1.27653
1.27485
1.27707
1.29453
1.31756
1.33642
1.34722
1.34814
1.33394
1.31677
1.31938
0.265841
0.299568
0.341004
0.339833
0.367255
0.472142
0.724335
0.993161
1.1672
1.24597
1.30293
1.28314
1.27614
1.29005
1.32336
1.35194
1.35601
1.34266
1.31528
1.31922
0.324865
0.365667
0.392463
0.413208
0.406154
0.394579
0.415236
0.52963
0.823924
1.11312
1.25047
1.26613
1.25926
1.26602
1.30802
1.35214
1.35805
1.34146
1.31792
1.32574
0.42288
0.444711
0.483422
0.485995
0.468644
0.454767
0.452144
0.452539
0.495794
0.689126
1.00299
1.23465
1.26214
1.25355
1.28043
1.33338
1.35364
1.33759
1.32695
1.33898
0.551155
0.548887
0.55837
0.564803
0.55444
0.528321
0.51224
0.508636
0.503625
0.521102
0.634807
0.942882
1.22596
1.27173
1.26332
1.30699
1.32902
1.31976
1.3327
1.34876
0.738461
0.683989
0.631598
0.631472
0.629132
0.596014
0.559714
0.551649
0.54868
0.540447
0.543217
0.615882
0.893294
1.21719
1.24776
1.30095
1.30364
1.30446
1.33591
1.35173
0.963523
0.846478
0.727856
0.694731
0.708766
0.688956
0.649193
0.623277
0.596987
0.587708
0.567356
0.570266
0.623513
0.875176
1.17177
1.30283
1.27438
1.29238
1.34428
1.34751
1.23056
1.06051
0.866797
0.791978
0.790384
0.776272
0.731144
0.689443
0.642352
0.613035
0.609647
0.597715
0.6073
0.646031
0.871988
1.17215
1.22501
1.29758
1.35567
1.34133
1.76137
1.39149
1.10023
0.879426
0.849497
0.87639
0.869668
0.827484
0.77194
0.701392
0.673343
0.658922
0.659138
0.663992
0.677924
0.786174
1.03623
1.23583
1.30924
1.32669
2.80789
2.0893
1.71158
1.30098
1.07366
1.04374
1.02858
0.962045
0.870094
0.801147
0.763483
0.74412
0.738822
0.728367
0.69573
0.68836
0.737835
0.893608
1.09508
1.26491
3.4873
3.00056
2.41277
1.90984
1.523
1.24777
1.13987
1.07453
0.960708
0.931476
0.927991
0.893927
0.849952
0.812931
0.770557
0.728196
0.735729
0.750798
0.806217
1.03813
3.29559
3.27154
3.10447
2.69039
2.20302
1.77513
1.45182
1.34834
1.23293
1.13875
1.07194
0.991697
0.910371
0.86243
0.842723
0.808953
0.790893
0.782045
0.768989
0.8153
2.34321
3.00306
3.09723
3.05826
2.86087
2.48738
2.04961
1.72535
1.52406
1.33358
1.21021
1.12002
1.01146
0.989044
0.98657
0.954209
0.904926
0.86389
0.807379
0.807296
1.54998
2.0153
2.58605
2.95061
2.94572
2.88836
2.69437
2.33937
2.00978
1.70938
1.50266
1.40093
1.28058
1.18863
1.11766
1.03955
0.969696
0.919595
0.881907
0.84561
1.4063
1.46221
1.69023
2.16745
2.60672
2.81838
2.81011
2.74479
2.56298
2.27704
1.94151
1.70643
1.51892
1.3486
1.2385
1.14771
1.07265
1.02942
1.01937
0.973021
1.40014
1.40154
1.41495
1.51091
1.77639
2.19657
2.54546
2.70358
2.69504
2.63997
2.47134
2.20274
1.93933
1.6936
1.52113
1.4152
1.31014
1.2312
1.16623
1.06621
1.40001
1.40002
1.40021
1.40357
1.42604
1.54101
1.80509
2.17811
2.46873
2.59728
2.58849
2.53614
2.40014
2.17602
1.9219
1.71155
1.54327
1.39716
1.28827
1.16466
1.40001
1.40001
1.40001
1.40004
1.40045
1.4055
1.43437
1.55051
1.79894
2.12839
2.38089
2.4986
2.49259
2.45476
2.34385
2.14852
1.93473
1.72204
1.56924
1.39541
1.40001
1.40001
1.40001
1.40001
1.40001
1.40007
1.40069
1.4065
1.43684
1.54754
1.76809
2.06541
2.28739
2.41169
2.40805
2.38055
2.29801
2.13695
1.95188
1.67274
1.40001
1.40001
1.40001
1.40001
1.40001
1.40001
1.40001
1.40009
1.40081
1.40672
1.43545
1.53153
1.725
1.99408
2.2001
2.32717
2.32645
2.31005
2.25909
2.04631
1.40001
1.40001
1.40001
1.40001
1.40001
1.40001
1.40001
1.40001
1.40001
1.40009
1.40083
1.40576
1.43137
1.51059
1.67696
1.91284
2.11693
2.24228
2.25425
2.22255
1.40001
1.40001
1.40001
1.40001
1.40001
1.40001
1.40001
1.40001
1.40001
1.40001
1.40001
1.40008
1.40076
1.40458
1.42502
1.48972
1.62672
1.83791
2.02126
2.16767
1.40001
1.40001
1.40001
1.40001
1.40001
1.40001
1.40001
1.40001
1.40001
1.40001
1.40001
1.40001
1.40001
1.40007
1.40059
1.4036
1.41943
1.47172
1.59061
1.94193
2.25177
3.43018
3.59472
2.90768
1.83189
1.45155
1.40262
1.40007
1.40001
1.40001
1.40001
1.40001
1.40001
1.40001
1.40001
3.26619
3.91558
3.51975
2.15179
1.46723
1.40114
1.40001
1.4
1.40001
1.40001
1.40001
1.40001
1.40001
1.40001
1.40001
4.07591
3.99322
2.7617
1.61271
1.40735
1.40008
1.40001
1.40001
1.40001
1.40001
1.40001
1.40001
1.40001
1.40001
1.40001
4.52471
3.56501
1.90772
1.42661
1.40025
1.40001
1.40001
1.40001
1.40001
1.40001
1.40001
1.40001
1.40001
1.40001
1.40001
4.62354
2.35057
1.46558
1.40072
1.40001
1.40001
1.40001
1.40001
1.40001
1.40001
1.40001
1.40001
1.40001
1.40001
1.40001
2.88214
1.50213
1.40069
1.4
1.4
1.40001
1.40001
1.40001
1.40001
1.40001
1.40001
1.40001
1.40001
1.40001
1.40001
1.54169
1.40077
1.4
1.4
1.40001
1.40001
1.40001
1.40001
1.40001
1.40001
1.40001
1.40001
1.40001
1.40001
1.40001
1.39742
1.39982
1.4
1.40001
1.40001
1.40001
1.40001
1.40001
1.40001
1.40001
1.40001
1.40001
1.40001
1.40001
1.40001
1.39996
1.40001
1.40001
1.40001
1.40001
1.40001
1.40001
1.40001
1.40001
1.40001
1.40001
1.40001
1.40001
1.40001
1.40001
1.40001
1.40001
1.40001
1.40001
1.40001
1.40001
1.40001
1.40001
1.40001
1.40001
1.40001
1.40001
1.40001
1.40001
1.40001
1.40001
1.40001
1.40001
1.40001
1.40001
1.40001
1.40001
1.40001
1.40001
1.40001
1.40001
1.40001
1.40001
1.40001
1.40001
1.40001
1.40001
1.40001
1.40001
1.40001
1.40001
1.40001
1.40001
1.40001
1.40001
1.40001
1.40001
1.40001
1.40001
1.40001
1.40001
1.40001
1.40001
1.40001
1.40001
1.40001
1.40001
1.40001
1.40001
1.40001
1.40001
1.40001
1.40001
1.40001
1.40001
1.40001
1.40001
1.40001
1.40001
1.40001
1.40001
1.40001
1.40001
1.40001
1.40001
1.40001
1.40001
1.40001
1.40001
1.40001
1.40001
1.40001
1.40001
1.40001
1.40001
1.40001
1.40001
1.40001
1.40001
1.40001
1.40001
1.40001
1.40001
1.40001
1.40001
1.40001
1.40001
1.40001
1.40001
1.40001
1.40001
1.40001
1.40001
1.40001
1.40001
1.40001
1.40001
1.40001
1.40001
1.40001
1.40001
1.40001
1.40001
1.40001
1.40001
1.40001
1.40001
1.40001
1.40001
1.40001
1.40001
1.40001
1.40001
1.40001
1.40001
1.40001
1.40001
1.40001
1.40001
1.40001
1.40001
1.40001
1.40001
1.40001
1.40001
1.40001
1.40001
1.40001
1.40001
1.40001
1.40001
1.40001
1.40001
1.40001
1.40001
1.40001
1.40001
1.40001
1.40001
1.40001
1.40001
1.40001
1.40001
1.40001
1.40001
1.40001
1.40001
1.40001
1.40001
1.40001
1.40001
1.40001
1.40001
1.40001
1.40001
1.40001
1.40001
1.40001
1.40001
1.40001
1.40001
1.40001
1.40001
1.40001
1.40001
1.40001
1.40001
1.40001
1.40001
1.40001
1.40001
1.40001
1.40001
1.40001
1.40001
1.40001
1.40001
1.40001
1.40001
1.40001
1.40001
1.40001
1.40001
1.40001
1.40001
1.40001
1.40001
1.40001
1.40001
1.40001
1.40001
1.40001
1.40001
1.40001
1.40001
1.40001
1.40001
1.40001
1.40001
1.40001
1.40001
1.40001
1.40001
1.40001
1.40001
1.40001
1.40001
1.40001
1.40001
1.40001
1.40001
1.40001
1.40001
1.40001
1.40001
1.40001
1.40001
1.40001
1.40001
1.40001
1.40001
1.40001
1.40001
1.40001
1.40001
1.40001
1.40001
1.40001
1.40001
1.40001
1.40001
1.40001
1.40001
1.40001
1.40001
1.40001
1.40001
1.40001
1.40001
1.40001
1.40001
1.40001
1.40001
1.40001
1.40001
1.40001
1.40001
1.40001
1.40001
1.40001
1.40001
1.40001
1.40001
1.40001
1.40001
1.40001
1.40001
1.40001
1.40001
1.40001
1.40001
1.40001
1.40001
1.40001
1.40001
1.40001
1.40001
1.40001
1.40001
1.40001
1.40001
1.40001
1.40001
1.40001
1.40001
1.40001
1.40001
1.40001
1.40001
1.40001
1.40001
1.40001
1.40001
1.40001
1.40001
1.40001
1.40001
1.40001
1.40001
1.40001
1.40001
1.40001
1.40001
1.40001
1.40001
1.40001
1.40001
1.40001
1.40001
1.40001
1.40001
1.40001
1.40001
1.40001
1.40001
1.40001
1.40001
1.40001
1.40001
1.40001
1.40001
1.40001
1.40001
1.40001
1.40001
1.40001
1.40001
1.40001
1.40001
1.40001
1.40001
1.40001
1.40001
1.40001
1.40001
1.40001
1.40001
1.40001
1.40001
1.40001
1.40001
1.40001
1.40001
1.40001
1.40001
1.40001
1.40001
1.40001
1.40001
1.40001
1.40001
1.40001
1.40001
1.40001
1.40001
1.40001
1.40001
1.40001
1.40001
1.40001
1.40001
1.40001
1.40001
1.40001
1.40001
1.40001
1.40001
1.40001
1.40001
1.40001
1.40001
1.40001
1.40001
1.40001
1.40001
1.40001
1.40001
1.40001
1.40001
1.40001
1.40001
1.40001
1.40001
1.40001
1.40001
1.40001
1.40001
1.40001
1.40001
1.40001
1.40001
1.40001
1.40001
1.40001
1.40001
1.40001
1.40001
1.40001
1.40001
1.40001
1.40001
1.40001
1.40001
1.40001
1.40001
1.40001
1.40001
1.40001
1.40001
1.40001
1.40001
1.40001
1.40001
1.40001
1.40001
1.40001
1.40001
1.40001
1.40001
1.40001
1.40001
1.40001
1.40001
1.40001
1.40001
1.40001
1.40001
1.40001
1.40001
1.40001
1.40001
1.40001
1.40001
1.40001
1.40001
1.40001
1.40001
1.40001
1.40001
1.40001
1.40001
1.40001
1.40001
1.40001
1.40001
1.40001
1.40001
1.40001
1.40001
1.40001
1.40001
1.40001
1.40001
1.40001
1.40001
1.40001
1.40001
1.40001
1.40001
1.40001
1.40001
1.40001
1.40001
1.40001
1.40001
1.40001
1.40001
1.40001
1.40001
1.40001
1.40001
1.40001
1.40001
1.40001
1.40001
1.40001
1.40001
1.40001
1.40001
1.40001
1.40001
1.40001
1.40001
1.40001
1.40001
1.40001
1.40001
1.40001
1.40001
1.40001
1.40001
1.40001
1.40001
1.40001
1.40001
1.40001
1.40001
1.40001
1.40001
1.40001
1.40001
1.40001
1.40001
1.40001
1.40001
1.40001
1.40001
1.40001
1.40001
1.40001
1.40001
1.40001
1.40001
1.40001
1.40001
1.40001
1.40001
1.40001
1.40001
1.40001
1.40001
1.40001
1.40001
1.40001
1.40001
1.40001
1.40001
1.40001
1.40001
1.40001
1.40001
1.40001
1.40001
1.40001
1.40001
1.40001
1.40001
1.40001
1.40001
1.40001
1.40001
1.40001
1.40001
1.40001
1.40001
1.40001
1.40001
1.40001
1.40001
1.40001
1.40001
1.40001
1.40001
1.40001
1.40001
1.40001
1.40001
1.40001
1.40001
1.40001
1.40001
1.40001
1.40001
1.40001
1.40001
1.40001
1.40001
1.40001
1.40001
1.40001
1.40001
1.40001
1.40001
1.40001
1.40001
1.40001
1.40001
1.40001
1.40001
1.40001
1.40001
1.40001
1.40001
1.40001
1.40001
1.40001
1.40001
1.40001
1.40001
1.40001
1.40001
1.40001
1.40001
1.40001
1.40001
1.40001
1.40001
1.40001
1.40001
1.40001
1.40001
1.40001
1.40001
1.40001
1.40001
1.40001
1.40001
1.40001
1.40001
1.40001
1.40001
1.40001
1.40001
1.40001
1.40001
1.40001
1.40001
1.40001
1.40001
1.40001
1.40001
1.40001
1.40001
1.40001
1.40001
1.40001
1.40001
1.40001
1.40001
1.40001
1.40001
1.40001
1.40001
1.40001
1.40001
1.40001
1.40001
1.40001
1.40001
1.40001
1.40001
1.40001
1.40001
1.40001
1.40001
1.40001
1.40001
1.40001
1.40001
1.40001
1.40001
1.40001
1.40001
1.40001
1.40001
1.40001
1.40001
1.40001
1.40001
1.40001
1.40001
1.40001
1.40001
1.40001
1.40001
1.40001
1.40001
1.40001
1.40001
1.40001
1.40001
1.40001
1.40001
1.40001
1.40001
1.40001
1.40001
1.40001
1.40001
1.40001
1.40001
1.40001
1.40001
1.40001
1.40001
1.40001
1.40001
1.40001
1.40001
1.40001
1.40001
1.40001
1.40001
1.40001
1.40001
1.40001
1.40001
1.40001
1.40001
1.40001
1.40001
1.40001
1.40001
1.40001
1.40001
1.40001
1.40001
1.40001
1.40001
1.40001
1.40001
1.40001
1.40001
1.40001
1.40001
1.40001
1.40001
1.40001
1.40001
1.40001
1.40001
1.40001
1.40001
1.40001
1.40001
1.40001
1.40001
1.40001
1.40001
1.40001
1.40001
1.40001
1.40001
1.40001
1.40001
1.40001
1.40001
1.40001
1.40001
1.40001
1.40001
1.40001
1.40001
1.40001
1.40001
1.40001
1.40001
1.40001
1.40001
1.40001
1.40001
1.40001
1.40001
1.40001
1.40001
1.40001
1.40001
1.40001
1.40001
1.40001
1.40001
1.40001
1.40001
1.40001
1.40001
1.40001
1.40001
1.40001
1.40001
1.40001
1.40001
1.40001
1.40001
1.40001
1.40001
1.40001
1.40001
1.40001
1.40001
1.40001
1.40001
1.40001
1.40001
1.40001
1.40001
1.40001
1.40001
1.40001
1.40001
1.40001
1.40001
1.40001
1.40001
1.40001
1.40001
1.40001
1.40001
1.40001
1.40001
1.40001
1.40001
1.40001
1.40001
1.40001
1.40001
1.40001
1.40001
1.40001
1.40001
1.40001
1.40001
1.40001
1.40001
1.40001
1.40001
1.40001
1.40001
1.40001
1.40001
1.40001
1.40001
1.40001
1.40001
1.40001
1.40001
1.40001
1.40001
1.40001
1.40001
1.40001
1.40001
1.40001
1.40001
1.40001
1.40001
1.39996
1.40001
1.40001
1.40001
1.40001
1.40001
1.40001
1.40001
1.40001
1.40001
1.40001
1.40001
1.40001
1.40001
1.40001
1.39742
1.39982
1.4
1.40001
1.40001
1.40001
1.40001
1.40001
1.40001
1.40001
1.40001
1.40001
1.40001
1.40001
1.40001
1.54203
1.40077
1.4
1.4
1.40001
1.40001
1.40001
1.40001
1.40001
1.40001
1.40001
1.40001
1.40001
1.40001
1.40001
2.88306
1.50224
1.40069
1.4
1.4
1.40001
1.40001
1.40001
1.40001
1.40001
1.40001
1.40001
1.40001
1.40001
1.40001
4.62384
2.3509
1.46566
1.40073
1.40001
1.40001
1.40001
1.40001
1.40001
1.40001
1.40001
1.40001
1.40001
1.40001
1.40001
4.52583
3.56535
1.90751
1.42655
1.40025
1.40001
1.40001
1.40001
1.40001
1.40001
1.40001
1.40001
1.40001
1.40001
1.40001
4.07656
3.99401
2.76199
1.61264
1.40734
1.40008
1.40001
1.40001
1.40001
1.40001
1.40001
1.40001
1.40001
1.40001
1.40001
3.26656
3.91598
3.51968
2.15181
1.46727
1.40114
1.40001
1.4
1.40001
1.40001
1.40001
1.40001
1.40001
1.40001
1.40001
2.2541
3.43093
3.59431
2.9068
1.83162
1.45152
1.40262
1.40007
1.40001
1.40001
1.40001
1.40001
1.40001
1.40001
1.40001
1.7526
2.80655
3.48811
3.29675
2.34444
1.55025
1.4063
1.40014
1.40001
1.40001
1.40001
1.40001
1.40001
1.40001
1.40001
1.39683
2.08269
2.9965
3.27119
2.99938
2.01488
1.46231
1.40155
1.40002
1.40001
1.40001
1.40001
1.40001
1.40001
1.40001
1.11386
1.7159
2.41118
3.10268
3.0989
2.58627
1.6902
1.41496
1.40021
1.40001
1.40001
1.40001
1.40001
1.40001
1.40001
0.879941
1.30192
1.9083
2.69613
3.06075
2.9506
2.16635
1.51071
1.40356
1.40004
1.40001
1.40001
1.40001
1.40001
1.40001
0.844946
1.08448
1.51832
2.19701
2.86456
2.94558
2.60668
1.77622
1.42604
1.40045
1.40001
1.40001
1.40001
1.40001
1.40001
0.870888
1.04831
1.26238
1.76351
2.48045
2.88828
2.81712
2.19626
1.54109
1.40551
1.40007
1.40001
1.40001
1.40001
1.40001
0.866495
1.01861
1.1491
1.48754
2.05421
2.6881
2.80888
2.54487
1.80548
1.43446
1.40069
1.40001
1.40001
1.40001
1.40001
0.827719
0.952502
1.06126
1.34707
1.74283
2.34159
2.74439
2.70322
2.1785
1.55082
1.40652
1.40009
1.40001
1.40001
1.40001
0.780344
0.869683
0.959749
1.20989
1.51846
2.02449
2.56284
2.69493
2.46903
1.79924
1.43687
1.40081
1.40001
1.40001
1.40001
0.716859
0.813302
0.951771
1.13847
1.30772
1.70706
2.27926
2.64023
2.59732
2.1283
1.54746
1.40671
1.40009
1.40001
1.40001
0.668183
0.764937
0.942834
1.08758
1.19916
1.48653
1.94294
2.47041
2.58836
2.38063
1.76787
1.43542
1.40083
1.40001
1.40001
0.649534
0.734411
0.894686
1.0074
1.12313
1.38484
1.70395
2.20261
2.53574
2.49817
2.06513
1.53152
1.40577
1.40008
1.40001
0.648239
0.730542
0.843493
0.911555
1.02605
1.27889
1.51426
1.94059
2.40031
2.49217
2.28712
1.72502
1.43138
1.40076
1.40001
0.65701
0.717334
0.806468
0.860642
0.999835
1.1919
1.34795
1.69553
2.17467
2.45419
2.41137
1.99404
1.51062
1.40458
1.40007
0.677192
0.677432
0.760611
0.845413
0.992361
1.12254
1.23756
1.51742
1.91965
2.3433
2.40787
2.20007
1.67699
1.42502
1.40059
0.789666
0.681184
0.720676
0.810951
0.957179
1.04277
1.14691
1.40757
1.71125
2.14862
2.38059
2.32721
1.91285
1.48978
1.4036
1.0477
0.739976
0.732606
0.782977
0.907266
0.96671
1.07069
1.30953
1.54568
1.93485
2.29805
2.32659
2.1173
1.62682
1.41944
1.24551
0.909324
0.754937
0.768162
0.865156
0.915464
1.03172
1.23354
1.39855
1.72226
2.1376
2.31035
2.24248
1.83822
1.4718
1.31363
1.1091
0.810955
0.763943
0.808124
0.881275
1.02482
1.16669
1.28761
1.571
1.95259
2.25953
2.25469
2.02171
1.59079
1.32809
1.26618
1.03864
0.816218
0.810299
0.844798
0.979997
1.06351
1.16195
1.3972
1.67291
2.04688
2.22298
2.16808
1.94218
1.23055
1.06201
0.870501
0.786963
0.783048
0.776842
0.733449
0.695284
0.66075
0.615766
0.600483
0.588197
0.601219
0.653681
0.871241
1.16517
1.22332
1.30559
1.35579
1.34384
0.9628
0.851317
0.726953
0.679319
0.698041
0.687563
0.641412
0.627185
0.606046
0.585053
0.560142
0.565515
0.623086
0.888824
1.20214
1.31254
1.27235
1.29081
1.34308
1.34778
0.739463
0.686645
0.6264
0.626652
0.628188
0.5982
0.556185
0.555681
0.553305
0.537233
0.539308
0.612416
0.895726
1.21237
1.2869
1.33084
1.30708
1.29826
1.32818
1.3467
0.553838
0.547547
0.553973
0.565127
0.557421
0.527954
0.50819
0.509209
0.503075
0.518314
0.636583
0.935562
1.2308
1.27554
1.28264
1.33049
1.32844
1.30686
1.31275
1.33648
0.422321
0.444597