/*--------------------------------*- C++ -*----------------------------------*\
  =========                 |
  \\      /  F ield         | OpenFOAM: The Open Source CFD Toolbox
   \\    /   O peration     | Website:  https://openfoam.org
    \\  /    A nd           | Version:  7
     \\/     M anipulation  |
\*---------------------------------------------------------------------------*/
FoamFile
{
    version     2.0;
    format      ascii;
    class       volVectorField;
    location    "5.8";
    object      U;
}
// * * * * * * * * * * * * * * * * * * * * * * * * * * * * * * * * * * * * * //

dimensions      [0 1 -1 0 0 0 0];

internalField   nonuniform List<vector> 
3700
(
(1.31164 -0.390325 0)
(1.34807 -0.45769 0)
(1.41189 -0.340537 0)
(1.41657 -0.248253 0)
(1.41947 -0.114425 0)
(1.4744 -0.133913 0)
(1.5322 -0.218441 0)
(1.57906 -0.435916 0)
(1.50218 -0.44485 0)
(1.42202 -0.309247 0)
(1.4387 -0.0925148 0)
(1.55238 -0.0236346 0)
(1.61754 -0.0896668 0)
(1.6849 -0.193164 0)
(1.68273 -0.210987 0)
(1.66095 -0.165812 0)
(1.69042 -0.101933 0)
(1.75472 -0.129754 0)
(1.82402 -0.219242 0)
(1.89445 -0.294964 0)
(1.81235 -1.29422 0)
(1.82039 -1.10157 0)
(1.9371 -1.19669 0)
(1.98722 -1.30996 0)
(1.8818 -1.20065 0)
(1.84863 -1.29363 0)
(1.91472 -1.63606 0)
(1.89288 -2.03591 0)
(1.78662 -1.92428 0)
(1.68481 -1.49782 0)
(1.72487 -1.19599 0)
(1.89343 -0.992394 0)
(2.004 -0.99209 0)
(2.13284 -1.11258 0)
(2.13081 -1.11335 0)
(2.1133 -1.0367 0)
(2.13401 -0.980393 0)
(2.19689 -1.03879 0)
(2.27585 -1.15891 0)
(2.32789 -1.29813 0)
(1.82136 -1.31795 0)
(1.95861 -1.14946 0)
(2.16239 -1.38473 0)
(2.30571 -1.74378 0)
(2.12483 -2.1342 0)
(2.01207 -2.2822 0)
(1.99234 -2.32027 0)
(1.98827 -2.25502 0)
(2.01569 -2.19481 0)
(2.09303 -2.0667 0)
(2.13294 -2.08436 0)
(2.22942 -1.96381 0)
(2.30282 -1.90792 0)
(2.38723 -1.85591 0)
(2.48183 -1.80193 0)
(2.59161 -1.72744 0)
(2.63742 -1.68042 0)
(2.64192 -1.64316 0)
(2.62695 -1.63472 0)
(2.5857 -1.61265 0)
(1.82318 -1.33361 0)
(1.97138 -1.22169 0)
(2.0679 -1.49371 0)
(2.08396 -1.89514 0)
(1.97661 -2.18737 0)
(1.9614 -2.29861 0)
(1.99313 -2.30808 0)
(2.06531 -2.15876 0)
(2.10213 -2.11939 0)
(2.26028 -1.96034 0)
(2.2453 -2.03676 0)
(2.33439 -1.91263 0)
(2.36632 -1.84192 0)
(2.41665 -1.7543 0)
(2.49188 -1.67 0)
(2.62611 -1.54382 0)
(2.66878 -1.42597 0)
(2.76897 -1.29873 0)
(2.82881 -1.22706 0)
(2.7913 -1.27842 0)
(1.70325 -1.30316 0)
(1.80639 -1.3076 0)
(1.83899 -1.69904 0)
(1.74852 -2.07468 0)
(1.68592 -2.27268 0)
(1.75841 -2.26478 0)
(1.95092 -2.20357 0)
(2.14362 -1.93566 0)
(2.22438 -1.98268 0)
(2.37865 -1.84706 0)
(2.3858 -1.82555 0)
(2.47154 -1.7088 0)
(2.52044 -1.68084 0)
(2.50826 -1.66798 0)
(2.53252 -1.57604 0)
(2.58167 -1.49388 0)
(2.60358 -1.36048 0)
(2.71247 -1.28118 0)
(2.77345 -1.07377 0)
(2.86248 -0.889991 0)
(1.56622 -1.24061 0)
(1.65744 -1.30747 0)
(1.6589 -1.76233 0)
(1.57025 -2.16317 0)
(1.55912 -2.26925 0)
(1.76627 -2.16714 0)
(1.90271 -2.10732 0)
(2.07594 -1.80908 0)
(2.1857 -1.78039 0)
(2.40471 -1.72463 0)
(2.51844 -1.55859 0)
(2.60511 -1.50211 0)
(2.64611 -1.4101 0)
(2.65418 -1.40517 0)
(2.68393 -1.32576 0)
(2.66488 -1.321 0)
(2.65044 -1.1962 0)
(2.67006 -1.16765 0)
(2.71405 -1.10818 0)
(2.78935 -0.862461 0)
(1.4825 -1.15113 0)
(1.52935 -1.27641 0)
(1.5407 -1.79129 0)
(1.46705 -2.17239 0)
(1.63964 -2.23806 0)
(1.83719 -2.13998 0)
(1.93639 -2.0693 0)
(2.05077 -1.80965 0)
(2.10744 -1.75762 0)
(2.29839 -1.66056 0)
(2.42571 -1.45126 0)
(2.60615 -1.39335 0)
(2.67616 -1.13657 0)
(2.74507 -1.07016 0)
(2.76425 -0.915464 0)
(2.75464 -0.910479 0)
(2.75086 -0.850297 0)
(2.73219 -0.830109 0)
(2.72065 -0.902367 0)
(2.72321 -0.719757 0)
(1.4419 -1.08253 0)
(1.46255 -1.27687 0)
(1.50792 -1.80967 0)
(1.56711 -2.17344 0)
(1.83093 -2.23168 0)
(2.07294 -2.08459 0)
(2.14421 -1.94198 0)
(2.18537 -1.77907 0)
(2.20337 -1.7222 0)
(2.27175 -1.66424 0)
(2.39353 -1.44376 0)
(2.5262 -1.35641 0)
(2.58314 -1.11184 0)
(2.72134 -1.02395 0)
(2.7427 -0.763523 0)
(2.78554 -0.632287 0)
(2.78293 -0.503849 0)
(2.77361 -0.407358 0)
(2.73019 -0.543935 0)
(2.69871 -0.480268 0)
(1.41548 -1.06538 0)
(1.44476 -1.34375 0)
(1.56153 -1.9416 0)
(1.75287 -2.25387 0)
(2.21691 -2.13462 0)
(2.44421 -1.99549 0)
(2.42412 -1.64045 0)
(2.44815 -1.52545 0)
(2.49196 -1.5048 0)
(2.51041 -1.47522 0)
(2.52973 -1.35332 0)
(2.57672 -1.20305 0)
(2.58547 -1.03264 0)
(2.66055 -0.952837 0)
(2.68126 -0.746855 0)
(2.73494 -0.608047 0)
(2.75538 -0.42526 0)
(2.7551 -0.209957 0)
(2.71514 -0.187353 0)
(2.67788 -0.162518 0)
(1.38629 -1.1129 0)
(1.47956 -1.61158 0)
(1.76085 -2.2387 0)
(1.94941 -2.40912 0)
(2.32175 -2.01839 0)
(2.43921 -1.88937 0)
(2.59474 -1.4542 0)
(2.69294 -1.33008 0)
(2.78874 -1.19372 0)
(2.78144 -0.978012 0)
(2.77025 -0.966271 0)
(2.75292 -0.76982 0)
(2.71117 -0.71105 0)
(2.71186 -0.62045 0)
(2.69554 -0.515415 0)
(2.68606 -0.439291 0)
(2.69558 -0.355345 0)
(2.68538 -0.200239 0)
(2.65524 -0.0198769 0)
(2.619 0.0515385 0)
(1.35888 -1.24807 0)
(1.63243 -2.04721 0)
(1.84016 -2.38002 0)
(1.94487 -2.30778 0)
(2.15714 -1.89459 0)
(2.21863 -1.75772 0)
(2.40695 -1.40172 0)
(2.49645 -1.27818 0)
(2.61513 -1.18643 0)
(2.6803 -0.797032 0)
(2.75079 -0.616004 0)
(2.73271 -0.360405 0)
(2.72599 -0.263054 0)
(2.70784 -0.140827 0)
(2.69112 -0.0798214 0)
(2.66164 -0.0556833 0)
(2.63433 -0.0558081 0)
(2.62294 -0.0535105 0)
(2.55795 0.112573 0)
(2.57817 0.111229 0)
(1.37979 -1.53102 0)
(1.70798 -2.37382 0)
(1.78992 -2.30631 0)
(1.9133 -2.0509 0)
(2.08891 -1.77657 0)
(2.17038 -1.55533 0)
(2.28954 -1.35013 0)
(2.38126 -1.16802 0)
(2.43386 -1.02418 0)
(2.50065 -0.834704 0)
(2.60058 -0.64318 0)
(2.62106 -0.368325 0)
(2.6485 -0.171992 0)
(2.63798 0.0212754 0)
(2.59347 0.204551 0)
(2.56346 0.278067 0)
(2.52037 0.341844 0)
(2.51454 0.250806 0)
(2.45173 0.322561 0)
(2.47572 0.27586 0)
(1.40491 -1.74457 0)
(1.65566 -2.49273 0)
(1.77876 -2.0963 0)
(1.90938 -1.93199 0)
(2.16284 -1.68437 0)
(2.33496 -1.16936 0)
(2.34985 -1.18901 0)
(2.45218 -0.968108 0)
(2.50529 -0.657931 0)
(2.52955 -0.558198 0)
(2.56612 -0.358781 0)
(2.56071 -0.16986 0)
(2.55372 -0.015981 0)
(2.54075 0.120012 0)
(2.48896 0.289619 0)
(2.47572 0.373591 0)
(2.39292 0.528133 0)
(2.34422 0.562631 0)
(2.30346 0.58881 0)
(2.32137 0.52868 0)
(1.39327 -1.81628 0)
(1.56514 -2.34504 0)
(1.88356 -1.81314 0)
(2.07767 -1.57108 0)
(2.25752 -1.17435 0)
(2.40274 -0.755856 0)
(2.51887 -0.552981 0)
(2.60001 -0.296361 0)
(2.56923 -0.0624428 0)
(2.563 0.0360168 0)
(2.5426 0.189943 0)
(2.50072 0.315226 0)
(2.45161 0.409 0)
(2.40579 0.476867 0)
(2.35493 0.527117 0)
(2.33189 0.54609 0)
(2.26785 0.621351 0)
(2.20948 0.70479 0)
(2.15501 0.785536 0)
(2.13179 0.801629 0)
(1.34364 -1.79431 0)
(1.52035 -2.05129 0)
(1.93485 -1.65549 0)
(2.06052 -0.931451 0)
(2.38541 -0.395156 0)
(2.49284 -0.484518 0)
(2.56047 -0.244998 0)
(2.52283 0.0668273 0)
(2.49553 0.132843 0)
(2.47048 0.308109 0)
(2.4278 0.474429 0)
(2.33917 0.63917 0)
(2.27271 0.734601 0)
(2.19935 0.820653 0)
(2.15438 0.833553 0)
(2.12206 0.834359 0)
(2.08406 0.86616 0)
(2.07311 0.87543 0)
(2.0365 0.922885 0)
(2.05743 0.953822 0)
(1.18572 -1.44658 0)
(1.55702 -1.85353 0)
(2.22691 -1.29709 0)
(2.39726 -0.0734851 0)
(2.44326 -0.0294743 0)
(2.42424 -0.243078 0)
(2.42434 -0.019669 0)
(2.38558 0.208205 0)
(2.33553 0.372659 0)
(2.31208 0.527571 0)
(2.23499 0.691781 0)
(2.15254 0.820238 0)
(2.08426 0.902201 0)
(2.01861 0.973246 0)
(1.97553 0.986357 0)
(1.95015 0.99866 0)
(1.95472 1.01759 0)
(1.97053 0.994405 0)
(1.99612 0.993594 0)
(2.07126 0.977065 0)
(1.11975 -0.651787 0)
(1.48017 -1.12882 0)
(2.17108 -0.298824 0)
(2.34837 -0.023495 0)
(2.37261 0.0455648 0)
(2.36161 0.317497 0)
(2.26378 0.563269 0)
(2.1946 0.676013 0)
(2.13388 0.765824 0)
(2.08046 0.897915 0)
(1.97955 1.00747 0)
(1.92361 1.05876 0)
(1.88722 1.07798 0)
(1.86794 1.08877 0)
(1.86964 1.05716 0)
(1.89653 1.04845 0)
(1.96232 1.02092 0)
(2.16411 0.90417 0)
(2.38187 0.793532 0)
(2.77968 0.441299 0)
(0.905167 -0.0814069 0)
(1.88699 0.593978 0)
(2.26059 0.446449 0)
(2.22954 0.576708 0)
(2.21149 0.61626 0)
(2.14371 0.751329 0)
(2.0423 0.888839 0)
(1.95282 0.982409 0)
(1.90451 1.04073 0)
(1.84803 1.12918 0)
(1.79452 1.15986 0)
(1.79492 1.15228 0)
(1.81021 1.13086 0)
(1.84536 1.08865 0)
(2.03655 0.95323 0)
(2.2595 0.829134 0)
(2.66545 0.504113 0)
(3.03634 0.0924208 0)
(3.05541 -0.0236734 0)
(3.00404 -0.00466444 0)
(1.01727 0.030274 0)
(1.92554 0.758043 0)
(2.11688 0.78882 0)
(2.01598 0.92608 0)
(1.96695 0.989733 0)
(1.86091 1.09769 0)
(1.78336 1.14213 0)
(1.75707 1.14619 0)
(1.75658 1.1626 0)
(1.73769 1.20497 0)
(1.7258 1.19522 0)
(1.87615 1.0631 0)
(2.10126 0.879137 0)
(2.49605 0.577273 0)
(2.98047 0.140062 0)
(3.07362 -0.0287334 0)
(3.00829 -0.00774226 0)
(3.00295 -0.00383187 0)
(3.00123 -0.0021857 0)
(3.00008 -0.000483763 0)
(1.16509 0.766808 0)
(1.82841 1.15214 0)
(1.84461 1.15227 0)
(1.74066 1.19991 0)
(1.71534 1.20444 0)
(1.66081 1.24448 0)
(1.65257 1.21697 0)
(1.72114 1.16616 0)
(1.74913 1.23955 0)
(1.78796 1.15145 0)
(2.27919 0.742487 0)
(2.86525 0.204611 0)
(3.09836 -0.0303597 0)
(3.02087 -0.0127406 0)
(3.00479 -0.00564828 0)
(3.0019 -0.00310144 0)
(3.00004 -0.00059069 0)
(2.99997 -2.19501e-05 0)
(2.99999 1.43496e-05 0)
(3 5.89692e-06 0)
(1.58036 1.25546 0)
(1.58607 1.25967 0)
(1.59658 1.26507 0)
(1.60197 1.26824 0)
(1.60833 1.26197 0)
(1.59587 1.26621 0)
(1.87185 1.16885 0)
(2.94701 0.398876 0)
(3.37466 -0.64422 0)
(3 6.33113e-11 0)
(3 -7.83627e-11 0)
(3 8.0005e-11 0)
(3 4.62128e-15 0)
(3 -4.21163e-13 0)
(3 -1.14822e-14 0)
(3 2.0297e-14 0)
(3 -7.50793e-15 0)
(3 2.46416e-15 0)
(3 3.35028e-15 0)
(3 2.86747e-15 0)
(1.57591 1.23966 0)
(1.59154 1.25256 0)
(1.60539 1.26306 0)
(1.61058 1.2713 0)
(1.64384 1.25433 0)
(1.74377 1.19922 0)
(2.25913 0.732322 0)
(2.99669 0.0134769 0)
(3 5.36723e-08 0)
(3 -2.93734e-11 0)
(3 -8.06905e-13 0)
(3 -2.26528e-14 0)
(3 -8.3416e-17 0)
(3 3.15218e-15 0)
(3 3.50521e-15 0)
(3 4.49273e-15 0)
(3 4.16056e-15 0)
(3 1.88156e-15 0)
(3 2.13674e-15 0)
(3 2.93434e-15 0)
(1.57961 1.24879 0)
(1.60183 1.25552 0)
(1.61512 1.25977 0)
(1.61163 1.26802 0)
(1.76235 1.19125 0)
(2.25164 0.788763 0)
(3.00497 -0.0104056 0)
(2.99999 -0.000268221 0)
(3 5.92071e-07 0)
(3 6.21287e-11 0)
(3 -2.86413e-13 0)
(3 6.36131e-15 0)
(3 -6.82094e-16 0)
(3 2.53666e-15 0)
(3 4.0616e-15 0)
(3 3.94713e-15 0)
(3 2.39184e-15 0)
(3 1.60153e-15 0)
(3 2.40465e-15 0)
(3 3.64385e-15 0)
(1.58153 1.25381 0)
(1.60092 1.25895 0)
(1.62285 1.26599 0)
(1.60261 1.29834 0)
(1.8835 1.07622 0)
(2.75959 0.217521 0)
(3.00408 0.000137886 0)
(2.99993 5.55393e-05 0)
(3 -7.78045e-07 0)
(3 8.47402e-10 0)
(3 4.38959e-14 0)
(3 -6.17549e-15 0)
(3 -2.90702e-16 0)
(3 2.75425e-15 0)
(3 3.41778e-15 0)
(3 2.47305e-15 0)
(3 2.11217e-15 0)
(3 1.70394e-15 0)
(3 1.97732e-15 0)
(3 3.11804e-15 0)
(1.5828 1.26883 0)
(1.59637 1.27266 0)
(1.62656 1.26822 0)
(1.61834 1.28525 0)
(2.30264 0.679515 0)
(3.0224 -0.0198369 0)
(2.99972 9.48183e-05 0)
(3 -4.03488e-06 0)
(3 8.01289e-08 0)
(3 -8.78096e-10 0)
(3 2.63873e-12 0)
(3 -1.40834e-14 0)
(3 9.50303e-16 0)
(3 2.51802e-15 0)
(3 2.39768e-15 0)
(3 1.88294e-15 0)
(3 1.6617e-15 0)
(3 2.25909e-15 0)
(3 1.55129e-15 0)
(3 2.20452e-15 0)
(1.58404 1.28571 0)
(1.58848 1.28947 0)
(1.64663 1.25867 0)
(1.85233 1.10172 0)
(2.71235 0.237883 0)
(3 -5.85916e-10 0)
(3 1.36921e-08 0)
(3 -1.23172e-08 0)
(3 5.2309e-10 0)
(3 2.12993e-12 0)
(3 -1.18343e-13 0)
(3 3.22057e-15 0)
(3 9.29413e-16 0)
(3 9.62793e-16 0)
(3 1.51945e-15 0)
(3 1.89203e-15 0)
(3 2.26579e-15 0)
(3 2.31453e-15 0)
(3 1.19075e-15 0)
(3 1.17355e-15 0)
(1.58613 1.29936 0)
(1.55292 1.29801 0)
(1.67619 1.2189 0)
(2.15399 0.817297 0)
(3.0233 -0.0204691 0)
(3 -2.98926e-12 0)
(3 -1.46278e-12 0)
(3 1.28291e-12 0)
(3 -1.28539e-12 0)
(3 3.38213e-14 0)
(3 5.97072e-16 0)
(3 5.96433e-16 0)
(3 9.54283e-16 0)
(3 -6.77145e-16 0)
(3 6.62991e-16 0)
(3 1.87344e-15 0)
(3 2.65795e-15 0)
(3 1.91444e-15 0)
(3 9.43745e-16 0)
(3 9.95478e-16 0)
(1.59306 1.32869 0)
(1.50179 1.33279 0)
(1.72375 1.19233 0)
(2.38406 0.553717 0)
(3 -2.3484e-08 0)
(3 2.54997e-11 0)
(3 -7.78133e-14 0)
(3 -3.24316e-15 0)
(3 -1.27068e-15 0)
(3 -4.64302e-16 0)
(3 -4.14854e-16 0)
(3 6.90015e-16 0)
(3 8.8213e-16 0)
(3 -1.02938e-15 0)
(3 4.92112e-16 0)
(3 1.07998e-15 0)
(3 1.68739e-15 0)
(3 1.53138e-15 0)
(3 8.95108e-16 0)
(3 9.59183e-16 0)
(1.58396 1.30003 0)
(1.47392 1.33591 0)
(2.01351 1.02298 0)
(2.90013 0.101135 0)
(3 -5.1747e-09 0)
(3 3.4127e-11 0)
(3 -1.38151e-13 0)
(3 -4.9668e-16 0)
(3 -1.5108e-16 0)
(3 9.32918e-17 0)
(3 4.8515e-16 0)
(3 5.6643e-16 0)
(3 9.6636e-16 0)
(3 5.60462e-16 0)
(3 1.03144e-15 0)
(3 1.4399e-15 0)
(3 9.11835e-16 0)
(3 8.18803e-16 0)
(3 9.18652e-16 0)
(3 1.8955e-16 0)
(1.59847 1.29296 0)
(1.46901 1.395 0)
(2.13923 0.851975 0)
(3.01059 -0.00847087 0)
(3 2.23929e-08 0)
(3 -4.77238e-11 0)
(3 1.26159e-13 0)
(3 -2.20804e-15 0)
(3 -9.62088e-16 0)
(3 -9.30197e-17 0)
(3 1.19041e-15 0)
(3 1.67197e-15 0)
(3 2.12209e-15 0)
(3 2.11676e-15 0)
(3 2.04496e-15 0)
(3 2.02616e-15 0)
(3 2.5501e-15 0)
(3 2.49468e-15 0)
(3 9.87265e-16 0)
(3 4.73697e-16 0)
(1.61811 1.28155 0)
(1.55748 1.32374 0)
(2.40471 0.554082 0)
(3 -3.65168e-12 0)
(3 -1.51383e-11 0)
(3 2.96253e-13 0)
(3 -8.26221e-15 0)
(3 -2.70009e-15 0)
(3 -1.94406e-15 0)
(3 -1.64925e-15 0)
(3 -1.07643e-15 0)
(3 2.10308e-16 0)
(3 1.58981e-15 0)
(3 1.37235e-15 0)
(3 2.24338e-15 0)
(3 2.75302e-15 0)
(3 4.25052e-15 0)
(3 5.48273e-15 0)
(3 4.84759e-15 0)
(3 2.21952e-15 0)
(1.63684 1.26485 0)
(1.65727 1.23196 0)
(2.65296 0.287114 0)
(3 2.03576e-12 0)
(3 -1.91849e-13 0)
(3 -1.04906e-14 0)
(3 -6.07957e-15 0)
(3 -6.08118e-15 0)
(3 -5.85033e-15 0)
(3 -4.36002e-15 0)
(3 -3.18102e-15 0)
(3 -2.81104e-15 0)
(3 -2.49583e-15 0)
(3 -1.4354e-15 0)
(3 2.73796e-16 0)
(3 1.59074e-15 0)
(3 3.57737e-15 0)
(3 6.41674e-15 0)
(3 7.4197e-15 0)
(3 7.09748e-15 0)
(1.65347 1.23948 0)
(1.80178 1.10108 0)
(2.86737 0.0949292 0)
(3 -2.20729e-14 0)
(3 -6.96723e-15 0)
(3 -7.77827e-15 0)
(3 -7.50649e-15 0)
(3 -7.3516e-15 0)
(3 -8.23433e-15 0)
(3 -6.76245e-15 0)
(3 -4.33733e-15 0)
(3 -3.43262e-15 0)
(3 -3.26325e-15 0)
(3 -3.02536e-15 0)
(3 -2.02687e-15 0)
(3 -8.20493e-16 0)
(3 5.43494e-16 0)
(3 1.1832e-15 0)
(3 2.62397e-15 0)
(3 4.34164e-15 0)
(1.67234 1.20306 0)
(1.9024 0.971003 0)
(2.99204 0.00453702 0)
(3 -7.98349e-15 0)
(3 -8.76114e-15 0)
(3 -8.9051e-15 0)
(3 -8.55303e-15 0)
(3 -7.29703e-15 0)
(3 -7.32528e-15 0)
(3 -7.5255e-15 0)
(3 -7.3075e-15 0)
(3 -6.47657e-15 0)
(3 -5.02008e-15 0)
(3 -3.70159e-15 0)
(3 -3.17876e-15 0)
(3 -1.25959e-15 0)
(3 2.82945e-16 0)
(3 7.62923e-16 0)
(3 1.93146e-15 0)
(3 2.95377e-15 0)
(1.73388 1.16628 0)
(2.07129 0.82146 0)
(3 -8.09268e-15 0)
(3 -8.32061e-15 0)
(3 -8.42236e-15 0)
(3 -8.41155e-15 0)
(3 -7.39884e-15 0)
(3 -5.84321e-15 0)
(3 -4.64684e-15 0)
(3 -4.71892e-15 0)
(3 -5.57842e-15 0)
(3 -5.71029e-15 0)
(3 -5.10972e-15 0)
(3 -4.32974e-15 0)
(3 -3.49309e-15 0)
(3 -3.44675e-15 0)
(3 -2.84807e-15 0)
(3 -1.59967e-15 0)
(3 -1.9417e-16 0)
(3 2.16149e-16 0)
(1.73864 1.09982 0)
(2.21449 0.659536 0)
(3 -5.26253e-15 0)
(3 -6.19458e-15 0)
(3 -6.02772e-15 0)
(3 -5.44373e-15 0)
(3 -4.67566e-15 0)
(3 -4.5552e-15 0)
(3 -3.62207e-15 0)
(3 -3.67903e-15 0)
(3 -3.85762e-15 0)
(3 -3.60882e-15 0)
(3 -3.78565e-15 0)
(3 -4.93017e-15 0)
(3 -4.75632e-15 0)
(3 -4.69708e-15 0)
(3 -4.71292e-15 0)
(3 -3.22285e-15 0)
(3 -2.26094e-15 0)
(3 -7.63236e-16 0)
(1.81013 1.01383 0)
(2.42032 0.459035 0)
(3 -4.24138e-15 0)
(3 -4.51919e-15 0)
(3 -4.51391e-15 0)
(3 -4.02563e-15 0)
(3 -4.05627e-15 0)
(3 -4.61473e-15 0)
(3 -5.2428e-15 0)
(3 -5.99364e-15 0)
(3 -6.74223e-15 0)
(3 -6.77486e-15 0)
(3 -6.55109e-15 0)
(3 -5.76248e-15 0)
(3 -5.01543e-15 0)
(3 -4.06721e-15 0)
(3 -4.2489e-15 0)
(3 -4.62271e-15 0)
(3 -4.69213e-15 0)
(3 -4.15484e-15 0)
(1.95679 0.885373 0)
(2.71312 0.211027 0)
(3 -5.84508e-16 0)
(3 -2.8158e-16 0)
(3 -1.06249e-15 0)
(3 -2.36701e-15 0)
(3 -3.22285e-15 0)
(3 -4.17205e-15 0)
(3 -4.99775e-15 0)
(3 -5.46386e-15 0)
(3 -5.67191e-15 0)
(3 -5.49597e-15 0)
(3 -4.98779e-15 0)
(3 -4.51442e-15 0)
(3 -4.02901e-15 0)
(3 -3.28259e-15 0)
(3 -2.57203e-15 0)
(3 -2.1593e-15 0)
(3 -1.9217e-15 0)
(3 -1.72293e-15 0)
(2.10048 0.638841 0)
(2.99171 0.000271138 0)
(3 4.69173e-17 0)
(3 -8.10626e-16 0)
(3 -1.21137e-15 0)
(3 -2.01823e-15 0)
(3 -2.71209e-15 0)
(3 -2.79376e-15 0)
(3 -2.42269e-15 0)
(3 -2.5982e-15 0)
(3 -2.86368e-15 0)
(3 -3.36578e-15 0)
(3 -4.0569e-15 0)
(3 -4.57403e-15 0)
(3 -4.37986e-15 0)
(3 -4.06561e-15 0)
(3 -3.73145e-15 0)
(3 -3.5781e-15 0)
(3 -3.51447e-15 0)
(3 -3.60663e-15 0)
(1.99467 0.377633 0)
(2.99994 -8.31849e-06 0)
(3 2.97947e-16 0)
(3 1.83643e-16 0)
(3 3.37801e-16 0)
(3 1.75468e-16 0)
(3 8.58641e-17 0)
(3 4.14907e-16 0)
(3 5.55279e-16 0)
(3 3.3381e-16 0)
(3 -5.6398e-16 0)
(3 -1.57905e-15 0)
(3 -2.24378e-15 0)
(3 -2.55241e-15 0)
(3 -2.84887e-15 0)
(3 -3.3164e-15 0)
(3 -3.66313e-15 0)
(3 -4.18255e-15 0)
(3 -4.30155e-15 0)
(3 -4.8856e-15 0)
(1.99434 -0.37816 0)
(2.99994 8.28334e-06 0)
(3 8.87337e-16 0)
(3 9.38948e-16 0)
(3 8.54679e-16 0)
(3 1.26222e-15 0)
(3 1.74309e-15 0)
(3 1.98463e-15 0)
(3 1.68981e-15 0)
(3 1.09597e-15 0)
(3 8.08328e-16 0)
(3 8.86672e-16 0)
(3 7.239e-16 0)
(3 6.27002e-16 0)
(3 -1.49886e-17 0)
(3 -7.36334e-16 0)
(3 -1.29281e-15 0)
(3 -1.83586e-15 0)
(3 -2.14464e-15 0)
(3 -2.19921e-15 0)
(2.09957 -0.637728 0)
(2.99192 -0.000271563 0)
(3 1.89696e-15 0)
(3 1.40655e-15 0)
(3 1.27917e-15 0)
(3 1.01072e-15 0)
(3 6.07656e-16 0)
(3 -1.03564e-16 0)
(3 -6.38553e-16 0)
(3 -9.25039e-16 0)
(3 -1.01919e-15 0)
(3 -7.19266e-16 0)
(3 -6.71353e-16 0)
(3 -1.24105e-15 0)
(3 -2.51231e-15 0)
(3 -2.82222e-15 0)
(3 -3.14115e-15 0)
(3 -3.40187e-15 0)
(3 -3.51963e-15 0)
(3 -3.67412e-15 0)
(1.95976 -0.884546 0)
(2.71631 -0.208939 0)
(3 5.09426e-15 0)
(3 4.15401e-15 0)
(3 3.67666e-15 0)
(3 1.90419e-15 0)
(3 7.64062e-16 0)
(3 -5.20143e-16 0)
(3 -1.35359e-15 0)
(3 -1.94446e-15 0)
(3 -2.14977e-15 0)
(3 -2.22461e-15 0)
(3 -2.83519e-15 0)
(3 -3.79157e-15 0)
(3 -4.08035e-15 0)
(3 -4.19201e-15 0)
(3 -4.08759e-15 0)
(3 -3.99733e-15 0)
(3 -3.75858e-15 0)
(3 -3.39969e-15 0)
(1.81295 -1.0144 0)
(2.42098 -0.458829 0)
(3 4.71769e-15 0)
(3 4.98336e-15 0)
(3 4.8788e-15 0)
(3 3.19949e-15 0)
(3 1.62771e-15 0)
(3 6.95178e-16 0)
(3 5.57586e-16 0)
(3 6.40547e-16 0)
(3 6.24599e-16 0)
(3 3.347e-16 0)
(3 1.78331e-16 0)
(3 1.91758e-16 0)
(3 6.70053e-16 0)
(3 8.37951e-16 0)
(3 9.15607e-16 0)
(3 1.25077e-15 0)
(3 1.46711e-15 0)
(3 1.29065e-15 0)
(1.73436 -1.10188 0)
(2.20979 -0.66176 0)
(3 2.58833e-15 0)
(3 3.41314e-15 0)
(3 1.90207e-15 0)
(3 9.87887e-16 0)
(3 5.82347e-16 0)
(3 8.63018e-17 0)
(3 -2.6225e-16 0)
(3 -9.27951e-17 0)
(3 4.75115e-16 0)
(3 4.92326e-16 0)
(3 1.77599e-16 0)
(3 -1.91991e-16 0)
(3 -3.17261e-16 0)
(3 -6.51948e-16 0)
(3 -5.80379e-16 0)
(3 -5.50951e-16 0)
(3 -3.29757e-16 0)
(3 -7.74646e-17 0)
(1.73295 -1.16457 0)
(2.0691 -0.823379 0)
(3 1.29854e-15 0)
(3 1.52514e-15 0)
(3 1.14848e-15 0)
(3 1.60883e-16 0)
(3 2.60715e-17 0)
(3 -5.29205e-16 0)
(3 -1.45137e-15 0)
(3 -9.55617e-16 0)
(3 -6.94715e-16 0)
(3 -1.26247e-15 0)
(3 -1.43778e-15 0)
(3 -1.40108e-15 0)
(3 -1.22609e-15 0)
(3 -6.78188e-16 0)
(3 -7.45339e-16 0)
(3 -4.27565e-16 0)
(3 -3.23469e-16 0)
(3 -2.20563e-17 0)
(1.67416 -1.20246 0)
(1.90762 -0.969255 0)
(2.99533 -0.00234184 0)
(3 -9.17932e-15 0)
(3 1.89967e-15 0)
(3 7.71321e-16 0)
(3 -1.70213e-16 0)
(3 -9.8509e-16 0)
(3 -1.06215e-15 0)
(3 -6.81091e-16 0)
(3 -8.86473e-16 0)
(3 -1.0821e-15 0)
(3 -1.49258e-15 0)
(3 -1.56454e-15 0)
(3 -1.78881e-15 0)
(3 -1.52612e-15 0)
(3 -1.08833e-15 0)
(3 -6.8417e-16 0)
(3 -5.87354e-16 0)
(3 -4.17655e-16 0)
(1.65361 -1.23914 0)
(1.79801 -1.10105 0)
(2.86855 -0.0933366 0)
(3 9.51979e-14 0)
(3 8.49325e-16 0)
(3 1.29277e-16 0)
(3 -5.95069e-16 0)
(3 -1.60626e-15 0)
(3 -1.72059e-15 0)
(3 -1.78827e-15 0)
(3 -1.69709e-15 0)
(3 -1.4101e-15 0)
(3 -1.49113e-15 0)
(3 -1.57877e-15 0)
(3 -1.16257e-15 0)
(3 -5.31812e-16 0)
(3 -3.62605e-16 0)
(3 -6.96624e-16 0)
(3 -2.46889e-15 0)
(3 -2.80642e-15 0)
(1.63725 -1.26479 0)
(1.66133 -1.22924 0)
(2.65542 -0.283934 0)
(3 -2.72414e-12 0)
(3 2.28886e-13 0)
(3 1.07702e-15 0)
(3 -2.2125e-15 0)
(3 -2.27946e-15 0)
(3 -2.27455e-15 0)
(3 -1.96384e-15 0)
(3 -1.75349e-15 0)
(3 -1.84317e-15 0)
(3 -1.76024e-15 0)
(3 -2.07423e-15 0)
(3 -1.19269e-15 0)
(3 -1.69035e-18 0)
(3 2.77464e-16 0)
(3 -3.74293e-16 0)
(3 -6.76348e-16 0)
(3 -5.67227e-16 0)
(1.61866 -1.28194 0)
(1.56009 -1.32089 0)
(2.40672 -0.549591 0)
(3 3.98763e-12 0)
(3 1.25767e-11 0)
(3 -2.81858e-13 0)
(3 6.69586e-16 0)
(3 -2.34029e-15 0)
(3 -1.96006e-15 0)
(3 -1.69669e-15 0)
(3 -1.16292e-15 0)
(3 -9.72147e-16 0)
(3 -4.35105e-16 0)
(3 1.49337e-16 0)
(3 7.18203e-16 0)
(3 1.4006e-15 0)
(3 1.28537e-15 0)
(3 1.09566e-15 0)
(3 1.37003e-15 0)
(3 1.09181e-15 0)
(1.59847 -1.29401 0)
(1.4695 -1.39769 0)
(2.12863 -0.859807 0)
(3.01072 0.00863473 0)
(3 -2.10081e-08 0)
(3 4.86898e-11 0)
(3 -1.44051e-13 0)
(3 -1.38283e-15 0)
(3 -1.40451e-15 0)
(3 -1.07993e-15 0)
(3 -7.83384e-16 0)
(3 -6.42324e-16 0)
(3 -1.39501e-16 0)
(3 1.26738e-15 0)
(3 1.86793e-15 0)
(3 2.20165e-15 0)
(3 1.20317e-15 0)
(3 2.20767e-15 0)
(3 5.32031e-16 0)
(3 2.30507e-15 0)
(1.58263 -1.30017 0)
(1.47236 -1.33485 0)
(2.01621 -1.02669 0)
(2.9005 -0.104085 0)
(3 4.56152e-09 0)
(3 -2.76059e-11 0)
(3 1.18007e-13 0)
(3 -2.28013e-15 0)
(3 -2.51975e-16 0)
(3 8.06778e-17 0)
(3 6.72521e-16 0)
(3 2.59176e-15 0)
(3 3.2117e-15 0)
(3 3.73774e-15 0)
(3 2.75416e-15 0)
(3 1.67427e-15 0)
(3 3.27748e-15 0)
(3 2.75966e-15 0)
(3 3.69363e-16 0)
(3 2.37843e-15 0)
(1.59124 -1.32727 0)
(1.50157 -1.33057 0)
(1.7267 -1.19268 0)
(2.38674 -0.554248 0)
(3 1.6847e-08 0)
(3 -3.50241e-11 0)
(3 3.32765e-14 0)
(3 8.85584e-16 0)
(3 1.20205e-15 0)
(3 1.88049e-15 0)
(3 2.63222e-15 0)
(3 4.37825e-15 0)
(3 4.77553e-15 0)
(3 2.84603e-15 0)
(3 1.99488e-15 0)
(3 1.62222e-15 0)
(3 2.46583e-15 0)
(3 1.82808e-15 0)
(3 7.93909e-16 0)
(3 2.08192e-15 0)
(1.58671 -1.29929 0)
(1.55287 -1.29551 0)
(1.67342 -1.21887 0)
(2.14016 -0.820496 0)
(3.02344 0.0200845 0)
(3 3.61987e-12 0)
(3 2.15366e-12 0)
(3 -1.30504e-12 0)
(3 8.27263e-13 0)
(3 -4.24991e-14 0)
(3 2.40075e-15 0)
(3 4.66188e-15 0)
(3 3.81539e-15 0)
(3 1.87057e-15 0)
(3 1.20069e-15 0)
(3 1.02895e-15 0)
(3 4.70825e-17 0)
(3 -2.03974e-17 0)
(3 9.02572e-16 0)
(3 1.55701e-15 0)
(1.58498 -1.28627 0)
(1.5889 -1.28878 0)
(1.64743 -1.25624 0)
(1.86954 -1.09194 0)
(2.72105 -0.23201 0)
(3 5.8572e-10 0)
(3 -1.3635e-08 0)
(3 1.22608e-08 0)
(3 -5.19637e-10 0)
(3 -2.01471e-12 0)
(3 9.5313e-14 0)
(3 3.95381e-15 0)
(3 2.47119e-15 0)
(3 2.42811e-15 0)
(3 1.76016e-15 0)
(3 1.97967e-15 0)
(3 -7.43348e-16 0)
(3 -6.3971e-16 0)
(3 9.40721e-16 0)
(3 9.761e-16 0)
(1.58322 -1.26958 0)
(1.59748 -1.27308 0)
(1.62833 -1.26806 0)
(1.61897 -1.28121 0)
(2.30397 -0.679573 0)
(3.02264 0.0202574 0)
(2.99971 -7.9513e-05 0)
(3 3.97623e-06 0)
(3 -7.93091e-08 0)
(3 8.74831e-10 0)
(3 -1.52313e-13 0)
(3 3.72377e-15 0)
(3 1.93511e-15 0)
(3 2.41494e-15 0)
(3 2.84567e-16 0)
(3 5.48588e-17 0)
(3 -1.14792e-15 0)
(3 -3.02638e-16 0)
(3 2.22832e-16 0)
(3 7.06405e-16 0)
(1.58176 -1.25457 0)
(1.60081 -1.25977 0)
(1.62082 -1.26726 0)
(1.58907 -1.31095 0)
(1.873 -1.08479 0)
(2.75098 -0.225713 0)
(3.00407 -0.000299826 0)
(2.99993 -5.28003e-05 0)
(3 7.671e-07 0)
(3 -8.4178e-10 0)
(3 9.43406e-15 0)
(3 4.2229e-15 0)
(3 1.33026e-15 0)
(3 -3.98319e-16 0)
(3 -2.37459e-15 0)
(3 -1.4324e-15 0)
(3 -2.1301e-15 0)
(3 2.73944e-16 0)
(3 5.09685e-16 0)
(3 7.84581e-16 0)
(1.57956 -1.24981 0)
(1.60083 -1.25652 0)
(1.61392 -1.26066 0)
(1.60815 -1.26854 0)
(1.76745 -1.19007 0)
(2.24842 -0.795092 0)
(3.00438 0.00968866 0)
(2.99998 0.000240529 0)
(3 -5.85398e-07 0)
(3 -6.17971e-11 0)
(3 9.00343e-15 0)
(3 2.2232e-15 0)
(3 4.17468e-16 0)
(3 -2.68346e-15 0)
(3 -3.01029e-15 0)
(3 -2.28918e-15 0)
(3 -1.93486e-15 0)
(3 -6.64175e-16 0)
(3 1.0712e-15 0)
(3 2.60763e-16 0)
(1.57552 -1.24009 0)
(1.59094 -1.25314 0)
(1.60584 -1.26313 0)
(1.6135 -1.26926 0)
(1.64953 -1.24792 0)
(1.7518 -1.19636 0)
(2.26679 -0.728966 0)
(2.99776 -0.012217 0)
(3 -5.77493e-08 0)
(3 3.09008e-11 0)
(3 1.08921e-14 0)
(3 -6.52289e-16 0)
(3 1.18401e-16 0)
(3 -3.94775e-15 0)
(3 -2.53709e-15 0)
(3 -2.01853e-15 0)
(3 -2.40043e-15 0)
(3 -1.34639e-15 0)
(3 8.03967e-16 0)
(3 1.55946e-15 0)
(1.57963 -1.25433 0)
(1.58583 -1.25882 0)
(1.59673 -1.26512 0)
(1.60244 -1.26842 0)
(1.60917 -1.26245 0)
(1.5985 -1.26545 0)
(1.8691 -1.16738 0)
(2.94747 -0.394778 0)
(3.37849 0.647072 0)
(3 -6.51944e-11 0)
(3 7.74958e-11 0)
(3 -8.03539e-11 0)
(3 -8.47097e-15 0)
(3 4.15414e-13 0)
(3 1.17742e-14 0)
(3 -1.68046e-14 0)
(3 8.43709e-15 0)
(3 -1.33413e-15 0)
(3 9.44797e-17 0)
(3 2.39814e-15 0)
(1.16822 -0.759916 0)
(1.82377 -1.15749 0)
(1.8481 -1.14924 0)
(1.7392 -1.20163 0)
(1.71418 -1.20663 0)
(1.66039 -1.24554 0)
(1.65264 -1.21753 0)
(1.7207 -1.16576 0)
(1.74735 -1.23968 0)
(1.78468 -1.15268 0)
(2.2763 -0.745468 0)
(2.86302 -0.207155 0)
(3.09759 0.0294081 0)
(3.02073 0.0126297 0)
(3.00477 0.00561593 0)
(3.0019 0.0030967 0)
(3.00005 0.000594228 0)
(2.99997 2.25219e-05 0)
(2.99999 -1.43546e-05 0)
(3 -5.90347e-06 0)
(1.0131 -0.0360162 0)
(1.92845 -0.730469 0)
(2.10437 -0.811841 0)
(2.01872 -0.918865 0)
(1.97055 -0.985653 0)
(1.85947 -1.09965 0)
(1.78158 -1.145 0)
(1.75575 -1.14675 0)
(1.75523 -1.16297 0)
(1.73627 -1.20549 0)
(1.72479 -1.19581 0)
(1.87708 -1.06362 0)
(2.10359 -0.878987 0)
(2.49876 -0.575895 0)
(2.98177 -0.138787 0)
(3.07355 0.0288651 0)
(3.00826 0.00772993 0)
(3.00295 0.0038328 0)
(3.00123 0.00218752 0)
(3.00008 0.000483489 0)
(0.972318 0.0781569 0)
(1.91685 -0.542471 0)
(2.28722 -0.280224 0)
(2.2275 -0.58801 0)
(2.2067 -0.631238 0)
(2.14401 -0.749517 0)
(2.04226 -0.885425 0)
(1.9521 -0.980456 0)
(1.90513 -1.03964 0)
(1.84653 -1.12932 0)
(1.79447 -1.15893 0)
(1.79514 -1.15195 0)
(1.81125 -1.13074 0)
(1.84625 -1.08837 0)
(2.03666 -0.953004 0)
(2.25921 -0.828965 0)
(2.66564 -0.503383 0)
(3.03652 -0.0917853 0)
(3.05547 0.0238112 0)
(3.00405 0.00467797 0)
(1.10437 0.547785 0)
(1.36076 0.83022 0)
(2.17107 0.0837207 0)
(2.32011 0.0861197 0)
(2.36604 0.0134473 0)
(2.36128 -0.303926 0)
(2.26244 -0.562902 0)
(2.19157 -0.678546 0)
(2.13301 -0.766428 0)
(2.07939 -0.898439 0)
(1.978 -1.00768 0)
(1.92297 -1.05914 0)
(1.88727 -1.07821 0)
(1.86817 -1.08867 0)
(1.86961 -1.05701 0)
(1.89647 -1.04828 0)
(1.96233 -1.0206 0)
(2.16393 -0.903739 0)
(2.38134 -0.793553 0)
(2.77908 -0.442046 0)
(1.13298 1.33225 0)
(1.52224 1.57006 0)
(2.17952 0.760004 0)
(2.506 0.432671 0)
(2.49883 -0.0645283 0)
(2.42524 0.223827 0)
(2.42305 0.0176007 0)
(2.38439 -0.205753 0)
(2.33412 -0.372055 0)
(2.31049 -0.526812 0)
(2.23323 -0.690594 0)
(2.15305 -0.816904 0)
(2.0857 -0.898511 0)
(2.02025 -0.969894 0)
(1.97658 -0.984625 0)
(1.95028 -0.99812 0)
(1.95445 -1.01771 0)
(1.97025 -0.994775 0)
(1.99584 -0.993943 0)
(2.07112 -0.977363 0)
(1.29291 1.741 0)
(1.58129 1.93215 0)
(1.84704 1.37516 0)
(2.09038 1.04891 0)
(2.44861 0.531112 0)
(2.51129 0.47432 0)
(2.56434 0.241115 0)
(2.52548 -0.0581517 0)
(2.49491 -0.125764 0)
(2.46996 -0.298378 0)
(2.42957 -0.464509 0)
(2.3411 -0.632697 0)
(2.27529 -0.730894 0)
(2.19939 -0.821943 0)
(2.15269 -0.83804 0)
(2.11976 -0.838669 0)
(2.08191 -0.870356 0)
(2.07336 -0.876372 0)
(2.03754 -0.921794 0)
(2.0577 -0.953334 0)
(1.44742 1.87119 0)
(1.51812 2.09823 0)
(1.84932 1.68283 0)
(2.07402 1.3569 0)
(2.34214 1.36807 0)
(2.3989 0.741184 0)
(2.51939 0.532563 0)
(2.60027 0.262028 0)
(2.57291 0.0493021 0)
(2.56299 -0.0537423 0)
(2.5432 -0.203568 0)
(2.50099 -0.329361 0)
(2.45098 -0.423334 0)
(2.40321 -0.492018 0)
(2.35376 -0.534975 0)
(2.32987 -0.549075 0)
(2.27034 -0.616072 0)
(2.21408 -0.696428 0)
(2.15593 -0.782877 0)
(2.13047 -0.802832 0)
(1.51531 1.90432 0)
(1.62613 2.37439 0)
(1.73871 2.0153 0)
(1.8789 1.85179 0)
(2.13659 1.70506 0)
(2.33111 1.11998 0)
(2.34873 1.18825 0)
(2.45793 0.961215 0)
(2.5095 0.649491 0)
(2.53402 0.546503 0)
(2.56847 0.346573 0)
(2.56335 0.164032 0)
(2.55181 0.012057 0)
(2.53965 -0.114454 0)
(2.48839 -0.278074 0)
(2.47855 -0.357929 0)
(2.39679 -0.513865 0)
(2.34418 -0.565095 0)
(2.30125 -0.594606 0)
(2.31807 -0.534396 0)
(1.52936 1.83753 0)
(1.75852 2.52266 0)
(1.79101 2.18324 0)
(1.87834 1.99758 0)
(2.07688 1.75215 0)
(2.16285 1.55845 0)
(2.28172 1.35017 0)
(2.37229 1.17773 0)
(2.42596 1.02043 0)
(2.48787 0.846864 0)
(2.58594 0.657448 0)
(2.61225 0.391983 0)
(2.64101 0.192677 0)
(2.63887 0.00266698 0)
(2.59303 -0.193303 0)
(2.5656 -0.274024 0)
(2.51905 -0.355022 0)
(2.50966 -0.266098 0)
(2.4507 -0.326482 0)
(2.47624 -0.272951 0)
(1.47341 1.6586 0)
(1.76234 2.38254 0)
(1.90106 2.35884 0)
(2.00416 2.22471 0)
(2.16262 1.87298 0)
(2.20151 1.76261 0)
(2.39123 1.40053 0)
(2.47193 1.29173 0)
(2.5803 1.19892 0)
(2.65617 0.841771 0)
(2.73904 0.63997 0)
(2.72918 0.374206 0)
(2.72603 0.260723 0)
(2.70827 0.128477 0)
(2.6913 0.0591877 0)
(2.66269 0.0363596 0)
(2.63363 0.0357984 0)
(2.6236 0.0553912 0)
(2.55766 -0.104371 0)
(2.57965 -0.101433 0)
(1.40418 1.36946 0)
(1.59172 2.08429 0)
(1.87864 2.39618 0)
(2.06806 2.488 0)
(2.3595 2.0317 0)
(2.4275 1.90782 0)
(2.59227 1.47909 0)
(2.67789 1.38517 0)
(2.78278 1.22377 0)
(2.7863 0.951668 0)
(2.78507 0.939369 0)
(2.76873 0.736952 0)
(2.72778 0.690214 0)
(2.72272 0.596561 0)
(2.7035 0.504962 0)
(2.68639 0.433269 0)
(2.69203 0.363864 0)
(2.6855 0.224479 0)
(2.65496 0.0350947 0)
(2.61844 -0.0556903 0)
(1.40481 1.19711 0)
(1.46295 1.75637 0)
(1.7044 2.20976 0)
(1.8642 2.37911 0)
(2.3194 2.15492 0)
(2.45956 2.01192 0)
(2.42458 1.64469 0)
(2.42492 1.50164 0)
(2.48939 1.47469 0)
(2.53099 1.43773 0)
(2.54844 1.35353 0)
(2.59518 1.19222 0)
(2.59607 1.03478 0)
(2.659 0.95378 0)
(2.6779 0.76211 0)
(2.72536 0.625085 0)
(2.75306 0.452899 0)
(2.75397 0.228248 0)
(2.71992 0.176255 0)
(2.67931 0.148081 0)
(1.40112 1.12171 0)
(1.44895 1.51872 0)
(1.55372 2.0323 0)
(1.64069 2.26746 0)
(1.91437 2.23346 0)
(2.11606 2.09135 0)
(2.14692 1.9032 0)
(2.20084 1.73996 0)
(2.20783 1.71441 0)
(2.26989 1.65895 0)
(2.39211 1.45246 0)
(2.51946 1.36337 0)
(2.57492 1.13072 0)
(2.71056 1.04474 0)
(2.73323 0.790685 0)
(2.78318 0.647342 0)
(2.78471 0.508092 0)
(2.77912 0.391014 0)
(2.73156 0.517229 0)
(2.69936 0.471296 0)
(1.43979 1.15183 0)
(1.48485 1.42321 0)
(1.52325 1.91674 0)
(1.49457 2.20986 0)
(1.66712 2.22733 0)
(1.8481 2.12528 0)
(1.9304 2.0634 0)
(2.051 1.78856 0)
(2.09225 1.7555 0)
(2.27633 1.66328 0)
(2.40658 1.45732 0)
(2.58715 1.39687 0)