/*--------------------------------*- C++ -*----------------------------------*\
  =========                 |
  \\      /  F ield         | OpenFOAM: The Open Source CFD Toolbox
   \\    /   O peration     | Website:  https://openfoam.org
    \\  /    A nd           | Version:  7
     \\/     M anipulation  |
\*---------------------------------------------------------------------------*/
FoamFile
{
    version     2.0;
    format      ascii;
    class       volScalarField;
    location    "1.2";
    object      rho;
}
// * * * * * * * * * * * * * * * * * * * * * * * * * * * * * * * * * * * * * //

dimensions      [1 -3 0 0 0 0 0];

internalField   nonuniform List<scalar> 
3700
(
0.168028
0.278375
0.326876
0.385785
0.437249
0.477841
0.499333
0.541913
0.581218
0.593173
0.614658
0.634527
0.648161
0.665652
0.682634
0.696396
0.70918
0.722173
0.723396
0.70762
0.13004
0.125626
0.14376
0.166471
0.174526
0.171605
0.168046
0.17864
0.181818
0.185455
0.184514
0.190073
0.199499
0.215135
0.23392
0.253001
0.270205
0.284322
0.302979
0.295258
0.149976
0.115807
0.107577
0.0978747
0.08874
0.0870672
0.0818838
0.0841444
0.0897369
0.0992306
0.0952223
0.0980172
0.103995
0.117729
0.131832
0.146557
0.161042
0.174653
0.187445
0.196362
0.170876
0.115499
0.0905518
0.0762995
0.0732181
0.0793497
0.0829176
0.0969337
0.121983
0.146773
0.142443
0.144797
0.142405
0.145365
0.153972
0.169491
0.186525
0.207549
0.23228
0.272768
0.173715
0.107758
0.0732402
0.0644729
0.0643362
0.073321
0.0794009
0.101358
0.132112
0.15888
0.18745
0.201358
0.203268
0.202547
0.200589
0.201269
0.206999
0.223329
0.251801
0.314751
0.166584
0.0967071
0.0627417
0.0584988
0.0603331
0.0716227
0.0784943
0.100407
0.129709
0.15846
0.201569
0.230089
0.259482
0.280178
0.293601
0.301977
0.306866
0.315633
0.322289
0.368556
0.137188
0.0838624
0.057208
0.0556948
0.0601016
0.0727434
0.0849547
0.112363
0.129155
0.15493
0.195975
0.236005
0.287056
0.327381
0.362196
0.400073
0.432072
0.466963
0.484647
0.538138
0.100091
0.0712797
0.052283
0.0533593
0.0708818
0.0915697
0.117997
0.156224
0.161123
0.183138
0.202969
0.236529
0.298896
0.356905
0.411618
0.474473
0.541034
0.611415
0.666011
0.786751
0.0767806
0.056859
0.0460951
0.052455
0.0776766
0.111172
0.162603
0.213677
0.242225
0.283157
0.309392
0.344383
0.379171
0.433149
0.491044
0.563443
0.651212
0.764339
0.861866
1.05682
0.0567432
0.044132
0.041532
0.0519161
0.0752461
0.116571
0.189567
0.252388
0.31914
0.39888
0.468054
0.529219
0.593866
0.660683
0.713826
0.780256
0.857783
0.975143
1.12921
1.33946
0.0386737
0.0320599
0.0394046
0.0544053
0.0712023
0.109699
0.195775
0.258397
0.356964
0.47916
0.58471
0.678526
0.796793
0.895683
0.999485
1.10949
1.2234
1.34182
1.58877
1.56132
0.0276565
0.0242182
0.0328479
0.0559603
0.073241
0.119265
0.208876
0.262092
0.387253
0.555699
0.709992
0.855412
1.02149
1.1618
1.32693
1.50824
1.69578
1.86505
2.15791
2.09619
0.0221944
0.0195491
0.0270668
0.0558375
0.107751
0.241002
0.364245
0.458337
0.650375
0.860556
1.0657
1.25534
1.4366
1.59697
1.79282
2.03881
2.30502
2.56202
2.92203
2.9095
0.0191235
0.0172653
0.02557
0.077621
0.211758
0.4051
0.54713
0.802977
1.10311
1.40068
1.65246
1.89309
2.12396
2.34058
2.60717
2.91103
3.22881
3.57356
3.88221
4.15683
0.0167719
0.0170407
0.0518592
0.144349
0.336159
0.557643
0.782841
1.19902
1.626
2.04971
2.38757
2.70944
3.02489
3.36171
3.77409
4.16132
4.5353
4.88401
5.09909
5.26483
0.0153641
0.0309425
0.114881
0.260302
0.504901
0.874695
1.46038
1.99713
2.62023
3.15284
3.56593
3.95849
4.34215
4.75518
5.19554
5.47893
5.65577
5.7373
5.61414
5.44685
0.0120035
0.0585163
0.219535
0.516234
1.15716
2.02139
2.84743
3.64657
4.43906
4.93938
5.25775
5.5886
5.87134
6.08648
6.20371
6.09906
5.80019
5.06576
3.8841
2.64228
0.0370539
0.202912
0.681996
1.64023
2.93842
4.09963
4.96478
5.87946
6.64724
6.70295
6.58487
6.58449
6.5204
6.28013
5.58192
4.26719
2.91986
1.86323
1.4251
1.39
0.436977
1.21891
2.77724
4.49247
5.84822
6.72297
7.55004
8.20267
7.9908
7.34249
6.73742
5.99108
4.7195
3.24104
1.9912
1.44038
1.3852
1.39294
1.39627
1.39922
3.22707
5.06911
6.81901
7.92803
8.5586
9.02688
9.17483
8.70527
6.32313
4.45911
3.29508
2.1766
1.50878
1.3823
1.39005
1.39481
1.39884
1.39997
1.40003
1.40002
9.68458
9.6137
9.54278
9.52751
9.64278
9.55227
8.3199
3.11397
0.925003
1.40001
1.40001
1.40001
1.40001
1.40001
1.40001
1.40001
1.40001
1.40001
1.40001
1.40001
9.61227
9.53909
9.41282
9.27967
9.30493
8.04129
3.58039
1.41517
1.40001
1.40001
1.40001
1.40001
1.40001
1.40001
1.40001
1.40001
1.40001
1.40001
1.40001
1.40001
9.42804
9.47931
9.42571
9.17009
8.8447
4.71811
1.47475
1.39869
1.40001
1.40001
1.40001
1.40001
1.40001
1.40001
1.40001
1.40001
1.40001
1.40001
1.40001
1.40001
9.24775
9.46036
9.45333
9.06811
6.67802
1.96546
1.39145
1.40016
1.4
1.40001
1.40001
1.40001
1.40001
1.40001
1.40001
1.40001
1.40001
1.40001
1.40001
1.40001
9.03782
9.45989
9.47283
8.38167
3.87017
1.3643
1.40052
1.4
1.40001
1.40001
1.40001
1.40001
1.40001
1.40001
1.40001
1.40001
1.40001
1.40001
1.40001
1.40001
8.88705
9.39549
9.49072
7.00365
1.95262
1.40001
1.40001
1.40001
1.40001
1.40001
1.40001
1.40001
1.40001
1.40001
1.40001
1.40001
1.40001
1.40001
1.40001
1.40001
8.83391
9.25339
9.19146
4.81219
1.3645
1.40001
1.40001
1.40001
1.40001
1.40001
1.40001
1.40001
1.40001
1.40001
1.40001
1.40001
1.40001
1.40001
1.40001
1.40001
9.00508
9.20466
8.40184
2.87887
1.40001
1.40001
1.40001
1.40001
1.40001
1.40001
1.40001
1.40001
1.40001
1.40001
1.40001
1.40001
1.40001
1.40001
1.40001
1.40001
9.62158
9.31835
6.84281
1.6273
1.40001
1.40001
1.40001
1.40001
1.40001
1.40001
1.40001
1.40001
1.40001
1.40001
1.40001
1.40001
1.40001
1.40001
1.40001
1.40001
9.97177
8.79506
4.89015
1.38286
1.40001
1.40001
1.40001
1.40001
1.40001
1.40001
1.40001
1.40001
1.40001
1.40001
1.40001
1.40001
1.40001
1.40001
1.40001
1.40001
10.2708
8.35091
3.19207
1.40001
1.40001
1.40001
1.40001
1.40001
1.40001
1.40001
1.40001
1.40001
1.40001
1.40001
1.40001
1.40001
1.40001
1.40001
1.40001
1.40001
10.3928
7.49078
2.24812
1.40001
1.40001
1.40001
1.40001
1.40001
1.40001
1.40001
1.40001
1.40001
1.40001
1.40001
1.40001
1.40001
1.40001
1.40001
1.40001
1.40001
10.4714
6.59916
1.64815
1.40001
1.40001
1.40001
1.40001
1.40001
1.40001
1.40001
1.40001
1.40001
1.40001
1.40001
1.40001
1.40001
1.40001
1.40001
1.40001
1.40001
10.326
5.49146
1.40226
1.40001
1.40001
1.40001
1.40001
1.40001
1.40001
1.40001
1.40001
1.40001
1.40001
1.40001
1.40001
1.40001
1.40001
1.40001
1.40001
1.40001
9.90949
4.3893
1.40001
1.40001
1.40001
1.40001
1.40001
1.40001
1.40001
1.40001
1.40001
1.40001
1.40001
1.40001
1.40001
1.40001
1.40001
1.40001
1.40001
1.40001
9.55983
3.55454
1.40001
1.40001
1.40001
1.40001
1.40001
1.40001
1.40001
1.40001
1.40001
1.40001
1.40001
1.40001
1.40001
1.40001
1.40001
1.40001
1.40001
1.40001
9.30989
2.69321
1.40001
1.40001
1.40001
1.40001
1.40001
1.40001
1.40001
1.40001
1.40001
1.40001
1.40001
1.40001
1.40001
1.40001
1.40001
1.40001
1.40001
1.40001
8.75929
1.93549
1.40001
1.40001
1.40001
1.40001
1.40001
1.40001
1.40001
1.40001
1.40001
1.40001
1.40001
1.40001
1.40001
1.40001
1.40001
1.40001
1.40001
1.40001
7.9138
1.40889
1.40001
1.40001
1.40001
1.40001
1.40001
1.40001
1.40001
1.40001
1.40001
1.40001
1.40001
1.40001
1.40001
1.40001
1.40001
1.40001
1.40001
1.40001
6.41775
1.40008
1.40001
1.40001
1.40001
1.40001
1.40001
1.40001
1.40001
1.40001
1.40001
1.40001
1.40001
1.40001
1.40001
1.40001
1.40001
1.40001
1.40001
1.40001
6.41775
1.40008
1.40001
1.40001
1.40001
1.40001
1.40001
1.40001
1.40001
1.40001
1.40001
1.40001
1.40001
1.40001
1.40001
1.40001
1.40001
1.40001
1.40001
1.40001
7.9138
1.40889
1.40001
1.40001
1.40001
1.40001
1.40001
1.40001
1.40001
1.40001
1.40001
1.40001
1.40001
1.40001
1.40001
1.40001
1.40001
1.40001
1.40001
1.40001
8.75929
1.93549
1.40001
1.40001
1.40001
1.40001
1.40001
1.40001
1.40001
1.40001
1.40001
1.40001
1.40001
1.40001
1.40001
1.40001
1.40001
1.40001
1.40001
1.40001
9.30989
2.69321
1.40001
1.40001
1.40001
1.40001
1.40001
1.40001
1.40001
1.40001
1.40001
1.40001
1.40001
1.40001
1.40001
1.40001
1.40001
1.40001
1.40001
1.40001
9.55982
3.55454
1.40001
1.40001
1.40001
1.40001
1.40001
1.40001
1.40001
1.40001
1.40001
1.40001
1.40001
1.40001
1.40001
1.40001
1.40001
1.40001
1.40001
1.40001
9.90949
4.3893
1.40001
1.40001
1.40001
1.40001
1.40001
1.40001
1.40001
1.40001
1.40001
1.40001
1.40001
1.40001
1.40001
1.40001
1.40001
1.40001
1.40001
1.40001
10.326
5.49146
1.40226
1.40001
1.40001
1.40001
1.40001
1.40001
1.40001
1.40001
1.40001
1.40001
1.40001
1.40001
1.40001
1.40001
1.40001
1.40001
1.40001
1.40001
10.4714
6.59917
1.64815
1.40001
1.40001
1.40001
1.40001
1.40001
1.40001
1.40001
1.40001
1.40001
1.40001
1.40001
1.40001
1.40001
1.40001
1.40001
1.40001
1.40001
10.3928
7.49078
2.24812
1.40001
1.40001
1.40001
1.40001
1.40001
1.40001
1.40001
1.40001
1.40001
1.40001
1.40001
1.40001
1.40001
1.40001
1.40001
1.40001
1.40001
10.2708
8.35091
3.19207
1.40001
1.40001
1.40001
1.40001
1.40001
1.40001
1.40001
1.40001
1.40001
1.40001
1.40001
1.40001
1.40001
1.40001
1.40001
1.40001
1.40001
9.97177
8.79506
4.89015
1.38286
1.40001
1.40001
1.40001
1.40001
1.40001
1.40001
1.40001
1.40001
1.40001
1.40001
1.40001
1.40001
1.40001
1.40001
1.40001
1.40001
9.62158
9.31835
6.84281
1.6273
1.40001
1.40001
1.40001
1.40001
1.40001
1.40001
1.40001
1.40001
1.40001
1.40001
1.40001
1.40001
1.40001
1.40001
1.40001
1.40001
9.00508
9.20466
8.40185
2.87887
1.40001
1.40001
1.40001
1.40001
1.40001
1.40001
1.40001
1.40001
1.40001
1.40001
1.40001
1.40001
1.40001
1.40001
1.40001
1.40001
8.83391
9.25339
9.19146
4.81219
1.3645
1.40001
1.40001
1.40001
1.40001
1.40001
1.40001
1.40001
1.40001
1.40001
1.40001
1.40001
1.40001
1.40001
1.40001
1.40001
8.88705
9.39549
9.49072
7.00365
1.95262
1.40001
1.40001
1.40001
1.40001
1.40001
1.40001
1.40001
1.40001
1.40001
1.40001
1.40001
1.40001
1.40001
1.40001
1.40001
9.03782
9.45989
9.47283
8.38166
3.87017
1.3643
1.40052
1.4
1.40001
1.40001
1.40001
1.40001
1.40001
1.40001
1.40001
1.40001
1.40001
1.40001
1.40001
1.40001
9.24775
9.46036
9.45333
9.06811
6.67803
1.96546
1.39145
1.40016
1.4
1.40001
1.40001
1.40001
1.40001
1.40001
1.40001
1.40001
1.40001
1.40001
1.40001
1.40001
9.42804
9.47931
9.42571
9.17009
8.84469
4.71811
1.47475
1.39869
1.40001
1.40001
1.40001
1.40001
1.40001
1.40001
1.40001
1.40001
1.40001
1.40001
1.40001
1.40001
9.61227
9.53909
9.41282
9.27966
9.30493
8.04128
3.58039
1.41517
1.40001
1.40001
1.40001
1.40001
1.40001
1.40001
1.40001
1.40001
1.40001
1.40001
1.40001
1.40001
9.68458
9.6137
9.54278
9.52751
9.64278
9.55228
8.31991
3.11397
0.925004
1.40001
1.40001
1.40001
1.40001
1.40001
1.40001
1.40001
1.40001
1.40001
1.40001
1.40001
3.2271
5.0691
6.81896
7.92806
8.55874
9.02682
9.17483
8.70527
6.32314
4.45913
3.29508
2.17659
1.50878
1.3823
1.39005
1.39481
1.39884
1.39997
1.40003
1.40002
0.43694
1.21891
2.7771
4.49215
5.84785
6.72323
7.55026
8.20276
7.99087
7.34253
6.73743
5.99104
4.71945
3.24102
1.99119
1.44038
1.3852
1.39294
1.39627
1.39922
0.0370776
0.203102
0.682256
1.63997
2.93834
4.09911
4.96482
5.87973
6.6473
6.70311
6.58495
6.58455
6.52047
6.28012
5.58184
4.26715
2.91988
1.86324
1.4251
1.39
0.0119755
0.058477
0.219939
0.516984
1.15642
2.02055
2.84663
3.64615
4.43927
4.93953
5.25764
5.58853
5.87142
6.08656
6.20375
6.09908
5.8002
5.06577
3.8841
2.64229
0.0153813
0.030675
0.114684
0.260888
0.506206
0.875249
1.46004
1.99664
2.61956
3.15233
3.56557
3.95836
4.34221
4.75534
5.19563
5.47895
5.65578
5.73732
5.61416
5.44687
0.0167583
0.0169497
0.0513844
0.144241
0.33712
0.558192
0.783555
1.19909
1.62595
2.04955
2.38736
2.70925
3.02483
3.36171
3.7741
4.16136
4.53536
4.88405
5.09912
5.26485
0.0191204
0.0172493
0.0254883
0.0771946
0.211535
0.405308
0.547552
0.803282
1.10336
1.40085
1.65257
1.89306
2.12382
2.3404
2.60705
2.91097
3.22875
3.57353
3.88218
4.1568
0.0222136
0.0195608
0.0271277
0.0556085
0.107066
0.240905
0.36388
0.458486
0.650549
0.86073
1.06583
1.25547
1.43671
1.59709
1.79295
2.03889
2.30506
2.56203
2.92206
2.90956
0.0277561
0.0242776
0.0328856
0.055885
0.0730349
0.119203
0.208439
0.261755
0.386738
0.555324
0.709818
0.855442
1.02168
1.16202
1.32713
1.50836
1.69587
1.86512
2.15797
2.09622
0.0388931
0.0321503
0.0393941
0.0543912
0.0712534
0.109763
0.19553
0.258134
0.356697
0.478794
0.584454
0.678365
0.796717
0.895651
0.999465
1.1095
1.2234
1.3418
1.58876
1.56131
0.0570554
0.0442558
0.0415384
0.0519492
0.0753481
0.116644
0.189532
0.252332
0.319079
0.398709
0.467894
0.529036
0.593628
0.660441
0.713591
0.780038
0.857614
0.975012
1.12913
1.33942
0.07715
0.0570164
0.0461761
0.0525162
0.077777
0.111253
0.162668
0.213684
0.242259
0.283117
0.309253
0.344195
0.379005
0.433005
0.490942
0.563345
0.651134
0.764342
0.861899
1.05684
0.100587
0.0714798
0.0524317
0.0534391
0.0709499
0.0916441
0.118108
0.156236
0.161141
0.183077
0.202908
0.236541
0.29895
0.35692
0.411639
0.474521
0.541087
0.61149
0.666094
0.786783
0.137814
0.0840498
0.0573214
0.0558041
0.0601733
0.0728092
0.085038
0.112379
0.129189
0.155014
0.196065
0.236046
0.287018
0.32733
0.362162
0.400103
0.43213
0.467018
0.484665
0.538084
0.166928
0.0968926
0.0628448
0.0586052
0.0604066
0.0716724
0.078568
0.100536
0.129787
0.158596
0.201655
0.230037
0.259347
0.280056
0.293554
0.301977
0.306837
0.315567
0.322214
0.368431
0.173932
0.107876
0.0733943
0.064595
0.0644171
0.0733835
0.0794965
0.101503
0.132207
0.15898
0.187465
0.20118
0.203124
0.202427
0.200532
0.201221
0.206932
0.223233
0.251715
0.314718
0.170852
0.115564
0.0907708
0.0765054
0.0733279
0.0794537
0.083005
0.0970607
0.12208
0.146739
0.142364
0.144661
0.142292
0.145279
0.153911
0.169444
0.186473
0.207503
0.232244
0.272773
0.149925
0.115801
0.107724
0.0980856
0.0889392
0.0871572
0.0819662
0.0842015
0.0897643
0.0991566
0.0951409
0.0979362
0.103949
0.117679
0.131773
0.146527
0.161049
0.174677
0.187456
0.196347
0.12941
0.12455
0.142483
0.164878
0.173282
0.16926
0.166707
0.176811
0.183551
0.187694
0.18328
0.188506
0.201116
0.218271
0.232607
0.249246
0.269243
0.285728
0.30454
0.295546
0.166057
0.276719
0.325763
0.384128
0.436746
0.475922
0.498485
0.540651
0.581998
0.594856
0.613458
0.632674
0.649281
0.668039
0.680856
0.694895
0.709537
0.72294
0.723929
0.707554
0.731274
0.808186
0.894914
0.965652
0.975355
0.953737
0.931789
0.962825
1.03267
1.14536
1.25471
1.26131
1.21072
1.17791
1.16893
1.19628
1.27753
1.35839
1.39389
1.39978
0.367572
0.512263
0.61602
0.757523
0.888765
0.937596
0.931878
0.962593
1.0334
1.13631
1.24027
1.23657
1.1888
1.16233
1.16174
1.19504
1.27765
1.35836
1.39387
1.39978
0.190081
0.205527
0.241845
0.334971
0.581422
0.824881
0.918078
0.98108
1.01909
1.10925
1.23601
1.25469
1.20733
1.17349
1.15965
1.18515
1.2709
1.35655
1.39372
1.39978
0.270177
0.281977
0.312293
0.302351
0.303275
0.474585
0.760306
0.881039
0.96473
1.08482
1.2132
1.24272
1.20322
1.16635
1.15967
1.19041
1.27476
1.3581
1.39404
1.39979
0.341396
0.350349
0.369227
0.372004
0.348856
0.326182
0.410275
0.624623
0.808676
0.968257
1.15043
1.21151
1.18479
1.15509
1.15317
1.18874
1.27451
1.35819
1.39422
1.39981
0.429774
0.440514
0.443679
0.438002
0.405187
0.362534
0.343473
0.363745
0.457741
0.62701
0.870407
1.09093
1.14292
1.1362
1.14293
1.19079
1.27935
1.36018
1.39464
1.39983
0.541819
0.524109
0.519107
0.519358
0.492006
0.429561
0.373733
0.366694
0.381442
0.412678
0.536033
0.811637
1.03564
1.10313
1.13583
1.19357
1.28293
1.36263
1.39526
1.39986
0.726969
0.654334
0.589869
0.589773
0.566376
0.486298
0.423795
0.420694
0.424433
0.438075
0.490802
0.635151
0.879398
1.03987
1.11965
1.19665
1.28942
1.36626
1.396
1.39989
0.954737
0.818341
0.669102
0.669081
0.649525
0.555725
0.462312
0.456891
0.460355
0.478227
0.517464
0.621142
0.804897
0.984941
1.10538
1.20401
1.29956
1.37112
1.39684
1.39993
1.22548
1.03004
0.815204
0.758155
0.742988
0.655432
0.53766
0.49711
0.490402
0.513194
0.559756
0.636697
0.77954
0.948986
1.08911
1.20474
1.30655
1.37531
1.39758
1.39995
1.76677
1.35474
1.02524
0.861815
0.798935
0.720893
0.619657
0.58394
0.591563
0.608974
0.650452
0.7319
0.843305
0.976874
1.10572
1.22257
1.32337
1.38271
1.39862
1.39998
2.79328
2.05857
1.60143
1.24872
1.03148
0.874691
0.739047
0.690743
0.683987
0.683107
0.710059
0.799439
0.930009
1.05771
1.17325
1.27609
1.35477
1.39211
1.39955
1.4
3.43518
2.94572
2.33059
1.74565
1.40101
1.22866
1.01474
0.813877
0.774282
0.77448
0.795412
0.872095
1.00651
1.14683
1.25717
1.33575
1.3819
1.39781
1.39992
1.4
3.23826
3.15874
2.95242
2.54307
2.04092
1.68167
1.41443
1.1305
1.04651
1.05534
1.09177
1.16608
1.25925
1.33475
1.37553
1.39144
1.39766
1.39959
1.39997
1.4
2.31604
2.90235
2.89082
2.78364
2.59382
2.30388
2.0166
1.71001
1.46156
1.39591
1.41
1.45133
1.47899
1.47683
1.43495
1.40479
1.40003
1.39994
1.39998
1.4
1.54117
1.9603
2.39747
2.62522
2.56048
2.43741
2.27553
2.09668
1.90371
1.76551
1.68939
1.63038
1.56091
1.48133
1.42344
1.40243
1.40006
1.39999
1.4
1.4
1.40608
1.45034
1.61498
1.92223
2.17747
2.26527
2.22043
2.10458
1.96916
1.83951
1.72784
1.62986
1.53466
1.45051
1.40842
1.40046
1.40001
1.4
1.4
1.4
1.40013
1.40103
1.40937
1.45088
1.56705
1.71874
1.8385
1.86066
1.82209
1.74181
1.64276
1.54126
1.45689
1.41187
1.40091
1.40003
1.40001
1.4
1.4
1.40001
1.40001
1.40002
1.40011
1.40098
1.40649
1.42466
1.46097
1.49622
1.50554
1.4944
1.46486
1.4297
1.40743
1.40077
1.40003
1.40001
1.40001
1.40001
1.40001
1.40001
1.40001
1.40001
1.40001
1.40001
1.40007
1.40036
1.40145
1.40355
1.40498
1.40483
1.40342
1.40137
1.40025
1.40002
1.40001
1.40001
1.40001
1.40001
1.40001
1.40001
1.40001
1.40001
1.40001
1.40001
1.40001
1.40001
1.40002
1.40004
1.40006
1.40006
1.40004
1.40002
1.40001
1.40001
1.40001
1.40001
1.40001
1.40001
1.40001
1.40001
1.40001
1.40001
1.40001
1.40001
1.40001
1.40001
1.40001
1.40001
1.40001
1.40001
1.40001
1.40001
1.40001
1.40001
1.40001
1.40001
1.40001
1.40001
1.40001
1.40001
1.40001
1.40001
1.40001
1.40001
1.40001
1.40001
1.40001
1.40001
1.40001
1.40001
1.40001
1.40001
1.40001
1.40001
1.40001
1.40001
1.40001
1.40001
1.40001
1.40001
1.40001
1.40001
1.40001
1.40001
1.40001
1.40001
1.40001
1.40001
1.40001
1.40001
1.40001
1.40001
1.40001
1.40001
1.40001
1.40001
1.40001
1.40001
1.40001
1.40001
1.40001
1.40001
1.40001
1.40001
1.40001
1.40001
1.40001
1.40001
1.40001
1.40001
1.40001
1.40001
1.40001
1.40001
1.40001
1.40001
1.40001
1.40001
1.40001
1.40001
2.25648
3.42719
3.58402
2.91004
1.83288
1.45184
1.40262
1.40007
1.40001
1.40001
1.40001
1.40001
1.40001
1.40001
1.40001
3.26583
3.91135
3.5222
2.15261
1.46692
1.4011
1.40001
1.4
1.40001
1.40001
1.40001
1.40001
1.40001
1.40001
1.40001
4.0701
3.98982
2.76004
1.61039
1.40713
1.40008
1.40001
1.40001
1.40001
1.40001
1.40001
1.40001
1.40001
1.40001
1.40001
4.5183
3.55717
1.90365
1.4268
1.40027
1.40001
1.40001
1.40001
1.40001
1.40001
1.40001
1.40001
1.40001
1.40001
1.40001
4.6216
2.34672
1.46537
1.40069
1.40001
1.40001
1.40001
1.40001
1.40001
1.40001
1.40001
1.40001
1.40001
1.40001
1.40001
2.8895
1.50238
1.40067
1.4
1.4
1.40001
1.40001
1.40001
1.40001
1.40001
1.40001
1.40001
1.40001
1.40001
1.40001
1.54379
1.40083
1.4
1.4
1.40001
1.40001
1.40001
1.40001
1.40001
1.40001
1.40001
1.40001
1.40001
1.40001
1.40001
1.39739
1.39982
1.4
1.40001
1.40001
1.40001
1.40001
1.40001
1.40001
1.40001
1.40001
1.40001
1.40001
1.40001
1.40001
1.39996
1.40001
1.40001
1.40001
1.40001
1.40001
1.40001
1.40001
1.40001
1.40001
1.40001
1.40001
1.40001
1.40001
1.40001
1.40001
1.40001
1.40001
1.40001
1.40001
1.40001
1.40001
1.40001
1.40001
1.40001
1.40001
1.40001
1.40001
1.40001
1.40001
1.40001
1.40001
1.40001
1.40001
1.40001
1.40001
1.40001
1.40001
1.40001
1.40001
1.40001
1.40001
1.40001
1.40001
1.40001
1.40001
1.40001
1.40001
1.40001
1.40001
1.40001
1.40001
1.40001
1.40001
1.40001
1.40001
1.40001
1.40001
1.40001
1.40001
1.40001
1.40001
1.40001
1.40001
1.40001
1.40001
1.40001
1.40001
1.40001
1.40001
1.40001
1.40001
1.40001
1.40001
1.40001
1.40001
1.40001
1.40001
1.40001
1.40001
1.40001
1.40001
1.40001
1.40001
1.40001
1.40001
1.40001
1.40001
1.40001
1.40001
1.40001
1.40001
1.40001
1.40001
1.40001
1.40001
1.40001
1.40001
1.40001
1.40001
1.40001
1.40001
1.40001
1.40001
1.40001
1.40001
1.40001
1.40001
1.40001
1.40001
1.40001
1.40001
1.40001
1.40001
1.40001
1.40001
1.40001
1.40001
1.40001
1.40001
1.40001
1.40001
1.40001
1.40001
1.40001
1.40001
1.40001
1.40001
1.40001
1.40001
1.40001
1.40001
1.40001
1.40001
1.40001
1.40001
1.40001
1.40001
1.40001
1.40001
1.40001
1.40001
1.40001
1.40001
1.40001
1.40001
1.40001
1.40001
1.40001
1.40001
1.40001
1.40001
1.40001
1.40001
1.40001
1.40001
1.40001
1.40001
1.40001
1.40001
1.40001
1.40001
1.40001
1.40001
1.40001
1.40001
1.40001
1.40001
1.40001
1.40001
1.40001
1.40001
1.40001
1.40001
1.40001
1.40001
1.40001
1.40001
1.40001
1.40001
1.40001
1.40001
1.40001
1.40001
1.40001
1.40001
1.40001
1.40001
1.40001
1.40001
1.40001
1.40001
1.40001
1.40001
1.40001
1.40001
1.40001
1.40001
1.40001
1.40001
1.40001
1.40001
1.40001
1.40001
1.40001
1.40001
1.40001
1.40001
1.40001
1.40001
1.40001
1.40001
1.40001
1.40001
1.40001
1.40001
1.40001
1.40001
1.40001
1.40001
1.40001
1.40001
1.40001
1.40001
1.40001
1.40001
1.40001
1.40001
1.40001
1.40001
1.40001
1.40001
1.40001
1.40001
1.40001
1.40001
1.40001
1.40001
1.40001
1.40001
1.40001
1.40001
1.40001
1.40001
1.40001
1.40001
1.40001
1.40001
1.40001
1.40001
1.40001
1.40001
1.40001
1.40001
1.40001
1.40001
1.40001
1.40001
1.40001
1.40001
1.40001
1.40001
1.40001
1.40001
1.40001
1.40001
1.40001
1.40001
1.40001
1.40001
1.40001
1.40001
1.40001
1.40001
1.40001
1.40001
1.40001
1.40001
1.40001
1.40001
1.40001
1.40001
1.40001
1.40001
1.40001
1.40001
1.40001
1.40001
1.40001
1.40001
1.40001
1.40001
1.40001
1.40001
1.40001
1.40001
1.40001
1.40001
1.40001
1.40001
1.40001
1.40001
1.40001
1.40001
1.40001
1.40001
1.40001
1.40001
1.40001
1.40001
1.40001
1.40001
1.40001
1.40001
1.40001
1.40001
1.40001
1.40001
1.40001
1.40001
1.40001
1.40001
1.40001
1.40001
1.40001
1.40001
1.40001
1.40001
1.40001
1.40001
1.40001
1.40001
1.40001
1.40001
1.40001
1.40001
1.40001
1.40001
1.40001
1.40001
1.40001
1.40001
1.40001
1.40001
1.40001
1.40001
1.40001
1.40001
1.40001
1.40001
1.40001
1.40001
1.40001
1.40001
1.40001
1.40001
1.40001
1.40001
1.40001
1.40001
1.40001
1.40001
1.40001
1.40001
1.40001
1.40001
1.40001
1.40001
1.40001
1.40001
1.40001
1.40001
1.40001
1.40001
1.40001
1.40001
1.40001
1.40001
1.40001
1.40001
1.40001
1.40001
1.40001
1.40001
1.40001
1.40001
1.40001
1.40001
1.40001
1.40001
1.40001
1.40001
1.40001
1.40001
1.40001
1.40001
1.40001
1.40001
1.40001
1.40001
1.40001
1.40001
1.40001
1.40001
1.40001
1.40001
1.40001
1.40001
1.40001
1.40001
1.40001
1.40001
1.40001
1.40001
1.40001
1.40001
1.40001
1.40001
1.40001
1.40001
1.40001
1.40001
1.40001
1.40001
1.40001
1.40001
1.40001
1.40001
1.40001
1.40001
1.40001
1.40001
1.40001
1.40001
1.40001
1.40001
1.40001
1.40001
1.40001
1.40001
1.40001
1.40001
1.40001
1.40001
1.40001
1.40001
1.40001
1.40001
1.40001
1.40001
1.40001
1.40001
1.40001
1.40001
1.40001
1.40001
1.40001
1.40001
1.40001
1.40001
1.40001
1.40001
1.40001
1.40001
1.40001
1.40001
1.40001
1.40001
1.40001
1.40001
1.40001
1.40001
1.40001
1.40001
1.40001
1.40001
1.40001
1.40001
1.40001
1.40001
1.40001
1.40001
1.40001
1.40001
1.40001
1.40001
1.40001
1.40001
1.40001
1.40001
1.40001
1.40001
1.40001
1.40001
1.40001
1.40001
1.40001
1.40001
1.40001
1.40001
1.40001
1.40001
1.40001
1.40001
1.40001
1.40001
1.40001
1.40001
1.40001
1.40001
1.40001
1.40001
1.40001
1.40001
1.40001
1.40001
1.40001
1.40001
1.40001
1.40001
1.40001
1.40001
1.40001
1.40001
1.40001
1.40001
1.40001
1.40001
1.40001
1.40001
1.40001
1.40001
1.40001
1.40001
1.40001
1.40001
1.40001
1.40001
1.40001
1.40001
1.40001
1.40001
1.40001
1.40001
1.40001
1.40001
1.40001
1.40001
1.40001
1.40001
1.40001
1.40001
1.40001
1.40001
1.40001
1.40001
1.40001
1.40001
1.40001
1.40001
1.40001
1.40001
1.40001
1.40001
1.40001
1.40001
1.40001
1.40001
1.40001
1.40001
1.40001
1.40001
1.40001
1.40001
1.40001
1.40001
1.40001
1.40001
1.40001
1.40001
1.40001
1.40001
1.40001
1.40001
1.40001
1.40001
1.40001
1.40001
1.40001
1.40001
1.40001
1.40001
1.40001
1.40001
1.40001
1.40001
1.40001
1.40001
1.40001
1.40001
1.40001
1.40001
1.40001
1.40001
1.40001
1.40001
1.40001
1.40001
1.40001
1.40001
1.40001
1.40001
1.40001
1.40001
1.40001
1.40001
1.40001
1.40001
1.40001
1.40001
1.40001
1.40001
1.40001
1.40001
1.40001
1.40001
1.40001
1.40001
1.40001
1.40001
1.40001
1.40001
1.40001
1.40001
1.40001
1.40001
1.40001
1.40001
1.40001
1.40001
1.40001
1.40001
1.40001
1.40001
1.40001
1.40001
1.40001
1.40001
1.40001
1.40001
1.40001
1.40001
1.40001
1.40001
1.40001
1.40001
1.40001
1.40001
1.40001
1.40001
1.40001
1.40001
1.40001
1.40001
1.40001
1.40001
1.40001
1.40001
1.40001
1.40001
1.40001
1.40001
1.40001
1.40001
1.40001
1.40001
1.40001
1.40001
1.40001
1.40001
1.40001
1.40001
1.40001
1.40001
1.40001
1.40001
1.40001
1.40001
1.40001
1.40001
1.40001
1.40001
1.40001
1.40001
1.40001
1.40001
1.40001
1.40001
1.40001
1.40001
1.40001
1.40001
1.40001
1.40001
1.40001
1.40001
1.40001
1.40001
1.40001
1.40001
1.40001
1.40001
1.40001
1.40001
1.40001
1.40001
1.40001
1.40001
1.40001
1.40001
1.40001
1.40001
1.40001
1.40001
1.40001
1.40001
1.40001
1.40001
1.40001
1.40001
1.40001
1.40001
1.40001
1.40001
1.40001
1.40001
1.40001
1.40001
1.40001
1.40001
1.40001
1.40001
1.40001
1.40001
1.40001
1.40001
1.40001
1.40001
1.40001
1.40001
1.40001
1.40001
1.40001
1.40001
1.40001
1.40001
1.40001
1.40001
1.40001
1.40001
1.40001
1.40001
1.40001
1.40001
1.40001
1.40001
1.40001
1.40001
1.40001
1.40001
1.40001
1.40001
1.40001
1.40001
1.40001
1.40001
1.40001
1.40001
1.40001
1.40001
1.40001
1.40001
1.40001
1.40001
1.40001
1.40001
1.40001
1.40001
1.40001
1.40001
1.40001
1.40001
1.40001
1.40001
1.40001
1.40001
1.40001
1.40001
1.40001
1.40001
1.40001
1.40001
1.40001
1.40001
1.40001
1.40001
1.40001
1.40001
1.40001
1.40001
1.40001
1.40001
1.40001
1.40001
1.40001
1.40001
1.40001
1.40001
1.40001
1.40001
1.40001
1.40001
1.40001
1.40001
1.40001
1.40001
1.40001
1.40001
1.40001
1.40001
1.40001
1.40001
1.40001
1.40001
1.40001
1.40001
1.40001
1.40001
1.40001
1.40001
1.40001
1.40001
1.40001
1.40001
1.40001
1.39996
1.40001
1.40001
1.40001
1.40001
1.40001
1.40001
1.40001
1.40001
1.40001
1.40001
1.40001
1.40001
1.40001
1.40001
1.39739
1.39982
1.4
1.40001
1.40001
1.40001
1.40001
1.40001
1.40001
1.40001
1.40001
1.40001
1.40001
1.40001
1.40001
1.54379
1.40083
1.4
1.4
1.40001
1.40001
1.40001
1.40001
1.40001
1.40001
1.40001
1.40001
1.40001
1.40001
1.40001
2.88951
1.50238
1.40067
1.4
1.4
1.40001
1.40001
1.40001
1.40001
1.40001
1.40001
1.40001
1.40001
1.40001
1.40001
4.62161
2.34672
1.46537
1.40069
1.40001
1.40001
1.40001
1.40001
1.40001
1.40001
1.40001
1.40001
1.40001
1.40001
1.40001
4.51831
3.55715
1.90364
1.4268
1.40027
1.40001
1.40001
1.40001
1.40001
1.40001
1.40001
1.40001
1.40001
1.40001
1.40001
4.07012
3.98986
2.76007
1.61039
1.40713
1.40008
1.40001
1.40001
1.40001
1.40001
1.40001
1.40001
1.40001
1.40001
1.40001
3.26592
3.91142
3.52213
2.15258
1.46692
1.4011
1.40001
1.4
1.40001
1.40001
1.40001
1.40001
1.40001
1.40001
1.40001
2.25613
3.42702
3.58416
2.91009
1.83289
1.45184
1.40262
1.40007
1.40001
1.40001
1.40001
1.40001
1.40001
1.40001
1.40001
1.76913
2.79535
3.43409
3.23802
2.31616
1.5412
1.40608
1.40013
1.40001
1.40001
1.40001
1.40001
1.40001
1.40001
1.40001
1.35196
2.05596
2.94823
3.1588
2.9024
1.96036
1.45035
1.40103
1.40002
1.40001
1.40001
1.40001
1.40001
1.40001
1.40001
1.02508
1.60058
2.33157
2.95255
2.89092
2.39744
1.61497
1.40937
1.40011
1.40001
1.40001
1.40001
1.40001
1.40001
1.40001
0.865578
1.25196
1.74004
2.54292
2.78362
2.62516
1.9222
1.45088
1.40098
1.40001
1.40001
1.40001
1.40001
1.40001
1.40001
0.795853
1.03341
1.40248
2.0415
2.59381
2.56041
2.17743
1.56705
1.40649
1.40007
1.40001
1.40001
1.40001
1.40001
1.40001
0.71693
0.875034
1.23274
1.68089
2.3037
2.43733
2.26524
1.71875
1.42466
1.40036
1.40001
1.40001
1.40001
1.40001
1.40001
0.608616
0.732087
1.01792
1.41343
2.0163
2.27545
2.2204
1.83852
1.46098
1.40145
1.40002
1.40001
1.40001
1.40001
1.40001
0.589235
0.688504
0.813928
1.13089
1.71004
2.09664
2.10457
1.86066
1.49622
1.40355
1.40004
1.40001
1.40001
1.40001
1.40001
0.59806
0.679696
0.77163
1.04842
1.46204
1.9038
1.96916
1.82209
1.50554
1.40498
1.40006
1.40001
1.40001
1.40001
1.40001
0.613656
0.678051
0.772185
1.05785
1.39572
1.76546
1.83949
1.74179
1.4944
1.40483
1.40006
1.40001
1.40001
1.40001
1.40001
0.655207
0.704655
0.792599
1.09474
1.40959
1.68924
1.72778
1.64274
1.46487
1.40343
1.40004
1.40001
1.40001
1.40001
1.40001
0.742426
0.79687
0.866998
1.1676
1.4506
1.63022
1.62978
1.54125
1.42971
1.40137
1.40002
1.40001
1.40001
1.40001
1.40001
0.857184
0.931979
0.999827
1.25809
1.47828
1.56079
1.5346
1.45689
1.40744
1.40025
1.40001
1.40001
1.40001
1.40001
1.40001
0.983956
1.05956
1.14231
1.33328
1.47642
1.48124
1.4505
1.41187
1.40077
1.40002
1.40001
1.40001
1.40001
1.40001
1.40001
1.10662
1.17285
1.25517
1.37502
1.4349
1.42341
1.40842
1.40091
1.40003
1.40001
1.40001
1.40001
1.40001
1.40001
1.40001
1.22176
1.27522
1.3352
1.3914
1.40479
1.40243
1.40046
1.40003
1.40001
1.40001
1.40001
1.40001
1.40001
1.40001
1.40001
1.32298
1.35449
1.38189
1.39771
1.40003
1.40006
1.40001
1.40001
1.40001
1.40001
1.40001
1.40001
1.40001
1.40001
1.40001
1.38266
1.39211
1.39783
1.3996
1.39994
1.39999
1.4
1.4
1.40001
1.40001
1.40001
1.40001
1.40001
1.40001
1.40001
1.39861
1.39955
1.39993
1.39997
1.39998
1.4
1.4
1.4
1.40001
1.40001
1.40001
1.40001
1.40001
1.40001
1.40001
1.39998
1.4
1.4
1.4
1.4
1.4
1.4
1.40001
1.40001
1.40001
1.40001
1.40001
1.40001
1.40001
1.40001
1.22568
1.03066
0.81449
0.758195
0.74178
0.65246
0.545987
0.492843
0.500487
0.526888
0.57409
0.651749
0.78433
0.947623
1.08792
1.20448
1.30658
1.37528
1.39757
1.39995
0.954772
0.819321
0.667865
0.668712
0.649883
0.552865
0.475844
0.449791
0.458014
0.486863
0.530215
0.626289
0.803175
0.985364
1.10693
1.20521
1.29996
1.37112
1.39683
1.39992
0.726962
0.655236
0.588424
0.588759
0.567105
0.486669
0.43135
0.419932
0.423762
0.442187
0.494228
0.634717
0.875075
1.03922
1.1229
1.19799
1.28951
1.36618
1.39599
1.39989
0.54186
0.524172
0.517997
0.518685
0.493647
0.430743
0.375685
0.367419
0.380672
0.412795
0.536981
0.808018
1.03329
1.10172
1.13484
1.19343
1.28294
1.36275
1.39529
1.39986
0.430083
0.440142
0.442983
0.437847
0.406979
0.363005
0.342364
0.362029
0.456378
0.626592
0.867044
1.08249
1.1441
1.13635
1.13987