/*--------------------------------*- C++ -*----------------------------------*\
  =========                 |
  \\      /  F ield         | OpenFOAM: The Open Source CFD Toolbox
   \\    /   O peration     | Website:  https://openfoam.org
    \\  /    A nd           | Version:  7
     \\/     M anipulation  |
\*---------------------------------------------------------------------------*/
FoamFile
{
    version     2.0;
    format      ascii;
    class       volScalarField;
    location    "1.2";
    object      T;
}
// * * * * * * * * * * * * * * * * * * * * * * * * * * * * * * * * * * * * * //

dimensions      [0 0 0 1 0 0 0];

internalField   nonuniform List<scalar> 
3700
(
100.54
100.746
100.77
100.796
100.835
100.903
100.994
101.113
101.165
101.163
101.159
101.148
101.134
101.123
101.114
101.103
101.094
101.087
101.079
101.06
100.203
100.206
100.258
100.305
100.335
100.388
100.468
100.568
100.583
100.562
100.53
100.517
100.504
100.481
100.476
100.474
100.467
100.462
100.466
100.439
100.239
100.157
100.106
100.073
100.056
100.037
99.9944
99.9812
99.9735
99.9684
99.9355
99.9356
99.9531
99.9855
100.012
100.033
100.042
100.051
100.058
100.053
100.331
100.175
100.069
100.014
100.011
100.03
100.015
100.037
100.073
100.075
100.04
100.012
99.9831
99.9823
100.001
100.032
100.049
100.067
100.086
100.113
100.37
100.182
100.004
99.9421
99.943
99.9758
99.9899
100.046
100.095
100.113
100.123
100.117
100.099
100.073
100.047
100.039
100.043
100.058
100.085
100.135
100.371
100.144
99.9254
99.8833
99.891
99.9303
99.9581
100.027
100.075
100.115
100.146
100.152
100.165
100.161
100.151
100.142
100.132
100.129
100.121
100.144
100.265
100.047
99.8664
99.852
99.8754
99.912
99.9452
100.02
100.055
100.099
100.132
100.154
100.186
100.196
100.203
100.211
100.216
100.222
100.224
100.241
100.062
99.9439
99.8187
99.8327
99.8959
99.9281
99.9873
100.046
100.054
100.101
100.124
100.145
100.182
100.205
100.225
100.245
100.266
100.284
100.294
100.332
99.9248
99.848
99.7771
99.8296
99.9424
100.021
100.102
100.14
100.155
100.181
100.193
100.208
100.216
100.23
100.248
100.271
100.298
100.329
100.35
100.396
99.8087
99.7565
99.7567
99.8287
99.9504
100.087
100.19
100.214
100.246
100.28
100.299
100.307
100.323
100.332
100.339
100.346
100.357
100.379
100.409
100.451
99.685
99.641
99.7548
99.8545
99.9538
100.131
100.246
100.253
100.289
100.332
100.355
100.368
100.39
100.399
100.413
100.427
100.443
100.46
100.496
100.49
99.5913
99.5638
99.7401
99.9144
100.054
100.239
100.272
100.276
100.314
100.363
100.392
100.414
100.438
100.452
100.473
100.495
100.519
100.541
100.579
100.569
99.5393
99.5282
99.7346
99.9844
100.177
100.333
100.339
100.371
100.426
100.463
100.483
100.499
100.51
100.519
100.536
100.562
100.593
100.621
100.657
100.656
99.5071
99.5268
99.7975
100.072
100.307
100.38
100.41
100.472
100.523
100.558
100.573
100.588
100.599
100.612
100.632
100.656
100.681
100.707
100.725
100.734
99.4731
99.613
99.9435
100.175
100.382
100.426
100.476
100.552
100.598
100.627
100.642
100.659
100.678
100.702
100.73
100.754
100.772
100.784
100.781
100.775
99.47
99.7847
100.072
100.29
100.433
100.519
100.61
100.651
100.688
100.708
100.723
100.742
100.765
100.792
100.812
100.823
100.821
100.815
100.791
100.748
99.4259
99.8764
100.209
100.43
100.599
100.694
100.739
100.773
100.796
100.808
100.819
100.835
100.851
100.855
100.854
100.843
100.792
100.678
100.518
100.28
99.5006
100.111
100.46
100.656
100.768
100.816
100.841
100.863
100.876
100.882
100.882
100.883
100.881
100.857
100.77
100.622
100.359
100.101
100.005
99.9978
100.119
100.522
100.738
100.84
100.888
100.904
100.92
100.923
100.918
100.908
100.894
100.838
100.724
100.469
100.147
100.01
99.9967
99.9985
99.9992
99.9998
100.696
100.837
100.914
100.948
100.958
100.954
100.952
100.928
100.847
100.764
100.574
100.231
100.029
99.9957
99.9978
99.9989
99.9998
100
100
100
100.998
100.996
100.992
100.987
100.977
100.953
100.874
100.432
99.8579
100
100
100
100
100
100
100
100
100
100
100
100.996
100.994
100.988
100.976
100.954
100.861
100.479
100.01
100
100
100
100
100
100
100
100
100
100
100
100
100.991
100.992
100.988
100.967
100.925
100.644
100.044
99.9993
100
100
100
100
100
100
100
100
100
100
100
100
100.985
100.991
100.987
100.954
100.802
100.231
99.9965
100
100
100
100
100
100
100
100
100
100
100
100
100
100.978
100.989
100.985
100.915
100.578
99.9919
100
100
100
100
100
100
100
100
100
100
100
100
100
100
100.973
100.985
100.98
100.833
100.237
100
100
100
100
100
100
100
100
100
100
100
100
100
100
100
100.972
100.979
100.965
100.691
99.9928
100
100
100
100
100
100
100
100
100
100
100
100
100
100
100
100.984
100.976
100.918
100.477
100
100
100
100
100
100
100
100
100
100
100
100
100
100
100
100
101.005
100.977
100.824
100.127
100
100
100
100
100
100
100
100
100
100
100
100
100
100
100
100
101.015
100.942
100.687
99.9964
100
100
100
100
100
100
100
100
100
100
100
100
100
100
100
100
101.024
100.908
100.501
100
100
100
100
100
100
100
100
100
100
100
100
100
100
100
100
100
101.028
100.856
100.32
100
100
100
100
100
100
100
100
100
100
100
100
100
100
100
100
100
101.03
100.799
100.121
100
100
100
100
100
100
100
100
100
100
100
100
100
100
100
100
100
101.023
100.726
100.001
100
100
100
100
100
100
100
100
100
100
100
100
100
100
100
100
100
101.01
100.655
100
100
100
100
100
100
100
100
100
100
100
100
100
100
100
100
100
100
100.991
100.579
100
100
100
100
100
100
100
100
100
100
100
100
100
100
100
100
100
100
100.965
100.449
100
100
100
100
100
100
100
100
100
100
100
100
100
100
100
100
100
100
100.912
100.246
100
100
100
100
100
100
100
100
100
100
100
100
100
100
100
100
100
100
100.854
100.005
100
100
100
100
100
100
100
100
100
100
100
100
100
100
100
100
100
100
100.803
100
100
100
100
100
100
100
100
100
100
100
100
100
100
100
100
100
100
100
100.803
100
100
100
100
100
100
100
100
100
100
100
100
100
100
100
100
100
100
100
100.854
100.005
100
100
100
100
100
100
100
100
100
100
100
100
100
100
100
100
100
100
100.912
100.246
100
100
100
100
100
100
100
100
100
100
100
100
100
100
100
100
100
100
100.965
100.449
100
100
100
100
100
100
100
100
100
100
100
100
100
100
100
100
100
100
100.991
100.579
100
100
100
100
100
100
100
100
100
100
100
100
100
100
100
100
100
100
101.01
100.655
100
100
100
100
100
100
100
100
100
100
100
100
100
100
100
100
100
100
101.023
100.726
100.001
100
100
100
100
100
100
100
100
100
100
100
100
100
100
100
100
100
101.03
100.799
100.121
100
100
100
100
100
100
100
100
100
100
100
100
100
100
100
100
100
101.028
100.856
100.32
100
100
100
100
100
100
100
100
100
100
100
100
100
100
100
100
100
101.024
100.908
100.501
100
100
100
100
100
100
100
100
100
100
100
100
100
100
100
100
100
101.015
100.942
100.687
99.9964
100
100
100
100
100
100
100
100
100
100
100
100
100
100
100
100
101.005
100.977
100.824
100.127
100
100
100
100
100
100
100
100
100
100
100
100
100
100
100
100
100.984
100.976
100.918
100.477
100
100
100
100
100
100
100
100
100
100
100
100
100
100
100
100
100.972
100.979
100.965
100.691
99.9928
100
100
100
100
100
100
100
100
100
100
100
100
100
100
100
100.973
100.985
100.98
100.833
100.237
100
100
100
100
100
100
100
100
100
100
100
100
100
100
100
100.978
100.989
100.985
100.915
100.578
99.9919
100
100
100
100
100
100
100
100
100
100
100
100
100
100
100.985
100.991
100.987
100.954
100.802
100.231
99.9965
100
100
100
100
100
100
100
100
100
100
100
100
100
100.991
100.992
100.988
100.967
100.925
100.644
100.044
99.9993
100
100
100
100
100
100
100
100
100
100
100
100
100.996
100.994
100.988
100.976
100.954
100.861
100.479
100.01
100
100
100
100
100
100
100
100
100
100
100
100
100.998
100.996
100.992
100.987
100.977
100.953
100.874
100.432
99.8579
100
100
100
100
100
100
100
100
100
100
100
100.696
100.837
100.914
100.948
100.958
100.954
100.952
100.928
100.847
100.764
100.574
100.231
100.029
99.9957
99.9978
99.9989
99.9998
100
100
100
100.119
100.522
100.737
100.84
100.888
100.904
100.92
100.923
100.918
100.908
100.894
100.838
100.724
100.469
100.147
100.01
99.9967
99.9985
99.9992
99.9998
99.5008
100.112
100.46
100.656
100.768
100.816
100.841
100.863
100.876
100.882
100.882
100.883
100.881
100.857
100.77
100.622
100.359
100.101
100.005
99.9978
99.4249
99.8766
100.21
100.43
100.598
100.694
100.739
100.773
100.796
100.808
100.819
100.835
100.851
100.855
100.854
100.843
100.792
100.678
100.518
100.28
99.4691
99.7831
100.071
100.291
100.434
100.519
100.61
100.651
100.688
100.708
100.723
100.742
100.765
100.792
100.812
100.823
100.821
100.815
100.791
100.748
99.472
99.6092
99.9419
100.176
100.383
100.426
100.477
100.552
100.598
100.627
100.642
100.659
100.678
100.702
100.73
100.754
100.772
100.784
100.781
100.775
99.5066
99.5259
99.7948
100.071
100.307
100.38
100.41
100.472
100.523
100.558
100.573
100.588
100.599
100.612
100.632
100.656
100.681
100.707
100.725
100.734
99.5393
99.5279
99.7344
99.9822
100.177
100.334
100.339
100.371
100.426
100.463
100.483
100.499
100.51
100.519
100.536
100.562
100.593
100.621
100.657
100.656
99.5922
99.5643
99.7395
99.9134
100.053
100.239
100.272
100.276
100.314
100.363
100.392
100.414
100.438
100.452
100.473
100.495
100.519
100.541
100.579
100.569
99.6866
99.6417
99.7545
99.8544
99.9537
100.131
100.245
100.252
100.288
100.332
100.355
100.368
100.39
100.399
100.413
100.427
100.443
100.46
100.496
100.49
99.8104
99.7572
99.7566
99.8288
99.9504
100.086
100.19
100.214
100.246
100.28
100.299
100.307
100.323
100.332
100.339
100.346
100.357
100.379
100.409
100.451
99.9264
99.8488
99.7775
99.8297
99.9423
100.021
100.102
100.14
100.155
100.181
100.193
100.208
100.215
100.23
100.248
100.271
100.298
100.329
100.35
100.396
100.064
99.9449
99.8195
99.8329
99.8958
99.9281
99.9873
100.046
100.054
100.101
100.123
100.144
100.181
100.205
100.225
100.245
100.266
100.284
100.294
100.332
100.267
100.048
99.8671
99.8525
99.8757
99.9122
99.9455
100.02
100.055
100.099
100.131
100.154
100.186
100.196
100.203
100.211
100.216
100.222
100.224
100.241
100.371
100.145
99.9261
99.8839
99.8914
99.9306
99.9585
100.028
100.075
100.115
100.146
100.152
100.165
100.161
100.151
100.142
100.132
100.129
100.121
100.144
100.37
100.182
100.005
99.943
99.9438
99.9763
99.9904
100.046
100.095
100.113
100.123
100.117
100.099
100.073
100.047
100.039
100.043
100.058
100.085
100.135
100.331
100.175
100.069
100.015
100.012
100.03
100.015
100.037
100.073
100.075
100.04
100.011
99.9829
99.9821
100.001
100.032
100.049
100.067
100.085
100.113
100.239
100.156
100.106
100.074
100.057
100.037
99.9944
99.981
99.9732
99.968
99.9351
99.9353
99.953
99.9854
100.012
100.033
100.042
100.051
100.058
100.053
100.2
100.2
100.252
100.297
100.33
100.377
100.46
100.557
100.592
100.577
100.519
100.503
100.515
100.5
100.467
100.46
100.463
100.466
100.471
100.442
100.536
100.744
100.765
100.791
100.832
100.9
100.992
101.11
101.167
101.165
101.157
101.146
101.135
101.126
101.112
101.1
101.092
101.087
101.08
101.061
101.036
100.995
100.956
100.923
100.917
100.895
100.803
100.61
100.372
100.183
100.07
100.003
99.9702
99.961
99.957
99.9611
99.976
99.9917
99.9988
100
100.55
100.595
100.593
100.643
100.734
100.796
100.759
100.624
100.429
100.238
100.098
100.003
99.9632
99.9552
99.9544
99.96
99.976
99.9919
99.9988
100
100.02
100.024
100.066
100.175
100.372
100.578
100.647
100.605
100.476
100.303
100.144
100.025
99.9653
99.9537
99.9505
99.956
99.9745
99.9918
99.9988
100
100.082
100.079
100.084
100.072
100.074
100.259
100.473
100.503
100.453
100.332
100.172
100.042
99.9653
99.9474
99.9465
99.9551
99.9753
99.9923
99.9989
100
100.138
100.127
100.128
100.121
100.083
100.078
100.181
100.342
100.351
100.289
100.169
100.05
99.9669
99.9422
99.9418
99.9527
99.9749
99.9925
99.999
100
100.183
100.177
100.168
100.156
100.13
100.106
100.095
100.107
100.145
100.122
100.078
100.022
99.9665
99.9378
99.9374
99.9511
99.9754
99.993
99.9991
100
100.233
100.214
100.204
100.201
100.183
100.149
100.122
100.097
100.06
99.9566
99.9156
99.9415
99.9392
99.931
99.9333
99.9503
99.9758
99.9933
99.9992
100
100.304
100.265
100.237
100.236
100.221
100.177
100.148
100.124
100.08
99.9833
99.8768
99.8711
99.8953
99.9129
99.9285
99.9514
99.977
99.9938
99.9993
100
100.37
100.326
100.276
100.272
100.255
100.203
100.158
100.135
100.093
100.012
99.8957
99.8624
99.8741
99.8976
99.9245
99.9535
99.9792
99.9947
99.9994
100
100.437
100.394
100.332
100.303
100.285
100.236
100.183
100.15
100.101
100.032
99.9283
99.8647
99.8685
99.8884
99.9202
99.9538
99.9806
99.9954
99.9996
100
100.535
100.459
100.383
100.324
100.288
100.244
100.201
100.172
100.134
100.066
99.9665
99.8997
99.8928
99.9008
99.9251
99.9578
99.984
99.9967
99.9997
100
100.614
100.54
100.472
100.401
100.337
100.273
100.219
100.182
100.134
100.055
99.9572
99.9093
99.9102
99.9206
99.9434
99.9709
99.9906
99.9985
99.9999
100
100.605
100.579
100.529
100.454
100.385
100.328
100.261
100.19
100.126
100.046
99.9552
99.9196
99.9242
99.9417
99.9655
99.9854
99.9962
99.9996
100
100
100.487
100.53
100.521
100.49
100.432
100.364
100.295
100.219
100.152
100.083
100.017
99.9809
99.9795
99.9849
99.9932
99.9978
99.9995
99.9999
100
100
100.249
100.356
100.423
100.424
100.409
100.371
100.32
100.256
100.179
100.111
100.058
100.03
100.019
100.013
100.005
100.001
100
100
100
100
100.041
100.134
100.222
100.284
100.295
100.289
100.267
100.229
100.177
100.123
100.08
100.051
100.031
100.015
100.005
100
100
100
100
100
100.002
100.012
100.049
100.112
100.159
100.175
100.17
100.152
100.126
100.096
100.068
100.045
100.026
100.01
100.002
100
100
100
100
100
100
100
100.002
100.011
100.037
100.065
100.083
100.082
100.076
100.062
100.044
100.027
100.012
100.003
100
100
100
100
100
100
100
100
100
100
100.001
100.005
100.013
100.019
100.021
100.019
100.013
100.006
100.002
100
100
100
100
100
100
100
100
100
100
100
100
100
100
100.001
100.001
100.001
100.001
100
100
100
100
100
100
100
100
100
100
100
100
100
100
100
100
100
100
100
100
100
100
100
100
100
100
100
100
100
100
100
100
100
100
100
100
100
100
100
100
100
100
100
100
100
100
100
100
100
100
100
100
100
100
100
100
100
100
100
100
100
100
100
100
100
100
100
100
100
100
100
100
100
100
100
100
100
100
100
100
100
100
100
100
100
100
100
100
100
100
100
100
100
100
100
100
100
100
100
100
100
100
100
100
100
100
100
100
100
100.595
100.652
100.608
100.414
100.142
100.017
100.001
100
100
100
100
100
100
100
100
100.67
100.661
100.517
100.218
100.022
100
100
100
100
100
100
100
100
100
100
100.704
100.635
100.373
100.073
100.002
100
100
100
100
100
100
100
100
100
100
100.718
100.516
100.166
100.009
100
100
100
100
100
100
100
100
100
100
100
100.651
100.283
100.024
100
100
100
100
100
100
100
100
100
100
100
100
100.397
100.038
100
100
100
100
100
100
100
100
100
100
100
100
100
100.043
100
100
100
100
100
100
100
100
100
100
100
100
100
100
99.9995
100
100
100
100
100
100
100
100
100
100
100
100
100
100
100
100
100
100
100
100
100
100
100
100
100
100
100
100
100
100
100
100
100
100
100
100
100
100
100
100
100
100
100
100
100
100
100
100
100
100
100
100
100
100
100
100
100
100
100
100
100
100
100
100
100
100
100
100
100
100
100
100
100
100
100
100
100
100
100
100
100
100
100
100
100
100
100
100
100
100
100
100
100
100
100
100
100
100
100
100
100
100
100
100
100
100
100
100
100
100
100
100
100
100
100
100
100
100
100
100
100
100
100
100
100
100
100
100
100
100
100
100
100
100
100
100
100
100
100
100
100
100
100
100
100
100
100
100
100
100
100
100
100
100
100
100
100
100
100
100
100
100
100
100
100
100
100
100
100
100
100
100
100
100
100
100
100
100
100
100
100
100
100
100
100
100
100
100
100
100
100
100
100
100
100
100
100
100
100
100
100
100
100
100
100
100
100
100
100
100
100
100
100
100
100
100
100
100
100
100
100
100
100
100
100
100
100
100
100
100
100
100
100
100
100
100
100
100
100
100
100
100
100
100
100
100
100
100
100
100
100
100
100
100
100
100
100
100
100
100
100
100
100
100
100
100
100
100
100
100
100
100
100
100
100
100
100
100
100
100
100
100
100
100
100
100
100
100
100
100
100
100
100
100
100
100
100
100
100
100
100
100
100
100
100
100
100
100
100
100
100
100
100
100
100
100
100
100
100
100
100
100
100
100
100
100
100
100
100
100
100
100
100
100
100
100
100
100
100
100
100
100
100
100
100
100
100
100
100
100
100
100
100
100
100
100
100
100
100
100
100
100
100
100
100
100
100
100
100
100
100
100
100
100
100
100
100
100
100
100
100
100
100
100
100
100
100
100
100
100
100
100
100
100
100
100
100
100
100
100
100
100
100
100
100
100
100
100
100
100
100
100
100
100
100
100
100
100
100
100
100
100
100
100
100
100
100
100
100
100
100
100
100
100
100
100
100
100
100
100
100
100
100
100
100
100
100
100
100
100
100
100
100
100
100
100
100
100
100
100
100
100
100
100
100
100
100
100
100
100
100
100
100
100
100
100
100
100
100
100
100
100
100
100
100
100
100
100
100
100
100
100
100
100
100
100
100
100
100
100
100
100
100
100
100
100
100
100
100
100
100
100
100
100
100
100
100
100
100
100
100
100
100
100
100
100
100
100
100
100
100
100
100
100
100
100
100
100
100
100
100
100
100
100
100
100
100
100
100
100
100
100
100
100
100
100
100
100
100
100
100
100
100
100
100
100
100
100
100
100
100
100
100
100
100
100
100
100
100
100
100
100
100
100
100
100
100
100
100
100
100
100
100
100
100
100
100
100
100
100
100
100
100
100
100
100
100
100
100
100
100
100
100
100
100
100
100
100
100
100
100
100
100
100
100
100
100
100
100
100
100
100
100
100
100
100
100
100
100
100
100
100
100
100
100
100
100
100
100
100
100
100
100
100
100
100
100
100
100
100
100
100
100
100
100
100
100
100
100
100
100
100
100
100
100
100
100
100
100
100
100
100
100
100
100
100
100
100
100
100
100
100
100
100
100
100
100
100
100
100
100
100
100
100
100
100
100
100
100
100
100
100
100
100
100
100
100
100
100
100
100
100
100
100
100
100
100
100
100
100
100
100
100
100
100
100
100
100
100
100
100
100
100
100
100
100
100
100
100
100
100
100
100
100
100
100
100
100
100
100
100
100
100
100
100
100
100
100
100
100
100
100
100
100
100
100
100
100
100
100
100
100
100
100
100
100
100
100
100
100
100
100
100
100
100
100
100
100
100
100
100
100
100
100
100
100
100
100
100
100
100
100
100
100
100
100
100
100
100
100
100
100
100
100
100
100
100
100
100
100
100
100
100
100
100
100
100
100
100
100
100
100
100
100
100
100
100
100
100
100
100
100
100
100
100
100
100
100
100
100
100
100
100
100
100
100
100
100
100
100
100
100
100
100
99.9995
100
100
100
100
100
100
100
100
100
100
100
100
100
100
100.043
100
100
100
100
100
100
100
100
100
100
100
100
100
100
100.397
100.038
100
100
100
100
100
100
100
100
100
100
100
100
100
100.651
100.283
100.024
100
100
100
100
100
100
100
100
100
100
100
100
100.718
100.516
100.166
100.009
100
100
100
100
100
100
100
100
100
100
100
100.704
100.635
100.373
100.073
100.002
100
100
100
100
100
100
100
100
100
100
100.67
100.661
100.517
100.218
100.022
100
100
100
100
100
100
100
100
100
100
100.595
100.652
100.608
100.415
100.142
100.017
100.001
100
100
100
100
100
100
100
100
100.535
100.615
100.605
100.487
100.249
100.041
100.002
100
100
100
100
100
100
100
100
100.458
100.54
100.579
100.531
100.356
100.134
100.012
100
100
100
100
100
100
100
100
100.382
100.472
100.53
100.521
100.423
100.222
100.049
100.002
100
100
100
100
100
100
100
100.325
100.401
100.454
100.49
100.424
100.284
100.112
100.011
100
100
100
100
100
100
100
100.287
100.337
100.385
100.432
100.409
100.295
100.159
100.037
100.001
100
100
100
100
100
100
100.242
100.274
100.329
100.363
100.371
100.289
100.175
100.065
100.005
100
100
100
100
100
100
100.198
100.217
100.261
100.295
100.32
100.267
100.17
100.083
100.013
100
100
100
100
100
100
100.172
100.181
100.191
100.219
100.256
100.229
100.152
100.082
100.019
100.001
100
100
100
100
100
100.136
100.133
100.125
100.152
100.179
100.177
100.126
100.076
100.021
100.001
100
100
100
100
100
100.068
100.053
100.045
100.083
100.11
100.123
100.096
100.062
100.019
100.001
100
100
100
100
100
99.9683
99.9549
99.9542
100.018
100.058
100.08
100.068
100.044
100.013
100.001
100
100
100
100
100
99.9034
99.909
99.9181
99.9809
100.03
100.051
100.045
100.027
100.006
100
100
100
100
100
100
99.8967
99.9105
99.9225
99.9792
100.019
100.031
100.026
100.012
100.002
100
100
100
100
100
100
99.9034
99.9211
99.9405
99.9846
100.013
100.015
100.01
100.003
100
100
100
100
100
100
100
99.9255
99.9434
99.965
99.9931
100.005
100.005
100.002
100
100
100
100
100
100
100
100
99.9574
99.9706
99.9853
99.9978
100.001
100
100
100
100
100
100
100
100
100
100
99.9839
99.9905
99.9962
99.9995
100
100
100
100
100
100
100
100
100
100
100
99.9967
99.9985
99.9996
99.9999
100
100
100
100
100
100
100
100
100
100
100
99.9997
99.9999
100
100
100
100
100
100
100
100
100
100
100
100
100
100
100
100
100
100
100
100
100
100
100
100
100
100
100
100
100.437
100.394
100.332
100.303
100.284
100.234
100.186
100.148
100.108
100.04
99.9365
99.8693
99.871
99.8887
99.9199
99.9537
99.9806
99.9954
99.9996
100
100.37
100.327
100.276
100.272
100.256
100.202
100.16
100.133
100.094
100.02
99.9049
99.8634
99.8741
99.8978
99.925
99.9539
99.9793
99.9947
99.9994
100
100.304
100.266
100.236
100.236
100.221
100.177
100.148
100.125
100.081
99.9903
99.8793
99.8702
99.8936
99.9124
99.9294
99.952
99.9771
99.9938
99.9993
100
100.233
100.214
100.203
100.201
100.184
100.15
100.123
100.099
100.061
99.9604
99.9165
99.9399
99.9384
99.9308
99.9333
99.9508
99.9758
99.9933
99.9992
100
100.183
100.177
100.168
100.156
100.131
100.106
100.094
100.107
100.146
100.125
100.078
100.02
99.9667
99.9382
99.9371
99.9507
99.9751
99.9929
99.9991
100
100.138
100.127
100.127
100.121
100.085
100.078
100.181
100.34
100.348
100.286
100.165
100.048
99.9669
99.9421
99.9418
99.953
99.9754
99.9927
99.999
100
100.082
100.079
100.083
100.072
100.075
100.258
100.473
100.502
100.451
100.33
100.171
100.041
99.9647
99.9477
99.9471
99.9541
99.9744
99.992
99.9989
100
100.02
100.024
100.066
100.176
100.373
100.578
100.647
100.604
100.474
100.302
100.144
100.025
99.9645
99.9534
99.9512
99.9571
99.975
99.9919
99.9988
100
100.55
100.594
100.593
100.643
100.734
100.796
100.758
100.624
100.426
100.234
100.098
100.003
99.9623
99.9536
99.9515
99.9573
99.9746
99.9915
99.9988
100
101.036
100.995
100.956
100.924
100.917
100.895
100.802
100.61
100.369
100.173
100.061
100.002
99.9697
99.9602
99.9566
99.9607
99.9758
99.9917
99.9988
100
)
;

boundaryField
{
    inlet
    {
        type            fixedValue;
        value           uniform 100;
    }
    outlet
    {
        type            inletOutlet;
        inletValue      uniform 100;
        value           nonuniform List<scalar> 
50
(
100
100
100
100
100
100
100
100
100
100
100
100
100
100
100
100
100
100
100
100
100
100
100
100
100
100
100
100
100
100
100
100
100
100
100
100
100
100
100
100
100
100
100
100
100
100
100
100
100
100
)
;
    }
    airfoil
    {
        type            zeroGradient;
    }
    top
    {
        type            symmetryPlane;
    }
    bottom
    {
        type            symmetryPlane;
    }
    defaultFaces
    {
        type            empty;
    }
}


// ************************************************************************* //
