/*--------------------------------*- C++ -*----------------------------------*\
  =========                 |
  \\      /  F ield         | OpenFOAM: The Open Source CFD Toolbox
   \\    /   O peration     | Website:  https://openfoam.org
    \\  /    A nd           | Version:  7
     \\/     M anipulation  |
\*---------------------------------------------------------------------------*/
FoamFile
{
    version     2.0;
    format      ascii;
    class       volVectorField;
    location    "1.2";
    object      U;
}
// * * * * * * * * * * * * * * * * * * * * * * * * * * * * * * * * * * * * * //

dimensions      [0 1 -1 0 0 0 0];

internalField   nonuniform List<vector> 
3700
(
(1.41785 -0.591382 0)
(1.24806 -0.634676 0)
(1.21393 -0.41374 0)
(1.26009 -0.40421 0)
(1.36836 -0.398574 0)
(1.46902 -0.356341 0)
(1.53771 -0.286183 0)
(1.57406 -0.225801 0)
(1.5827 -0.20714 0)
(1.59727 -0.205883 0)
(1.59303 -0.235602 0)
(1.61465 -0.22909 0)
(1.65392 -0.220837 0)
(1.6839 -0.248426 0)
(1.70618 -0.238393 0)
(1.73964 -0.222433 0)
(1.78655 -0.219803 0)
(1.84856 -0.215444 0)
(1.88765 -0.204908 0)
(1.90427 -0.203094 0)
(1.49196 -1.46893 0)
(1.53402 -1.55428 0)
(1.58834 -1.53422 0)
(1.71849 -1.55059 0)
(1.81228 -1.68617 0)
(1.81539 -1.72085 0)
(1.85518 -1.63104 0)
(1.85415 -1.42751 0)
(1.8779 -1.34151 0)
(1.89649 -1.35292 0)
(1.9315 -1.42119 0)
(1.95003 -1.42221 0)
(1.98186 -1.35383 0)
(2.00183 -1.38218 0)
(2.03002 -1.32932 0)
(2.07007 -1.23829 0)
(2.13724 -1.21513 0)
(2.22093 -1.16848 0)
(2.32313 -1.12146 0)
(2.38623 -1.1143 0)
(1.47075 -1.5225 0)
(1.65488 -1.66057 0)
(1.82188 -1.91836 0)
(1.87905 -2.13299 0)
(1.89719 -2.28446 0)
(1.9509 -2.38423 0)
(2.03577 -2.33864 0)
(2.09604 -2.21176 0)
(2.11319 -2.16684 0)
(2.17236 -2.10661 0)
(2.26555 -2.05649 0)
(2.2972 -2.04623 0)
(2.35751 -1.96295 0)
(2.33667 -1.95407 0)
(2.35267 -1.86543 0)
(2.38174 -1.75938 0)
(2.41212 -1.74059 0)
(2.4718 -1.63387 0)
(2.5331 -1.61366 0)
(2.65309 -1.53155 0)
(1.53933 -1.58189 0)
(1.76636 -1.67541 0)
(1.94615 -2.10275 0)
(1.98976 -2.2302 0)
(2.02262 -2.28067 0)
(2.06017 -2.38913 0)
(2.14046 -2.32471 0)
(2.17509 -2.18093 0)
(2.1082 -2.1222 0)
(2.18652 -1.92809 0)
(2.31325 -1.77319 0)
(2.44136 -1.72728 0)
(2.55717 -1.62901 0)
(2.61004 -1.64652 0)
(2.64447 -1.63344 0)
(2.65304 -1.57222 0)
(2.60337 -1.60587 0)
(2.60657 -1.4801 0)
(2.58343 -1.48503 0)
(2.63025 -1.34677 0)
(1.64152 -1.63487 0)
(1.95842 -1.73627 0)
(2.07553 -2.12899 0)
(2.10391 -2.21216 0)
(2.20879 -2.18599 0)
(2.23434 -2.27991 0)
(2.34822 -2.15769 0)
(2.26885 -2.13655 0)
(2.13813 -2.12003 0)
(2.18299 -1.92437 0)
(2.24361 -1.79256 0)
(2.3737 -1.67821 0)
(2.44955 -1.58929 0)
(2.59179 -1.4981 0)
(2.68416 -1.34218 0)
(2.76923 -1.19545 0)
(2.79105 -1.15753 0)
(2.79476 -1.08615 0)
(2.74335 -1.13249 0)
(2.67751 -1.15362 0)
(1.73503 -1.68952 0)
(2.10304 -1.75995 0)
(2.04798 -2.17302 0)
(2.05647 -2.21768 0)
(2.18773 -2.16625 0)
(2.26311 -2.22461 0)
(2.38526 -2.01364 0)
(2.35946 -2.00302 0)
(2.28055 -2.01411 0)
(2.35267 -1.79888 0)
(2.34639 -1.77228 0)
(2.41537 -1.60058 0)
(2.45694 -1.50772 0)
(2.52804 -1.46213 0)
(2.5877 -1.35541 0)
(2.66012 -1.22341 0)
(2.7464 -1.06632 0)
(2.82643 -0.890086 0)
(2.84168 -0.717421 0)
(2.76635 -0.686359 0)
(1.90085 -1.73863 0)
(2.04561 -1.76598 0)
(1.86508 -2.18581 0)
(1.92469 -2.21101 0)
(2.13632 -2.14419 0)
(2.23517 -2.1644 0)
(2.42102 -1.80829 0)
(2.42409 -1.85212 0)
(2.39316 -1.85793 0)
(2.45627 -1.62369 0)
(2.50217 -1.62606 0)
(2.58575 -1.44468 0)
(2.58312 -1.37142 0)
(2.5987 -1.30651 0)
(2.61643 -1.18425 0)
(2.63429 -1.11037 0)
(2.66371 -0.999159 0)
(2.74791 -0.907678 0)
(2.76168 -0.698049 0)
(2.78879 -0.505488 0)
(1.86204 -1.69107 0)
(1.77128 -1.84205 0)
(1.62013 -2.18077 0)
(1.78674 -2.14393 0)
(1.92084 -2.02377 0)
(1.99275 -2.03712 0)
(2.24638 -1.71476 0)
(2.33812 -1.74973 0)
(2.51681 -1.52172 0)
(2.61745 -1.44186 0)
(2.64519 -1.35845 0)
(2.72833 -1.14955 0)
(2.73343 -1.08828 0)
(2.73802 -1.01953 0)
(2.73798 -0.897584 0)
(2.71567 -0.859504 0)
(2.69839 -0.757292 0)
(2.70423 -0.745647 0)
(2.71138 -0.653929 0)
(2.70476 -0.421733 0)
(1.67305 -1.61468 0)
(1.53225 -1.79974 0)
(1.44715 -2.04467 0)
(1.67208 -2.03607 0)
(1.8449 -1.94195 0)
(1.88967 -1.95201 0)
(2.08857 -1.76639 0)
(2.18796 -1.72105 0)
(2.3715 -1.38407 0)
(2.50195 -1.34805 0)
(2.61825 -1.09589 0)
(2.71841 -0.950192 0)
(2.73319 -0.701834 0)
(2.76938 -0.610608 0)
(2.77566 -0.448836 0)
(2.76952 -0.443147 0)
(2.7522 -0.370497 0)
(2.71815 -0.386493 0)
(2.70115 -0.422046 0)
(2.65922 -0.262499 0)
(1.5227 -1.44949 0)
(1.43743 -1.56037 0)
(1.38561 -1.8391 0)
(1.65215 -1.95545 0)
(1.85521 -1.83206 0)
(1.98334 -1.85949 0)
(2.10447 -1.78095 0)
(2.21136 -1.66335 0)
(2.32456 -1.36115 0)
(2.39028 -1.28178 0)
(2.49581 -1.07904 0)
(2.58926 -0.947449 0)
(2.63315 -0.700009 0)
(2.72641 -0.586976 0)
(2.7123 -0.325993 0)
(2.72821 -0.205109 0)
(2.70828 -0.0527197 0)
(2.67744 -0.0198469 0)
(2.64613 -0.0597866 0)
(2.62737 -0.042363 0)
(1.47308 -1.22568 0)
(1.47593 -1.24409 0)
(1.45445 -1.60276 0)
(1.61926 -1.89392 0)
(1.87762 -1.80983 0)
(2.13402 -1.62974 0)
(2.39829 -1.69197 0)
(2.52359 -1.42201 0)
(2.48734 -1.1982 0)
(2.47768 -1.08863 0)
(2.53531 -0.912779 0)
(2.58698 -0.722866 0)
(2.60501 -0.563437 0)
(2.65086 -0.460324 0)
(2.63711 -0.271766 0)
(2.65581 -0.171035 0)
(2.63187 0.00442204 0)
(2.60146 0.133479 0)
(2.54549 0.220034 0)
(2.5721 0.151644 0)
(1.37215 -1.07811 0)
(1.42954 -1.0541 0)
(1.5155 -1.40928 0)
(1.70723 -1.86387 0)
(2.09121 -1.84246 0)
(2.68113 -1.43451 0)
(2.993 -1.39882 0)
(2.86091 -0.810621 0)
(2.71221 -0.660438 0)
(2.64485 -0.564123 0)
(2.65933 -0.421741 0)
(2.64907 -0.229127 0)
(2.6471 -0.144278 0)
(2.63197 -0.0435909 0)
(2.59932 0.0354396 0)
(2.57426 0.065405 0)
(2.54229 0.122896 0)
(2.50852 0.210062 0)
(2.4416 0.362121 0)
(2.45381 0.346702 0)
(1.19228 -0.988955 0)
(1.29782 -0.985078 0)
(1.6044 -1.31502 0)
(1.89519 -1.80369 0)
(2.47684 -1.70205 0)
(2.68789 -1.35022 0)
(2.69746 -1.2118 0)
(2.67665 -0.587127 0)
(2.63888 -0.496928 0)
(2.61576 -0.259966 0)
(2.62964 -0.104548 0)
(2.59271 0.0920768 0)
(2.58333 0.208403 0)
(2.52913 0.34979 0)
(2.48826 0.423319 0)
(2.45525 0.432233 0)
(2.41236 0.452487 0)
(2.39402 0.438969 0)
(2.32137 0.53831 0)
(2.32199 0.51234 0)
(0.975679 -0.90905 0)
(1.2549 -0.979203 0)
(1.91594 -1.33088 0)
(2.33901 -1.67102 0)
(2.3787 -1.35867 0)
(2.46498 -1.29024 0)
(2.48563 -0.829671 0)
(2.48887 -0.597285 0)
(2.49484 -0.413895 0)
(2.51588 -0.201418 0)
(2.53353 -0.000257665 0)
(2.48829 0.217054 0)
(2.46532 0.357717 0)
(2.39897 0.507952 0)
(2.33913 0.622311 0)
(2.302 0.65756 0)
(2.23388 0.727134 0)
(2.20917 0.73058 0)
(2.18123 0.761625 0)
(2.14451 0.784129 0)
(0.756344 -0.740406 0)
(1.36991 -1.06558 0)
(2.2551 -1.55191 0)
(2.26566 -1.38512 0)
(2.33289 -1.05508 0)
(2.50153 -0.91163 0)
(2.4804 -0.134858 0)
(2.48072 -0.13188 0)
(2.44114 0.0736217 0)
(2.44719 0.199375 0)
(2.40783 0.37351 0)
(2.34583 0.520277 0)
(2.2905 0.624205 0)
(2.22853 0.71542 0)
(2.17685 0.76952 0)
(2.13089 0.810484 0)
(2.07539 0.87412 0)
(2.0547 0.904601 0)
(2.03214 0.941121 0)
(2.05992 0.957489 0)
(0.691735 -0.542595 0)
(1.47612 -1.35012 0)
(1.97143 -1.47641 0)
(2.14369 -1.01614 0)
(2.40049 -0.544907 0)
(2.44229 0.0627674 0)
(2.48325 0.0922676 0)
(2.384 0.400047 0)
(2.31661 0.520596 0)
(2.28889 0.644776 0)
(2.20214 0.781647 0)
(2.12354 0.877358 0)
(2.06731 0.925876 0)
(2.01406 0.974168 0)
(1.98403 0.969974 0)
(1.95833 0.983244 0)
(1.95395 1.01011 0)
(1.96979 0.995607 0)
(1.99406 0.996493 0)
(2.06861 0.981556 0)
(0.931869 -0.467127 0)
(1.74983 -0.835217 0)
(2.13579 -0.878488 0)
(2.29964 0.0920056 0)
(2.38497 0.127876 0)
(2.35724 0.39655 0)
(2.28357 0.539395 0)
(2.20437 0.651543 0)
(2.13469 0.755455 0)
(2.08691 0.893775 0)
(1.97868 1.00611 0)
(1.91527 1.06345 0)
(1.87769 1.08433 0)
(1.8644 1.09105 0)
(1.86917 1.05653 0)
(1.89604 1.0475 0)
(1.96175 1.01948 0)
(2.16315 0.900702 0)
(2.3789 0.790421 0)
(2.77553 0.443157 0)
(1.15799 -0.0586689 0)
(1.94567 -0.143336 0)
(2.22338 0.422548 0)
(2.25557 0.505273 0)
(2.17039 0.7156 0)
(2.17565 0.713091 0)
(2.03517 0.884535 0)
(1.95433 0.970918 0)
(1.9009 1.03423 0)
(1.85221 1.124 0)
(1.79178 1.15566 0)
(1.79259 1.14828 0)
(1.80957 1.12742 0)
(1.84999 1.08445 0)
(2.04022 0.948877 0)
(2.25632 0.82942 0)
(2.66146 0.505597 0)
(3.03613 0.0919088 0)
(3.0558 -0.0243609 0)
(3.0041 -0.00474319 0)
(0.996643 0.0479078 0)
(1.91446 0.757385 0)
(2.09862 0.819856 0)
(1.99291 0.951185 0)
(1.98051 0.958924 0)
(1.86394 1.0845 0)
(1.79023 1.13622 0)
(1.75828 1.14756 0)
(1.75534 1.16391 0)
(1.73304 1.20604 0)
(1.71844 1.19556 0)
(1.87071 1.06582 0)
(2.10362 0.881701 0)
(2.50627 0.574948 0)
(2.98883 0.134305 0)
(3.07393 -0.0297464 0)
(3.00813 -0.00768989 0)
(3.00292 -0.00383677 0)
(3.00123 -0.00219746 0)
(3.00008 -0.000481692 0)
(1.1843 0.729214 0)
(1.81383 1.16062 0)
(1.84301 1.14576 0)
(1.74466 1.19219 0)
(1.70981 1.20815 0)
(1.67209 1.24258 0)
(1.66173 1.21767 0)
(1.72605 1.1683 0)
(1.75255 1.23514 0)
(1.78438 1.14716 0)
(2.27661 0.741545 0)
(2.86242 0.207667 0)
(3.09678 -0.028308 0)
(3.02045 -0.0123856 0)
(3.00455 -0.0054493 0)
(3.00185 -0.00302026 0)
(3.00006 -0.00059268 0)
(2.99998 -2.32481e-05 0)
(2.99999 1.44119e-05 0)
(3 5.94294e-06 0)
(1.57466 1.25154 0)
(1.58181 1.25708 0)
(1.59386 1.26825 0)
(1.60433 1.27025 0)
(1.62012 1.26367 0)
(1.62533 1.25927 0)
(1.88621 1.16915 0)
(2.99379 0.342804 0)
(3.32691 -0.572547 0)
(3 2.00957e-10 0)
(3 -1.31972e-10 0)
(3 1.14295e-10 0)
(3 -1.43295e-14 0)
(3 -4.18362e-13 0)
(3 1.84632e-13 0)
(3 -7.94924e-14 0)
(3 -1.65946e-15 0)
(3 -1.44778e-15 0)
(3 -9.96644e-16 0)
(3 -2.32848e-15 0)
(1.57687 1.24695 0)
(1.59247 1.2582 0)
(1.60295 1.27357 0)
(1.60622 1.28565 0)
(1.64258 1.27119 0)
(1.78534 1.18535 0)
(2.31074 0.715966 0)
(3.00276 0.00789434 0)
(3 5.95613e-08 0)
(3 1.1861e-10 0)
(3 1.98699e-12 0)
(3 -6.04334e-13 0)
(3 -3.72073e-15 0)
(3 -3.80539e-16 0)
(3 -2.8438e-15 0)
(3 -1.66001e-15 0)
(3 -1.51525e-16 0)
(3 -4.06114e-16 0)
(3 4.86855e-16 0)
(3 -2.73322e-17 0)
(1.58218 1.25288 0)
(1.60072 1.25937 0)
(1.60925 1.26901 0)
(1.59659 1.29797 0)
(1.70887 1.22398 0)
(2.14597 0.837453 0)
(2.98527 0.00692735 0)
(3.00031 -0.000622958 0)
(3 6.00728e-07 0)
(3 6.62552e-11 0)
(3 3.77417e-13 0)
(3 -1.49956e-15 0)
(3 -3.29507e-15 0)
(3 -4.57315e-16 0)
(3 -2.23893e-15 0)
(3 -8.89356e-16 0)
(3 -3.11276e-17 0)
(3 6.46183e-16 0)
(3 1.2218e-15 0)
(3 -5.42972e-17 0)
(1.58484 1.25939 0)
(1.60243 1.26297 0)
(1.62126 1.26865 0)
(1.59698 1.2916 0)
(1.93105 1.04196 0)
(2.77235 0.212324 0)
(3.00439 -0.00182279 0)
(2.99992 6.91744e-05 0)
(3 -7.85504e-07 0)
(3 6.2389e-10 0)
(3 4.22676e-13 0)
(3 -1.03592e-14 0)
(3 -1.22703e-15 0)
(3 -9.27493e-16 0)
(3 -2.44941e-15 0)
(3 4.12478e-17 0)
(3 5.76407e-16 0)
(3 1.20864e-15 0)
(3 8.70025e-16 0)
(3 1.43518e-15 0)
(1.58934 1.27421 0)
(1.60271 1.27368 0)
(1.62986 1.26055 0)
(1.62242 1.26823 0)
(2.27468 0.681337 0)
(3.02298 -0.0189092 0)
(2.99972 0.000160744 0)
(3 -4.17585e-06 0)
(3 8.24801e-08 0)
(3 -8.09943e-10 0)
(3 1.18667e-12 0)
(3 -9.7546e-16 0)
(3 -8.55549e-16 0)
(3 -3.87131e-16 0)
(3 -2.11447e-15 0)
(3 -9.79214e-16 0)
(3 1.43118e-15 0)
(3 2.50988e-15 0)
(3 5.51739e-16 0)
(3 1.47551e-15 0)
(1.5898 1.2885 0)
(1.59126 1.28353 0)
(1.64653 1.24808 0)
(1.87137 1.08377 0)
(2.73827 0.215673 0)
(3 -5.83401e-10 0)
(3 1.39332e-08 0)
(3 -1.25633e-08 0)
(3 5.39235e-10 0)
(3 3.05275e-12 0)
(3 -1.15638e-13 0)
(3 3.20995e-15 0)
(3 4.06025e-16 0)
(3 -7.15853e-16 0)
(3 -9.46576e-16 0)
(3 -9.70079e-16 0)
(3 2.52509e-15 0)
(3 2.43687e-15 0)
(3 1.50916e-15 0)
(3 9.34105e-16 0)
(1.58854 1.29942 0)
(1.55264 1.2907 0)
(1.67067 1.22292 0)
(2.13136 0.826722 0)
(3.02358 -0.0195614 0)
(3 -4.71911e-13 0)
(3 -1.91107e-11 0)
(3 2.40826e-11 0)
(3 -3.58097e-12 0)
(3 3.15991e-15 0)
(3 1.63225e-15 0)
(3 1.75216e-15 0)
(3 8.56672e-16 0)
(3 -1.17019e-16 0)
(3 -1.62953e-16 0)
(3 -3.16799e-16 0)
(3 1.6408e-15 0)
(3 3.00107e-15 0)
(3 2.84935e-15 0)
(3 1.8619e-15 0)
(1.58559 1.32395 0)
(1.50114 1.32479 0)
(1.73568 1.19433 0)
(2.39432 0.558987 0)
(3 -4.84467e-09 0)
(3 4.37648e-13 0)
(3 -1.13048e-13 0)
(3 1.86193e-14 0)
(3 7.39446e-15 0)
(3 1.74034e-15 0)
(3 2.02674e-15 0)
(3 2.98184e-15 0)
(3 1.69398e-15 0)
(3 4.93188e-16 0)
(3 2.26789e-16 0)
(3 1.43997e-16 0)
(3 1.03577e-15 0)
(3 2.98886e-15 0)
(3 3.27548e-15 0)
(3 3.25914e-15 0)
(1.58644 1.30413 0)
(1.47538 1.33331 0)
(2.01152 1.03421 0)
(2.89731 0.11266 0)
(3 -1.98127e-09 0)
(3 2.80915e-13 0)
(3 4.34393e-15 0)
(3 3.49064e-15 0)
(3 2.73158e-15 0)
(3 2.44543e-15 0)
(3 2.46101e-15 0)
(3 2.85632e-15 0)
(3 2.56501e-15 0)
(3 2.24914e-15 0)
(3 9.69166e-16 0)
(3 7.75144e-16 0)
(3 1.49119e-15 0)
(3 2.212e-15 0)
(3 2.84255e-15 0)
(3 2.89613e-15 0)
(1.60477 1.297 0)
(1.48494 1.39854 0)
(2.11014 0.865292 0)
(3.01106 -0.00909405 0)
(3 1.17412e-08 0)
(3 -9.72864e-13 0)
(3 6.005e-15 0)
(3 3.63771e-15 0)
(3 3.01196e-15 0)
(3 2.94259e-15 0)
(3 3.3054e-15 0)
(3 3.26444e-15 0)
(3 2.77033e-15 0)
(3 2.34513e-15 0)
(3 1.43983e-15 0)
(3 1.28791e-15 0)
(3 2.24846e-15 0)
(3 3.00187e-15 0)
(3 3.50311e-15 0)
(3 3.67911e-15 0)
(1.62007 1.27937 0)
(1.58256 1.30875 0)
(2.43251 0.527693 0)
(3 8.51648e-14 0)
(3 -7.40843e-12 0)
(3 1.40899e-13 0)
(3 2.32554e-15 0)
(3 3.29061e-15 0)
(3 2.89585e-15 0)
(3 2.28564e-15 0)
(3 2.46584e-15 0)
(3 2.43548e-15 0)
(3 2.86141e-15 0)
(3 3.13086e-15 0)
(3 2.01121e-15 0)
(3 1.88059e-15 0)
(3 2.22982e-15 0)
(3 2.7995e-15 0)
(3 3.62722e-15 0)
(3 4.65637e-15 0)
(1.63225 1.26351 0)
(1.6362 1.2409 0)
(2.64621 0.294518 0)
(3 8.63709e-13 0)
(3 1.72616e-16 0)
(3 1.63814e-15 0)
(3 3.00217e-15 0)
(3 2.94197e-15 0)
(3 3.18046e-15 0)
(3 2.75459e-15 0)
(3 2.20064e-15 0)
(3 1.20936e-15 0)
(3 1.23282e-15 0)
(3 1.41749e-15 0)
(3 1.37279e-15 0)
(3 1.39678e-15 0)
(3 1.00554e-15 0)
(3 1.3842e-15 0)
(3 1.83946e-15 0)
(3 3.11194e-15 0)
(1.6506 1.24589 0)
(1.79324 1.10265 0)
(2.86397 0.0949544 0)
(3 -1.15847e-12 0)
(3 -3.40309e-16 0)
(3 1.30822e-15 0)
(3 2.74773e-15 0)
(3 3.1577e-15 0)
(3 3.61844e-15 0)
(3 3.56543e-15 0)
(3 3.36211e-15 0)
(3 2.24726e-15 0)
(3 5.15386e-16 0)
(3 4.47612e-16 0)
(3 3.84427e-16 0)
(3 7.55352e-16 0)
(3 8.39539e-16 0)
(3 6.75833e-16 0)
(3 5.0879e-16 0)
(3 7.61644e-16 0)
(1.68553 1.19908 0)
(1.92312 0.959455 0)
(2.99864 0.000493876 0)
(3 1.10721e-14 0)
(3 -1.89907e-15 0)
(3 2.55341e-16 0)
(3 7.12803e-16 0)
(3 1.60342e-15 0)
(3 2.57484e-15 0)
(3 1.9682e-15 0)
(3 1.77594e-15 0)
(3 1.38663e-15 0)
(3 -2.31517e-17 0)
(3 4.46498e-17 0)
(3 -2.6968e-17 0)
(3 3.30129e-17 0)
(3 -2.7477e-17 0)
(3 1.81186e-16 0)
(3 5.23575e-16 0)
(3 1.07305e-15 0)
(1.72534 1.15774 0)
(2.0655 0.82189 0)
(3 -8.19542e-15 0)
(3 -6.57196e-15 0)
(3 -4.58354e-15 0)
(3 -4.37846e-15 0)
(3 -3.0368e-15 0)
(3 -9.13227e-16 0)
(3 7.26379e-16 0)
(3 9.27098e-16 0)
(3 5.9767e-16 0)
(3 -7.93773e-16 0)
(3 -1.16309e-15 0)
(3 -9.69759e-16 0)
(3 -6.05838e-16 0)
(3 -5.67821e-16 0)
(3 -5.81652e-16 0)
(3 -6.30656e-16 0)
(3 -5.35433e-16 0)
(3 -3.43869e-17 0)
(1.73493 1.1029 0)
(2.21772 0.656644 0)
(3 -1.09592e-14 0)
(3 -9.0911e-15 0)
(3 -6.37957e-15 0)
(3 -5.43708e-15 0)
(3 -4.81276e-15 0)
(3 -1.77131e-15 0)
(3 6.00106e-17 0)
(3 1.20691e-15 0)
(3 1.70954e-15 0)
(3 1.14802e-15 0)
(3 1.21606e-16 0)
(3 -2.03454e-16 0)
(3 -1.58161e-16 0)
(3 -3.20717e-16 0)
(3 -5.71355e-16 0)
(3 -9.30563e-16 0)
(3 -1.04849e-15 0)
(3 -1.11301e-15 0)
(1.82052 1.01549 0)
(2.42517 0.463365 0)
(3 -1.02291e-14 0)
(3 -9.73279e-15 0)
(3 -7.30073e-15 0)
(3 -5.42148e-15 0)
(3 -5.16853e-15 0)
(3 -3.66166e-15 0)
(3 -2.81295e-15 0)
(3 -1.04114e-15 0)
(3 1.42012e-17 0)
(3 1.05682e-15 0)
(3 1.57903e-16 0)
(3 -1.10058e-16 0)
(3 1.33506e-17 0)
(3 5.65674e-16 0)
(3 5.95683e-16 0)
(3 5.04527e-16 0)
(3 2.92727e-17 0)
(3 -3.92763e-16 0)
(1.92516 0.876957 0)
(2.69466 0.218053 0)
(3 -9.64196e-15 0)
(3 -1.00769e-14 0)
(3 -7.03842e-15 0)
(3 -3.75283e-15 0)
(3 -1.20554e-15 0)
(3 6.99852e-16 0)
(3 2.1641e-15 0)
(3 2.85358e-15 0)
(3 3.18454e-15 0)
(3 2.62229e-15 0)
(3 2.19523e-15 0)
(3 2.02132e-15 0)
(3 2.14548e-15 0)
(3 2.28816e-15 0)
(3 2.23537e-15 0)
(3 1.4119e-15 0)
(3 1.22779e-15 0)
(3 8.23504e-16 0)
(2.1193 0.668499 0)
(2.99014 0.000147206 0)
(3 -6.62851e-15 0)
(3 -6.19291e-15 0)
(3 -5.15912e-15 0)
(3 -3.18786e-15 0)
(3 -9.39362e-16 0)
(3 2.40316e-15 0)
(3 3.08437e-15 0)
(3 3.82441e-15 0)
(3 4.57466e-15 0)
(3 4.67691e-15 0)
(3 3.91885e-15 0)
(3 3.11508e-15 0)
(3 2.55501e-15 0)
(3 2.44107e-15 0)
(3 2.24807e-15 0)
(3 1.81026e-15 0)
(3 1.59955e-15 0)
(3 1.41202e-15 0)
(1.99822 0.368698 0)
(2.99993 -1.0555e-05 0)
(3 -4.56569e-15 0)
(3 -2.3754e-15 0)
(3 -1.97569e-15 0)
(3 -2.15344e-15 0)
(3 -2.83501e-15 0)
(3 -4.30617e-15 0)
(3 -3.01147e-15 0)
(3 -1.22665e-15 0)
(3 -4.73751e-16 0)
(3 1.5057e-16 0)
(3 2.86907e-16 0)
(3 5.19912e-16 0)
(3 1.0981e-15 0)
(3 1.47153e-15 0)
(3 1.46548e-15 0)
(3 1.17871e-15 0)
(3 1.10436e-15 0)
(3 1.10973e-15 0)
(1.99822 -0.368698 0)
(2.99993 1.0555e-05 0)
(3 1.83847e-17 0)
(3 -1.62979e-16 0)
(3 -2.05099e-15 0)
(3 -3.31886e-15 0)
(3 -3.55355e-15 0)
(3 -3.99663e-15 0)
(3 -5.09133e-15 0)
(3 -4.694e-15 0)
(3 -4.35111e-15 0)
(3 -3.75049e-15 0)
(3 -2.55762e-15 0)
(3 -1.84775e-15 0)
(3 -1.37012e-15 0)
(3 -8.71906e-16 0)
(3 -8.48958e-16 0)
(3 -8.2587e-16 0)
(3 -9.53396e-16 0)
(3 -9.93646e-16 0)
(2.1193 -0.668499 0)
(2.99014 -0.000147206 0)
(3 -6.90111e-16 0)
(3 -5.57462e-16 0)
(3 -1.39933e-15 0)
(3 -2.40819e-15 0)
(3 -2.69303e-15 0)
(3 -2.33659e-15 0)
(3 -2.09648e-15 0)
(3 -2.66525e-15 0)
(3 -3.14443e-15 0)
(3 -2.89522e-15 0)
(3 -3.81588e-15 0)
(3 -4.13149e-15 0)
(3 -4.78139e-15 0)
(3 -5.08202e-15 0)
(3 -4.60516e-15 0)
(3 -3.10441e-15 0)
(3 -1.79658e-15 0)
(3 -1.08056e-15 0)
(1.92516 -0.876957 0)
(2.69466 -0.218053 0)
(3 1.65193e-15 0)
(3 5.92885e-16 0)
(3 -1.85232e-15 0)
(3 -2.32482e-15 0)
(3 -2.57067e-15 0)
(3 -2.50082e-15 0)
(3 -2.61341e-15 0)
(3 -2.44048e-15 0)
(3 -2.11157e-15 0)
(3 -2.43445e-15 0)
(3 -3.03344e-15 0)
(3 -3.14534e-15 0)
(3 -3.36791e-15 0)
(3 -3.31226e-15 0)
(3 -2.66312e-15 0)
(3 -1.99636e-15 0)
(3 -6.77508e-16 0)
(3 -1.27398e-15 0)
(1.82052 -1.01549 0)
(2.42517 -0.463365 0)
(3 1.45905e-16 0)
(3 3.01247e-16 0)
(3 1.03729e-15 0)
(3 1.15955e-16 0)
(3 8.47e-17 0)
(3 -3.07891e-16 0)
(3 -1.37426e-16 0)
(3 6.7511e-16 0)
(3 1.24273e-15 0)
(3 -1.28676e-16 0)
(3 -4.30362e-16 0)
(3 -3.21939e-16 0)
(3 -1.66466e-16 0)
(3 -2.81354e-16 0)
(3 -3.73645e-16 0)
(3 -6.30804e-16 0)
(3 -1.07002e-15 0)
(3 -1.59727e-15 0)
(1.73493 -1.1029 0)
(2.21772 -0.656644 0)
(3 2.64464e-15 0)
(3 3.50824e-15 0)
(3 3.25144e-15 0)
(3 2.12772e-15 0)
(3 1.6243e-15 0)
(3 2.26087e-15 0)
(3 3.21456e-15 0)
(3 3.42612e-15 0)
(3 1.0275e-15 0)
(3 1.19826e-16 0)
(3 -7.53096e-17 0)
(3 1.63946e-16 0)
(3 3.42948e-16 0)
(3 3.78459e-16 0)
(3 3.61365e-16 0)
(3 2.97865e-16 0)
(3 2.47868e-16 0)
(3 -2.60629e-16 0)
(1.72534 -1.15774 0)
(2.0655 -0.82189 0)
(3 6.60382e-15 0)
(3 8.24086e-15 0)
(3 2.45922e-15 0)
(3 9.70678e-16 0)
(3 2.05099e-15 0)
(3 2.37299e-15 0)
(3 1.8594e-15 0)
(3 9.83144e-16 0)
(3 -4.26192e-17 0)
(3 -4.69356e-16 0)
(3 -5.57993e-16 0)
(3 -9.79648e-17 0)
(3 -6.21442e-17 0)
(3 4.36302e-17 0)
(3 1.51731e-16 0)
(3 2.73726e-16 0)
(3 6.5921e-17 0)
(3 -4.84739e-16 0)
(1.68553 -1.19908 0)
(1.92312 -0.959456 0)
(2.99864 -0.000493881 0)
(3 -9.83904e-15 0)
(3 5.04909e-15 0)
(3 2.12025e-15 0)
(3 2.24218e-15 0)
(3 2.22333e-15 0)
(3 9.98283e-16 0)
(3 -1.05515e-16 0)
(3 -6.75041e-16 0)
(3 -4.99017e-16 0)
(3 -3.90798e-16 0)
(3 -5.94058e-16 0)
(3 -6.17386e-16 0)
(3 -8.85262e-16 0)
(3 -1.3045e-15 0)
(3 -1.68973e-15 0)
(3 -1.2312e-15 0)
(3 -6.02156e-16 0)
(1.6506 -1.24589 0)
(1.79324 -1.10265 0)
(2.86397 -0.0949543 0)
(3 1.164e-12 0)
(3 3.5481e-15 0)
(3 2.51967e-15 0)
(3 2.15848e-15 0)
(3 5.81903e-16 0)
(3 7.67955e-16 0)
(3 -6.1553e-16 0)
(3 -1.08122e-15 0)
(3 -6.57568e-16 0)
(3 -5.60062e-16 0)
(3 -7.57995e-16 0)
(3 -9.52322e-16 0)
(3 -1.05039e-15 0)
(3 -1.47494e-15 0)
(3 -7.49308e-16 0)
(3 -1.77886e-16 0)
(3 -5.4909e-16 0)
(1.63225 -1.26351 0)
(1.6362 -1.24091 0)
(2.64621 -0.294518 0)
(3 -8.63793e-13 0)
(3 2.61099e-15 0)
(3 1.16812e-15 0)
(3 -6.32002e-16 0)
(3 -8.21048e-16 0)
(3 -6.21253e-16 0)
(3 -3.71208e-16 0)
(3 -2.45822e-17 0)
(3 2.68898e-16 0)
(3 9.39992e-17 0)
(3 -7.5963e-17 0)
(3 -8.19176e-16 0)
(3 -1.09636e-15 0)
(3 -1.09262e-15 0)
(3 -7.21012e-16 0)
(3 -9.77187e-16 0)
(3 -2.39352e-15 0)
(1.62007 -1.27937 0)
(1.58256 -1.30875 0)
(2.43251 -0.527693 0)
(3 -8.67292e-14 0)
(3 7.41482e-12 0)
(3 -1.37554e-13 0)
(3 -8.68909e-16 0)
(3 -1.22418e-15 0)
(3 -4.53899e-16 0)
(3 6.43036e-16 0)
(3 1.79517e-15 0)
(3 1.72053e-15 0)
(3 1.00905e-15 0)
(3 2.50045e-16 0)
(3 -1.12765e-15 0)
(3 -1.43014e-15 0)
(3 -1.60152e-15 0)
(3 -1.99862e-15 0)
(3 -2.58328e-15 0)
(3 -2.64132e-15 0)
(1.60477 -1.297 0)
(1.48494 -1.39854 0)
(2.11014 -0.865292 0)
(3.01106 0.00909405 0)
(3 -1.17411e-08 0)
(3 9.71729e-13 0)
(3 -2.03062e-15 0)
(3 -1.36293e-15 0)
(3 1.66487e-16 0)
(3 1.48408e-15 0)
(3 2.1348e-15 0)
(3 1.67104e-15 0)
(3 1.8294e-16 0)
(3 -6.58986e-16 0)
(3 -1.82756e-15 0)
(3 -1.93118e-15 0)
(3 -1.94743e-15 0)
(3 -2.06073e-15 0)
(3 -2.42493e-15 0)
(3 -2.04179e-15 0)
(1.58644 -1.30413 0)
(1.47538 -1.33332 0)
(2.01152 -1.03421 0)
(2.89731 -0.11266 0)
(3 1.98126e-09 0)
(3 -2.75206e-13 0)
(3 -5.86103e-16 0)
(3 -1.12405e-16 0)
(3 3.64828e-16 0)
(3 2.03491e-15 0)
(3 1.60705e-15 0)
(3 3.77773e-16 0)
(3 -5.96308e-16 0)
(3 -2.37374e-15 0)
(3 -3.08333e-15 0)
(3 -2.87853e-15 0)
(3 -2.25308e-15 0)
(3 -2.19635e-15 0)
(3 -2.47341e-15 0)
(3 -1.66371e-15 0)
(1.58559 -1.32395 0)
(1.50114 -1.32479 0)
(1.73568 -1.19433 0)
(2.39432 -0.558986 0)
(3 4.84671e-09 0)
(3 -4.32633e-13 0)
(3 1.16107e-13 0)
(3 -1.56077e-14 0)
(3 -4.89473e-15 0)
(3 7.26704e-16 0)
(3 -2.98095e-16 0)
(3 -1.49994e-15 0)
(3 -2.1492e-15 0)
(3 -3.59596e-15 0)
(3 -3.4149e-15 0)
(3 -2.43372e-15 0)
(3 -2.21476e-15 0)
(3 -2.23521e-15 0)
(3 -1.75326e-15 0)
(3 -4.31292e-16 0)
(1.58854 -1.29942 0)
(1.55264 -1.2907 0)
(1.67067 -1.22292 0)
(2.13136 -0.826724 0)
(3.02358 0.0195613 0)
(3 4.78104e-13 0)
(3 1.91148e-11 0)
(3 -2.40867e-11 0)
(3 3.58298e-12 0)
(3 -1.29098e-15 0)
(3 -9.28147e-16 0)
(3 -2.2725e-15 0)
(3 -2.74552e-15 0)
(3 -3.52759e-15 0)
(3 -2.49444e-15 0)
(3 -5.39248e-16 0)
(3 -1.26742e-15 0)
(3 -1.61785e-15 0)
(3 -9.82265e-16 0)
(3 8.08001e-16 0)
(1.5898 -1.2885 0)
(1.59126 -1.28353 0)
(1.64653 -1.24808 0)
(1.87138 -1.08377 0)
(2.73827 -0.215672 0)
(3 5.83408e-10 0)
(3 -1.39332e-08 0)
(3 1.25633e-08 0)
(3 -5.39234e-10 0)
(3 -3.0517e-12 0)
(3 1.15534e-13 0)
(3 -4.43372e-15 0)
(3 -1.65529e-15 0)
(3 -2.06641e-15 0)
(3 -1.11573e-15 0)
(3 -2.09759e-15 0)
(3 -1.79684e-15 0)
(3 -3.60063e-16 0)
(3 -2.22833e-15 0)
(3 -1.48891e-16 0)
(1.58934 -1.27421 0)
(1.60271 -1.27368 0)
(1.62986 -1.26055 0)
(1.62242 -1.26823 0)
(2.27468 -0.681338 0)
(3.02298 0.0189091 0)
(2.99972 -0.000160744 0)
(3 4.17585e-06 0)
(3 -8.24801e-08 0)
(3 8.09952e-10 0)
(3 -1.17743e-12 0)
(3 -7.43567e-16 0)
(3 -1.28589e-15 0)
(3 -1.02974e-15 0)
(3 -2.49533e-15 0)
(3 -2.99888e-15 0)
(3 -2.39674e-15 0)
(3 -4.69089e-17 0)
(3 -1.97675e-15 0)
(3 -1.21647e-15 0)
(1.58484 -1.25939 0)
(1.60243 -1.26297 0)
(1.62126 -1.26865 0)
(1.59698 -1.2916 0)
(1.93106 -1.04196 0)
(2.77235 -0.212323 0)
(3.00439 0.00182281 0)
(2.99992 -6.91747e-05 0)
(3 7.85509e-07 0)
(3 -6.23875e-10 0)
(3 -4.25432e-13 0)
(3 4.70434e-15 0)
(3 -2.14468e-15 0)
(3 -1.14526e-15 0)
(3 -2.41052e-15 0)
(3 -2.8481e-15 0)
(3 -3.90611e-15 0)
(3 -3.59009e-16 0)
(3 -1.70667e-15 0)
(3 -2.04045e-15 0)
(1.58218 -1.25288 0)
(1.60072 -1.25937 0)
(1.60925 -1.26901 0)
(1.59659 -1.29797 0)
(1.70887 -1.22398 0)
(2.14597 -0.837455 0)
(2.98527 -0.00692763 0)
(3.00031 0.000622972 0)
(3 -6.00735e-07 0)
(3 -6.62789e-11 0)
(3 -3.80627e-13 0)
(3 -6.83094e-16 0)
(3 -2.3934e-15 0)
(3 -1.51015e-15 0)
(3 -2.68686e-15 0)
(3 -3.04737e-15 0)
(3 -3.33621e-15 0)
(3 -1.13971e-15 0)
(3 -2.27748e-15 0)
(3 -1.77535e-15 0)
(1.57687 -1.24695 0)
(1.59247 -1.2582 0)
(1.60295 -1.27357 0)
(1.60622 -1.28565 0)
(1.64258 -1.27119 0)
(1.78534 -1.18535 0)
(2.31074 -0.715966 0)
(3.00276 -0.00789432 0)
(3 -5.95611e-08 0)
(3 -1.18631e-10 0)
(3 -1.99641e-12 0)
(3 6.02084e-13 0)
(3 -1.79736e-15 0)
(3 -2.26759e-15 0)
(3 -1.94895e-15 0)
(3 -1.48864e-15 0)
(3 -2.45265e-15 0)
(3 -1.52278e-15 0)
(3 -1.86535e-15 0)
(3 -1.48339e-15 0)
(1.57466 -1.25154 0)
(1.58181 -1.25708 0)
(1.59386 -1.26825 0)
(1.60433 -1.27025 0)
(1.62012 -1.26367 0)
(1.62533 -1.25927 0)
(1.88621 -1.16915 0)
(2.99379 -0.342804 0)
(3.32691 0.572546 0)
(3 -2.00954e-10 0)
(3 1.31888e-10 0)
(3 -1.14231e-10 0)
(3 1.05598e-14 0)
(3 4.1645e-13 0)
(3 -1.91853e-13 0)
(3 7.71152e-14 0)
(3 1.29444e-16 0)
(3 -3.86069e-16 0)
(3 -4.9356e-15 0)
(3 -2.83637e-15 0)
(1.18415 -0.729459 0)
(1.81392 -1.16049 0)
(1.84298 -1.14577 0)
(1.74464 -1.1922 0)
(1.70987 -1.2081 0)
(1.67211 -1.24258 0)
(1.66173 -1.21766 0)
(1.72605 -1.1683 0)
(1.75255 -1.23514 0)
(1.78437 -1.14716 0)
(2.2766 -0.741546 0)
(2.86242 -0.207665 0)
(3.09678 0.0283082 0)
(3.02045 0.0123854 0)
(3.00455 0.0054493 0)
(3.00185 0.0030203 0)
(3.00006 0.000592677 0)
(2.99998 2.32482e-05 0)
(2.99999 -1.44118e-05 0)
(3 -5.94288e-06 0)
(0.996612 -0.0479193 0)
(1.91446 -0.757514 0)
(2.0986 -0.819945 0)
(1.99302 -0.951063 0)
(1.98028 -0.959148 0)
(1.8641 -1.08445 0)
(1.79027 -1.13622 0)
(1.75828 -1.14756 0)
(1.75534 -1.16391 0)
(1.73303 -1.20604 0)
(1.71844 -1.19557 0)
(1.87071 -1.06583 0)
(2.10362 -0.8817 0)
(2.50627 -0.574944 0)
(2.98883 -0.134303 0)
(3.07393 0.0297484 0)
(3.00813 0.00769014 0)
(3.00292 0.00383682 0)
(3.00123 0.00219746 0)
(3.00008 0.00048169 0)
(1.15812 0.0590823 0)
(1.94493 0.143529 0)
(2.22379 -0.420713 0)
(2.25521 -0.506454 0)
(2.17058 -0.714908 0)
(2.17549 -0.713263 0)
(2.03534 -0.884503 0)
(1.95445 -0.970889 0)
(1.90091 -1.03426 0)
(1.85218 -1.12403 0)
(1.79178 -1.15567 0)
(1.79261 -1.1483 0)
(1.80959 -1.12742 0)
(1.85 -1.08445 0)
(2.04024 -0.948857 0)
(2.25631 -0.829413 0)
(2.66145 -0.505606 0)
(3.03612 -0.0919174 0)
(3.0558 0.0243598 0)
(3.0041 0.00474315 0)
(0.931606 0.465519 0)
(1.75026 0.834574 0)
(2.13418 0.878976 0)
(2.29939 -0.0864317 0)
(2.3844 -0.130056 0)
(2.35723 -0.396666 0)
(2.28363 -0.539645 0)
(2.20434 -0.651981 0)
(2.13484 -0.755462 0)
(2.08691 -0.893764 0)
(1.97867 -1.00614 0)
(1.91532 -1.06345 0)
(1.87771 -1.08433 0)
(1.8644 -1.09105 0)
(1.86916 -1.05654 0)
(1.89604 -1.04751 0)
(1.96174 -1.01948 0)
(2.16315 -0.9007 0)
(2.3789 -0.790418 0)
(2.77553 -0.443156 0)
(0.688007 0.539961 0)
(1.47813 1.33904 0)
(1.97325 1.47476 0)
(2.14349 1.01627 0)
(2.39972 0.548946 0)
(2.44189 -0.0609119 0)
(2.48288 -0.0924879 0)
(2.38419 -0.399541 0)
(2.31675 -0.5207 0)
(2.28883 -0.644973 0)
(2.20217 -0.781714 0)
(2.12357 -0.877389 0)
(2.06731 -0.925887 0)
(2.01408 -0.974152 0)
(1.98405 -0.96996 0)
(1.95834 -0.983239 0)
(1.95395 -1.0101 0)
(1.96979 -0.995609 0)
(1.99405 -0.996496 0)
(2.06861 -0.981561 0)
(0.756265 0.738626 0)
(1.36365 1.05601 0)
(2.25724 1.54648 0)
(2.26845 1.37964 0)
(2.33175 1.05813 0)
(2.5004 0.911827 0)
(2.48002 0.13699 0)
(2.48088 0.132092 0)
(2.44133 -0.0734878 0)
(2.44726 -0.199339 0)
(2.40787 -0.373498 0)
(2.34586 -0.520271 0)
(2.29058 -0.624118 0)
(2.22854 -0.715411 0)
(2.17683 -0.769573 0)
(2.13088 -0.810534 0)
(2.07538 -0.874138 0)
(2.0547 -0.90461 0)
(2.03213 -0.941129 0)
(2.05992 -0.957491 0)
(0.975135 0.907745 0)
(1.25207 0.976603 0)
(1.90436 1.3298 0)
(2.33727 1.6715 0)
(2.38111 1.35602 0)
(2.46483 1.29019 0)
(2.48551 0.829653 0)
(2.48899 0.59741 0)
(2.49497 0.414211 0)
(2.51603 0.201647 0)
(2.53363 0.000364573 0)
(2.48844 -0.216911 0)
(2.46536 -0.357801 0)
(2.39894 -0.508154 0)
(2.3391 -0.622467 0)
(2.302 -0.657593 0)
(2.23388 -0.727146 0)
(2.20917 -0.730582 0)
(2.18124 -0.761603 0)
(2.14449 -0.784145 0)
(1.19171 0.987929 0)
(1.29717 0.983796 0)
(1.60336 1.31406 0)
(1.88458 1.80639 0)
(2.47928 1.69353 0)
(2.68782 1.35042 0)
(2.69701 1.21327 0)
(2.67681 0.588542 0)
(2.63971 0.497182 0)
(2.61642 0.260116 0)
(2.63002 0.10455 0)
(2.593 -0.0920025 0)
(2.58342 -0.208423 0)
(2.5292 -0.349724 0)
(2.48835 -0.423116 0)
(2.45529 -0.432149 0)
(2.4124 -0.452387 0)
(2.39403 -0.438924 0)
(2.32137 -0.538286 0)
(2.322 -0.512301 0)
(1.37103 1.07821 0)
(1.42896 1.05472 0)
(1.51574 1.40935 0)
(1.7058 1.86018 0)
(2.08349 1.839 0)
(2.6772 1.43589 0)
(2.99022 1.39902 0)
(2.85797 0.810796 0)
(2.71228 0.659799 0)
(2.64547 0.563602 0)
(2.6599 0.42171 0)
(2.64942 0.229118 0)
(2.64727 0.144426 0)
(2.63209 0.043812 0)
(2.59936 -0.0353124 0)
(2.5743 -0.0653485 0)
(2.54232 -0.12289 0)
(2.50855 -0.210049 0)
(2.44162 -0.362141 0)
(2.45381 -0.346755 0)
(1.47167 1.22727 0)
(1.47445 1.24602 0)
(1.45444 1.60248 0)
(1.6202 1.89187 0)
(1.87741 1.80854 0)
(2.13199 1.62919 0)
(2.39567 1.69096 0)
(2.5222 1.4215 0)
(2.48655 1.19877 0)
(2.47776 1.08884 0)
(2.53559 0.913186 0)
(2.58722 0.72303 0)
(2.60521 0.563548 0)
(2.65103 0.460392 0)
(2.63722 0.27166 0)
(2.65593 0.170983 0)
(2.63197 -0.00446503 0)
(2.60152 -0.133602 0)
(2.54551 -0.22011 0)
(2.5721 -0.151731 0)
(1.52269 1.45159 0)
(1.4374 1.56177 0)
(1.38492 1.83914 0)
(1.65207 1.95303 0)
(1.85466 1.83058 0)
(1.98259 1.85742 0)
(2.10304 1.77983 0)
(2.21028 1.66258 0)
(2.32368 1.36148 0)
(2.39006 1.28209 0)
(2.49588 1.07935 0)
(2.58946 0.947655 0)
(2.63339 0.700032 0)
(2.72662 0.586806 0)
(2.71243 0.325683 0)
(2.72828 0.204791 0)
(2.70833 0.052524 0)
(2.67747 0.0197602 0)
(2.64612 0.0596535 0)
(2.62737 0.0423831 0)
(1.67401 1.61655 0)
(1.53267 1.8014 0)
(1.44693 2.04493 0)
(1.67182 2.03439 0)
(1.84398 1.94089 0)
(1.88885 1.95068 0)
(2.08713 1.76559 0)
(2.18683 1.7201 0)
(2.37081 1.38393 0)
(2.50182 1.34785 0)
(2.61819 1.09555 0)
(2.71853 0.950054 0)
(2.73335 0.701715 0)
(2.76946 0.610396 0)
(2.77576 0.448949 0)
(2.76963 0.443414 0)
(2.75226 0.370602 0)
(2.71813 0.386574 0)
(2.7011 0.422162 0)
(2.65918 0.262624 0)
(1.86271 1.6929 0)
(1.77219 1.84324 0)
(1.62033 2.18153 0)
(1.78732 2.14254 0)
(1.91989 2.02339 0)
(1.992 2.03645 0)
(2.24533 1.71464 0)
(2.33765 1.74866 0)
(2.51605 1.52121 0)
(2.61679 1.44185 0)
(2.64503 1.3587 0)
(2.72887 1.14961 0)
(2.73396 1.0885 0)
(2.73836 1.02 0)
(2.73808 0.897933 0)
(2.7157 0.859849 0)
(2.69842 0.757422 0)
(2.70419 0.745647 0)
(2.71137 0.654015 0)
(2.70476 0.42176 0)
(1.89957 1.73947 0)
(2.04564 1.76714 0)
(1.86566 2.18565 0)
(1.92511 2.21059 0)
(2.13636 2.14402 0)
(2.2345 2.16415 0)
(2.42013 1.80859 0)
(2.4233 1.85233 0)
(2.39261 1.85749 0)
(2.4564 1.62333 0)