/*--------------------------------*- C++ -*----------------------------------*\
  =========                 |
  \\      /  F ield         | OpenFOAM: The Open Source CFD Toolbox
   \\    /   O peration     | Website:  https://openfoam.org
    \\  /    A nd           | Version:  7
     \\/     M anipulation  |
\*---------------------------------------------------------------------------*/
FoamFile
{
    version     2.0;
    format      ascii;
    class       volScalarField;
    location    "1.3";
    object      p;
}
// * * * * * * * * * * * * * * * * * * * * * * * * * * * * * * * * * * * * * //

dimensions      [1 -1 -2 0 0 0 0];

internalField   nonuniform List<scalar> 
3700
(
0.0954387
0.173091
0.213559
0.265795
0.308555
0.340733
0.369731
0.406811
0.423354
0.42915
0.450208
0.46816
0.472014
0.479664
0.489309
0.496213
0.505667
0.519169
0.525213
0.519995
0.0715746
0.0818785
0.103051
0.123711
0.129708
0.128947
0.133389
0.137782
0.130065
0.129641
0.133747
0.139501
0.147094
0.161088
0.177418
0.188124
0.194514
0.199223
0.208829
0.204626
0.0785564
0.0791958
0.0801962
0.0710812
0.0619966
0.0574705
0.0571058
0.0541061
0.054795
0.0604448
0.0641679
0.0702389
0.0800014
0.0932228
0.104504
0.113486
0.120655
0.124677
0.128484
0.129593
0.0855585
0.0747603
0.0615445
0.0518869
0.0548622
0.0573194
0.0607409
0.0679255
0.0784041
0.0948787
0.086795
0.0877839
0.0922533
0.104228
0.117163
0.133416
0.151203
0.167501
0.182101
0.193988
0.0939178
0.0646689
0.0488933
0.0447725
0.0483728
0.0541005
0.0609083
0.076964
0.100718
0.124995
0.127598
0.131849
0.122573
0.12102
0.123762
0.139856
0.161892
0.187319
0.212613
0.250998
0.10176
0.0574956
0.0430425
0.0422794
0.0451281
0.0496499
0.0582136
0.0785048
0.107895
0.135393
0.161607
0.175785
0.181136
0.183559
0.180195
0.180933
0.187799
0.206469
0.238055
0.30102
0.100104
0.0507322
0.0397975
0.0415751
0.0444954
0.0490272
0.0578571
0.0779204
0.106574
0.137275
0.17474
0.197911
0.225253
0.24529
0.259489
0.271955
0.282927
0.295919
0.310898
0.367698
0.0942545
0.0468531
0.0390687
0.0428415
0.0470566
0.0522649
0.0650757
0.0912796
0.108565
0.134436
0.172302
0.207247
0.252252
0.288438
0.322477
0.360471
0.394508
0.431699
0.455739
0.524969
0.0826848
0.0444787
0.0386848
0.0467567
0.0539669
0.0654306
0.0947746
0.12829
0.143243
0.167272
0.185944
0.22154
0.275967
0.328628
0.379451
0.437767
0.502223
0.571554
0.624589
0.745783
0.0654316
0.0387042
0.0345358
0.0442447
0.0552982
0.075226
0.128591
0.173646
0.211606
0.257986
0.299216
0.346994
0.392455
0.445107
0.49144
0.548919
0.628854
0.729204
0.836226
0.976807
0.0496587
0.0308909
0.0282508
0.0399764
0.0542018
0.077277
0.147682
0.205475
0.272978
0.355048
0.43237
0.503981
0.579471
0.647676
0.705997
0.772779
0.852567
0.945243
1.14763
1.14362
0.0372048
0.0231383
0.02148
0.0384623
0.054441
0.0771837
0.15521
0.222387
0.316531
0.436254
0.546791
0.646339
0.761536
0.858042
0.968273
1.08567
1.20363
1.317
1.53139
1.48972
0.0277355
0.0181531
0.016963
0.0358034
0.0587097
0.139268
0.234639
0.297771
0.426003
0.583597
0.735132
0.874463
1.01579
1.14277
1.3047
1.49131
1.67637
1.84805
2.09624
2.07874
0.0209813
0.0151778
0.0149302
0.0418337
0.115647
0.294797
0.42216
0.56989
0.777969
0.983326
1.16624
1.33587
1.49872
1.6557
1.85877
2.09077
2.33276
2.58681
2.79703
2.99018
0.0155116
0.013124
0.018271
0.0933153
0.24645
0.439382
0.61528
0.90439
1.21964
1.5163
1.7532
1.97665
2.19679
2.43165
2.72427
3.0042
3.27795
3.51803
3.65727
3.77499
0.0080636
0.014641
0.0602284
0.199427
0.41946
0.66501
1.00977
1.41345
1.8775
2.27772
2.58432
2.87276
3.14667
3.43751
3.75349
3.96716
4.09901
4.13869
4.04385
3.91393
0.00567786
0.0376153
0.169346
0.397058
0.834385
1.39906
2.00177
2.57031
3.15332
3.54039
3.79331
4.04331
4.24961
4.39681
4.48004
4.40359
4.18382
3.64627
2.78754
1.88782
0.0290255
0.165673
0.513353
1.18085
2.07823
2.87994
3.51303
4.21005
4.75067
4.82416
4.75215
4.75972
4.71564
4.54447
4.02802
3.06587
2.08831
1.32918
1.01737
0.992902
0.312084
0.857063
1.95237
3.17027
4.22144
4.81798
5.37686
5.83971
5.69986
5.266
4.84959
4.31646
3.39904
2.32819
1.42413
1.02873
0.989443
0.994982
0.997347
0.999447
2.32114
3.64804
4.92763
5.72767
6.34341
6.35814
6.47763
6.19567
4.53147
3.20856
2.3672
1.55673
1.07678
0.987173
0.992826
0.99626
0.999162
0.999973
1.00002
1.00001
6.9813
6.93412
6.90718
6.97611
7.03805
6.68986
6.01486
2.42442
0.624669
1
1
1
1
1
1
1
1
1
1
1
6.96807
6.90469
6.83482
6.78861
6.8988
5.78154
2.67641
1.02996
1
1
1
1
1
1
1
1
1
1
1
1
6.79237
6.82704
6.81557
6.67424
6.30671
3.32896
1.01639
0.999718
1
1
1
1
1
1
1
1
1
1
1
1
6.65753
6.80571
6.83665
6.57277
4.59635
1.43258
0.994687
1.0001
0.999999
1
1
1
1
1
1
1
1
1
1
1
6.55602
6.79415
6.81033
6.14564
2.7009
0.975154
1.00035
0.999994
1
1
1
1
1
1
1
1
1
1
1
1
6.46696
6.82306
6.76839
4.88851
1.4774
1
1
1
1
1
1
1
1
1
1
1
1
1
1
1
6.40324
6.71525
6.72661
3.53927
0.973222
1
1
1
1
1
1
1
1
1
1
1
1
1
1
1
6.44025
6.61547
6.00938
2.0588
0.999933
1
1
1
1
1
1
1
1
1
1
1
1
1
1
1
6.99663
6.65218
4.88885
1.21725
1
1
1
1
1
1
1
1
1
1
1
1
1
1
1
1
7.27614
6.44658
3.43133
0.987845
1
1
1
1
1
1
1
1
1
1
1
1
1
1
1
1
7.39031
5.94532
2.32538
1
1
1
1
1
1
1
1
1
1
1
1
1
1
1
1
1
7.46072
5.4005
1.60744
1
1
1
1
1
1
1
1
1
1
1
1
1
1
1
1
1
7.50631
4.75855
1.19046
1
1
1
1
1
1
1
1
1
1
1
1
1
1
1
1
1
7.38256
4.04114
1.01984
1
1
1
1
1
1
1
1
1
1
1
1
1
1
1
1
1
7.27686
3.18792
1
1
1
1
1
1
1
1
1
1
1
1
1
1
1
1
1
1
6.90424
2.51342
1
1
1
1
1
1
1
1
1
1
1
1
1
1
1
1
1
1
6.6928
1.90422
1
1
1
1
1
1
1
1
1
1
1
1
1
1
1
1
1
1
6.34273
1.35049
1
1
1
1
1
1
1
1
1
1
1
1
1
1
1
1
1
1
5.62293
1.005
1
1
1
1
1
1
1
1
1
1
1
1
1
1
1
1
1
1
4.67129
1.00006
1
1
1
1
1
1
1
1
1
1
1
1
1
1
1
1
1
1
4.67129
1.00006
1
1
1
1
1
1
1
1
1
1
1
1
1
1
1
1
1
1
5.62294
1.005
1
1
1
1
1
1
1
1
1
1
1
1
1
1
1
1
1
1
6.34273
1.35049
1
1
1
1
1
1
1
1
1
1
1
1
1
1
1
1
1
1
6.6928
1.90422
1
1
1
1
1
1
1
1
1
1
1
1
1
1
1
1
1
1
6.90424
2.51342
1
1
1
1
1
1
1
1
1
1
1
1
1
1
1
1
1
1
7.27686
3.18792
1
1
1
1
1
1
1
1
1
1
1
1
1
1
1
1
1
1
7.38256
4.04114
1.01984
1
1
1
1
1
1
1
1
1
1
1
1
1
1
1
1
1
7.50631
4.75855
1.19046
1
1
1
1
1
1
1
1
1
1
1
1
1
1
1
1
1
7.46072
5.40051
1.60744
1
1
1
1
1
1
1
1
1
1
1
1
1
1
1
1
1
7.3903
5.94532
2.32538
1
1
1
1
1
1
1
1
1
1
1
1
1
1
1
1
1
7.27614
6.44658
3.43133
0.987845
1
1
1
1
1
1
1
1
1
1
1
1
1
1
1
1
6.99663
6.65218
4.88885
1.21725
1
1
1
1
1
1
1
1
1
1
1
1
1
1
1
1
6.44025
6.61547
6.00938
2.0588
0.999933
1
1
1
1
1
1
1
1
1
1
1
1
1
1
1
6.40324
6.71525
6.72661
3.53927
0.973222
1
1
1
1
1
1
1
1
1
1
1
1
1
1
1
6.46696
6.82306
6.76839
4.88851
1.4774
1
1
1
1
1
1
1
1
1
1
1
1
1
1
1
6.55602
6.79415
6.81033
6.14565
2.7009
0.975154
1.00035
0.999994
1
1
1
1
1
1
1
1
1
1
1
1
6.65753
6.80571
6.83665
6.57276
4.59636
1.43258
0.994687
1.0001
0.999999
1
1
1
1
1
1
1
1
1
1
1
6.79237
6.82704
6.81557
6.67424
6.3067
3.32896
1.01639
0.999718
1
1
1
1
1
1
1
1
1
1
1
1
6.96807
6.90469
6.83482
6.78861
6.8988
5.78154
2.6764
1.02996
1
1
1
1
1
1
1
1
1
1
1
1
6.9813
6.93412
6.90719
6.97611
7.03805
6.68988
6.01491
2.42442
0.62467
1
1
1
1
1
1
1
1
1
1
1
2.32117
3.64794
4.92744
5.72773
6.34332
6.35801
6.47764
6.19571
4.53154
3.20862
2.36722
1.55672
1.07678
0.987173
0.992826
0.99626
0.999162
0.999973
1.00002
1.00001
0.312119
0.857339
1.95231
3.17012
4.22193
4.81858
5.37698
5.83958
5.69974
5.26593
4.84956
4.31645
3.39903
2.32819
1.42413
1.02874
0.989443
0.994982
0.997347
0.999447
0.0289599
0.165738
0.513839
1.18037
2.07707
2.87905
3.51304
4.21037
4.75102
4.82428
4.75218
4.75972
4.71564
4.54446
4.02801
3.06588
2.08832
1.32918
1.01737
0.992902
0.00564806
0.0371139
0.169497
0.398566
0.834333
1.39857
2.00102
2.56973
3.15301
3.54022
3.79314
4.04318
4.24957
4.39682
4.48003
4.40358
4.18382
3.64627
2.78754
1.88782
0.00810352
0.0145588
0.0596511
0.199715
0.421402
0.665671
1.00985
1.41343
1.87742
2.27761
2.58421
2.8727
3.14668
3.43755
3.75348
3.96715
4.09903
4.13871
4.04386
3.91394
0.0155792
0.0131924
0.0180315
0.0923803
0.246562
0.440032
0.615841
0.904582
1.2198
1.51642
1.7533
1.97677
2.19689
2.4317
2.72429
3.0042
3.27796
3.51802
3.65726
3.775
0.0210853
0.0152391
0.0149727
0.0413666
0.114748
0.294817
0.422144
0.569858
0.778012
0.98345
1.16631
1.33591
1.49876
1.65576
1.85889
2.09091
2.33284
2.58686
2.79706
2.99021
0.0278904
0.0182347
0.0170517
0.0357392
0.0583166
0.138927
0.234048
0.297432
0.425751
0.583429
0.734984
0.874311
1.01571
1.14276
1.30473
1.49137
1.67641
1.84807
2.09627
2.07879
0.0374589
0.0232347
0.0215845
0.0383343
0.0542204
0.0772596
0.155099
0.222249
0.316274
0.435952
0.546548
0.646126
0.761345
0.857892
0.968119
1.08551
1.2035
1.31691
1.53134
1.48963
0.0500514
0.0309969
0.0283166
0.0398419
0.054005
0.07741
0.147873
0.205507
0.272924
0.354907
0.432199
0.503816
0.579282
0.64749
0.705816
0.772605
0.852418
0.945125
1.14761
1.14363
0.0659924
0.0388482
0.0346612
0.0443345
0.0552546
0.0752989
0.128867
0.173684
0.211635
0.257986
0.299189
0.346965
0.39243
0.445075
0.491434
0.548965
0.628944
0.729284
0.836286
0.97685
0.0832667
0.044589
0.0388539
0.0469487
0.0540565
0.0654635
0.0949678
0.128294
0.143285
0.167297
0.185931
0.221541
0.276002
0.328676
0.379513
0.437856
0.502337
0.571652
0.624665
0.74578
0.0945149
0.0469317
0.0391837
0.0429715
0.0472688
0.0522912
0.065143
0.0913266
0.10863
0.134481
0.172318
0.207199
0.252173
0.288377
0.322441
0.360463
0.394526
0.431721
0.455738
0.524929
0.100225
0.0508211
0.0399056
0.0417098
0.0446339
0.049015
0.0579016
0.0780467
0.106682
0.137342
0.174721
0.19781
0.225109
0.24516
0.259407
0.271904
0.282874
0.295859
0.310809
0.367626
0.101716
0.0575669
0.0431545
0.0423951
0.0452413
0.0496359
0.0582812
0.0786683
0.107992
0.135419
0.16155
0.175651
0.181029
0.183474
0.180139
0.180884
0.187735
0.206387
0.237994
0.300989
0.093484
0.0647134
0.0490357
0.0448636
0.0484527
0.0541332
0.0609857
0.0770982
0.100783
0.124955
0.127506
0.13175
0.122506
0.120968
0.12371
0.13979
0.161828
0.18727
0.212602
0.251023
0.0852298
0.0748549
0.0617387
0.0520311
0.0549288
0.0573683
0.0607886
0.0679841
0.0784207
0.0947779
0.086694
0.0877024
0.0921814
0.104163
0.117103
0.133362
0.151164
0.167487
0.182112
0.193989
0.0783766
0.0791336
0.0804942
0.0714135
0.0621502
0.0575247
0.0571142
0.0541098
0.0547908
0.0604057
0.0641002
0.0701862
0.0799819
0.0931831
0.104448
0.113465
0.120673
0.124698
0.128483
0.129574
0.0709677
0.0810851
0.100767
0.121041
0.129588
0.128929
0.132643
0.135234
0.129478
0.128683
0.125738
0.131623
0.147836
0.165575
0.176287
0.186199
0.196738
0.202162
0.209403
0.20335
0.0961539
0.173349
0.21157
0.263316
0.307778
0.34049
0.369282
0.405213
0.422822
0.429956
0.443713
0.462167
0.47525
0.482841
0.486888
0.495582
0.507952
0.519862
0.524649
0.51897
0.552655
0.604665
0.656282
0.717056
0.730032
0.729967
0.715157
0.689494
0.706142
0.749538
0.814079
0.894548
0.915959
0.882205
0.855085
0.844697
0.854833
0.903495
0.962606
0.995069
0.274515
0.395397
0.477537
0.560687
0.657193
0.710306
0.713385
0.694127
0.708314
0.739729
0.80327
0.879662
0.898702
0.86662
0.84288
0.837026
0.852971
0.903586
0.962605
0.99505
0.13519
0.157109
0.192929
0.251722
0.38469
0.58796
0.678771
0.701604
0.697189
0.715573
0.779545
0.880357
0.910477
0.879232
0.852277
0.841943
0.849168
0.898874
0.961027
0.994941
0.188818
0.204063
0.225832
0.229309
0.228572
0.294694
0.505947
0.63231
0.670596
0.704563
0.7615
0.864646
0.89727
0.872029
0.846956
0.840377
0.853099
0.902853
0.962643
0.995187
0.242774
0.248755
0.25742
0.271718
0.27343
0.252366
0.275706
0.431181
0.590898
0.654889
0.734352
0.838612
0.874659
0.857083
0.838771
0.836462
0.852398
0.903748
0.963156
0.995307
0.322795
0.318214
0.305275
0.303438
0.306998
0.295878
0.261314
0.268689
0.363393
0.51241
0.648484
0.765889
0.836443
0.836062
0.826265
0.826011
0.849657
0.905954
0.964654
0.995578
0.408078
0.40126
0.354197
0.345686
0.354526
0.34116
0.299328
0.278903
0.280519
0.316035
0.413171
0.565887
0.731779
0.798634
0.807164
0.817349
0.850494
0.908732
0.966516
0.99598
0.523356
0.504802
0.4295
0.385566
0.390665
0.379943
0.332806
0.300937
0.300647
0.31107
0.328801
0.38191
0.53643
0.706761
0.774888
0.808295
0.850866
0.912101
0.969115
0.996516
0.679058
0.619174
0.510579
0.435788
0.445167
0.433972
0.378094
0.32315
0.326539
0.334317
0.352795
0.389893
0.466042
0.614977
0.732728
0.796691
0.853387
0.91789
0.972757
0.997159
0.864903
0.772479
0.640397
0.518098
0.491701
0.476685
0.426332
0.376857
0.362598
0.36644
0.376581
0.402564
0.471882
0.579539
0.6925
0.77949
0.853964
0.923489
0.976484
0.997786
1.24828
0.975369
0.815124
0.678598
0.584591
0.516404
0.451553
0.408259
0.406683
0.415501
0.423356
0.447154
0.511292
0.612495
0.71533
0.795239
0.866015
0.934831
0.982404
0.9986
2.0422
1.44653
1.14719
0.96306
0.797293
0.683332
0.594785
0.494885
0.461601
0.453536
0.451654
0.466402
0.527885
0.632187
0.737793
0.823816
0.896599
0.956625
0.990556
0.999428
2.49859
2.14173
1.68749
1.30009
0.970629
0.859452
0.781767
0.657443
0.543644
0.51877
0.520519
0.535799
0.581321
0.66578
0.770193
0.862724
0.932489
0.977869
0.996557
0.999859
2.35519
2.31421
2.16759
1.86405
1.49044
1.17171
0.988617
0.842049
0.702155
0.684571
0.692111
0.717293
0.767069
0.832054
0.897197
0.948162
0.979116
0.994512
0.999318
0.999976
1.67773
2.12723
2.1226
2.05835
1.92781
1.67741
1.41446
1.21149
1.00747
0.878521
0.870121
0.885513
0.932598
0.987824
1.01469
1.01916
1.00718
1.00017
0.99993
0.999978
1.10517
1.43315
1.77808
1.95722
1.91438
1.82601
1.70071
1.55364
1.39406
1.23258
1.15066
1.12885
1.12266
1.10832
1.06883
1.02407
1.00362
1.00014
0.999987
0.999991
1.00454
1.04163
1.1823
1.44321
1.65732
1.72341
1.68077
1.59802
1.49773
1.39287
1.30233
1.23276
1.17252
1.11235
1.05509
1.01402
1.0012
1.00003
0.999998
0.999998
1.0001
1.0009
1.00908
1.05037
1.16461
1.3201
1.43969
1.46604
1.43688
1.37373
1.29453
1.21672
1.14354
1.07431
1.02296
1.00299
1.00012
1
1
1
1
1.00001
1.00011
1.00113
1.00816
1.03293
1.08729
1.14503
1.18286
1.17817
1.15237
1.10692
1.05701
1.01927
1.00308
1.00017
1
1
1
1
1
1
1
1.00001
1.00009
1.00063
1.00304
1.00899
1.01729
1.02118
1.01973
1.01385
1.00607
1.00133
1.00011
1
1
1
1
1
1
1
1
1
1
1
1.00003
1.00011
1.00029
1.00045
1.00045
1.00033
1.00014
1.00002
1
1
1
1
1
1
1
1
1
1
1
1
1
1
1
1
1
1
1
1
1
1
1
1
1
1
1
1
1
1
1
1
1
1
1
1
1
1
1
1
1
1
1
1
1
1
1
1
1
1
1
1
1
1
1
1
1
1
1
1
1
1
1
1
1
1
1
1
1
1
1
1
1
1
1
1
1
1
1
1
1
1
1
1
1
1
1.62501
2.45852
2.58384
2.08776
1.31059
1.03729
1.00191
1.00005
1
1
1
1
1
1
1
2.33773
2.81318
2.526
1.54014
1.04805
1.00079
1
1
1
1
1
1
1
1
1
2.92907
2.86865
1.9805
1.15239
1.00518
1.00005
1
1
1
1
1
1
1
1
1
3.24702
2.55316
1.3658
1.01971
1.0002
1
1
1
1
1
1
1
1
1
1
3.31426
1.68434
1.04761
1.0005
1
1
1
1
1
1
1
1
1
1
1
2.06722
1.07285
1.00046
0.999999
1
1
1
1
1
1
1
1
1
1
1
1.10177
1.00057
0.999997
1
1
1
1
1
1
1
1
1
1
1
1
0.998145
0.999864
0.999996
1
1
1
1
1
1
1
1
1
1
1
1
0.999967
1
1
1
1
1
1
1
1
1
1
1
1
1
1
1
1
1
1
1
1
1
1
1
1
1
1
1
1
1
1
1
1
1
1
1
1
1
1
1
1
1
1
1
1
1
1
1
1
1
1
1
1
1
1
1
1
1
1
1
1
1
1
1
1
1
1
1
1
1
1
1
1
1
1
1
1
1
1
1
1
1
1
1
1
1
1
1
1
1
1
1
1
1
1
1
1
1
1
1
1
1
1
1
1
1
1
1
1
1
1
1
1
1
1
1
1
1
1
1
1
1
1
1
1
1
1
1
1
1
1
1
1
1
1
1
1
1
1
1
1
1
1
1
1
1
1
1
1
1
1
1
1
1
1
1
1
1
1
1
1
1
1
1
1
1
1
1
1
1
1
1
1
1
1
1
1
1
1
1
1
1
1
1
1
1
1
1
1
1
1
1
1
1
1
1
1
1
1
1
1
1
1
1
1
1
1
1
1
1
1
1
1
1
1
1
1
1
1
1
1
1
1
1
1
1
1
1
1
1
1
1
1
1
1
1
1
1
1
1
1
1
1
1
1
1
1
1
1
1
1
1
1
1
1
1
1
1
1
1
1
1
1
1
1
1
1
1
1
1
1
1
1
1
1
1
1
1
1
1
1
1
1
1
1
1
1
1
1
1
1
1
1
1
1
1
1
1
1
1
1
1
1
1
1
1
1
1
1
1
1
1
1
1
1
1
1
1
1
1
1
1
1
1
1
1
1
1
1
1
1
1
1
1
1
1
1
1
1
1
1
1
1
1
1
1
1
1
1
1
1
1
1
1
1
1
1
1
1
1
1
1
1
1
1
1
1
1
1
1
1
1
1
1
1
1
1
1
1
1
1
1
1
1
1
1
1
1
1
1
1
1
1
1
1
1
1
1
1
1
1
1
1
1
1
1
1
1
1
1
1
1
1
1
1
1
1
1
1
1
1
1
1
1
1
1
1
1
1
1
1
1
1
1
1
1
1
1
1
1
1
1
1
1
1
1
1
1
1
1
1
1
1
1
1
1
1
1
1
1
1
1
1
1
1
1
1
1
1
1
1
1
1
1
1
1
1
1
1
1
1
1
1
1
1
1
1
1
1
1
1
1
1
1
1
1
1
1
1
1
1
1
1
1
1
1
1
1
1
1
1
1
1
1
1
1
1
1
1
1
1
1
1
1
1
1
1
1
1
1
1
1
1
1
1
1
1
1
1
1
1
1
1
1
1
1
1
1
1
1
1
1
1
1
1
1
1
1
1
1
1
1
1
1
1
1
1
1
1
1
1
1
1
1
1
1
1
1
1
1
1
1
1
1
1
1
1
1
1
1
1
1
1
1
1
1
1
1
1
1
1
1
1
1
1
1
1
1
1
1
1
1
1
1
1
1
1
1
1
1
1
1
1
1
1
1
1
1
1
1
1
1
1
1
1
1
1
1
1
1
1
1
1
1
1
1
1
1
1
1
1
1
1
1
1
1
1
1
1
1
1
1
1
1
1
1
1
1
1
1
1
1
1
1
1
1
1
1
1
1
1
1
1
1
1
1
1
1
1
1
1
1
1
1
1
1
1
1
1
1
1
1
1
1
1
1
1
1
1
1
1
1
1
1
1
1
1
1
1
1
1
1
1
1
1
1
1
1
1
1
1
1
1
1
1
1
1
1
1
1
1
1
1
1
1
1
1
1
1
1
1
1
1
1
1
1
1
1
1
1
1
1
1
1
1
1
1
1
1
1
1
1
1
1
1
1
1
1
1
1
1
1
1
1
1
1
1
1
1
1
1
1
1
1
1
1
1
1
1
1
1
1
1
1
1
1
1
1
1
1
1
1
1
1
1
1
1
1
1
1
1
1
1
1
1
1
1
1
1
1
1
1
1
1
1
1
1
1
1
1
1
1
1
1
1
0.999967
1
1
1
1
1
1
1
1
1
1
1
1
1
1
0.998145
0.999864
0.999996
1
1
1
1
1
1
1
1
1
1
1
1
1.10177
1.00057
0.999997
1
1
1
1
1
1
1
1
1
1
1
1
2.06722
1.07285
1.00046
0.999999
1
1
1
1
1
1
1
1
1
1
1
3.31427
1.68435
1.04761
1.0005
1
1
1
1
1
1
1
1
1
1
1
3.24704
2.5532
1.36585
1.01971
1.0002
1
1
1
1
1
1
1
1
1
1
2.92906
2.86865
1.98036
1.15239
1.00518
1.00005
1
1
1
1
1
1
1
1
1
2.33784
2.81319
2.52607
1.54005
1.04803
1.00079
1
1
1
1
1
1
1
1
1
1.62463
2.45836
2.58399
2.08787
1.3106
1.03729
1.00191
1.00005
1
1
1
1
1
1
1
1.25067
2.04259
2.49774
2.35485
1.67778
1.1052
1.00454
1.0001
1
1
1
1
1
1
1
0.975192
1.44727
2.14195
2.31413
2.12722
1.43321
1.04164
1.0009
1.00001
1
1
1
1
1
1
0.812299
1.14601
1.69037
2.16758
2.12272
1.77818
1.18232
1.00908
1.00011
1
1
1
1
1
1
0.679952
0.96189
1.29905
1.86447
2.05852
1.9573
1.4432
1.05037
1.00113
1.00001
1
1
1
1
1
0.586976
0.797277
0.965453
1.49027
1.92792
1.91443
1.6573
1.16459
1.00816
1.00009
1
1
1
1
1
0.516882
0.685607
0.860536
1.17214
1.67729
1.82598
1.72338
1.32008
1.03293
1.00063
1
1
1
1
1
0.446461
0.59737
0.783226
0.987246
1.41443
1.70067
1.68073
1.43968
1.0873
1.00304
1.00003
1
1
1
1
0.404018
0.496209
0.659426
0.839671
1.21118
1.55352
1.59798
1.46603
1.14503
1.00899
1.00011
1
1
1
1
0.404723
0.459295
0.544773
0.702237
1.00769
1.39407
1.49772
1.43688
1.18286
1.01729
1.00029
1
1
1
1
0.414255
0.449907
0.519919
0.685795
0.878345
1.23267
1.39288
1.37373
1.17817
1.02118
1.00045
1
1
1
1
0.422155
0.447868
0.522247
0.69367
0.869601
1.15065
1.30232
1.29452
1.15237
1.01973
1.00045
1
1
1
1
0.446885
0.461819
0.538188
0.719388
0.884723
1.12864
1.23271
1.21669
1.10692
1.01385
1.00033
1
1
1
1
0.513342
0.523634
0.582389
0.768943
0.931466
1.12235
1.17244
1.14351
1.05701
1.00607
1.00014
1
1
1
1
0.616843
0.631005
0.664222
0.832171
0.986681
1.10808
1.11226
1.0743
1.01928
1.00133
1.00002
1
1
1
1
0.719383
0.738415
0.767368
0.895971
1.01401
1.06872
1.05505
1.02296
1.00308
1.00011
1
1
1
1
1
0.797491
0.823829
0.860858
0.947336
1.01878
1.02405
1.01401
1.003
1.00017
1
1
1
1
1
1
0.866434
0.8961
0.931742
0.978958
1.00719
1.00362
1.0012
1.00012
1
1
1
1
1
1
1
0.934701
0.956311
0.977725
0.994547
1.00019
1.00014
1.00003
1
1
1
1
1
1
1
1
0.982352
0.990506
0.996561
0.999332
0.999933
0.999987
0.999998
1
1
1
1
1
1
1
1
0.998597
0.999428
0.99986
0.999977
0.999979
0.999991
0.999998
1
1
1
1
1
1
1
1
0.865341
0.772612
0.638799
0.520357
0.491464
0.475822
0.421182
0.375374
0.363456
0.368402
0.375611
0.399804
0.474929
0.585762
0.696687
0.780897
0.854231
0.923545
0.976484
0.997781
0.679226
0.61931
0.509116
0.437636
0.445668
0.432877
0.378441
0.32626
0.326476
0.335913
0.355343
0.394708
0.472754
0.619021
0.735422
0.797688
0.853902
0.918131
0.972805
0.997157
0.523325
0.505079
0.429489
0.386037
0.390583
0.378599
0.335578
0.300994
0.300805
0.313437
0.334021
0.389604
0.541847
0.708928
0.775075
0.808613
0.850657
0.911829
0.969069
0.996517
0.407975
0.401818
0.354342
0.345315
0.354281
0.339972
0.302722
0.280166
0.281334
0.320726
0.423178
0.578245
0.736499
0.796959
0.805221
0.816488
0.849899
0.908183
0.96651
0.996009
0.322907
0.318413
0.305155
0.30293
0.306649
0.295436
0.263035
0.269695
0.364909
0.518769
0.664015
0.775248
0.837732
0.836081
0.8243
0.822412
0.847028
0.905194
0.964618
0.995591
0.242722
0.248838
0.257342
0.271275
0.273501
0.25277
0.276916
0.432361
0.588401
0.651049
0.728434
0.830442
0.869662
0.854463
0.836674
0.834133
0.851521
0.904541
0.96348
0.995296
0.188738
0.204104
0.225602
0.22912
0.228866
0.295222
0.507412
0.631463
0.666075
0.697592
0.75092
0.852548
0.890629
0.867656
0.845393
0.840471
0.850888
0.899745
0.961084
0.994962
0.135161
0.157066
0.192571
0.251692
0.385595
0.588969
0.679483
0.700677
0.691275
0.70825
0.770474
0.86845
0.90388
0.874995
0.850332
0.841768
0.852166
0.901333
0.961671
0.994997
0.274223
0.395529
0.477057
0.560568
0.658269
0.711167
0.713374
0.693032
0.705323
0.733577
0.794305
0.870181
0.895339
0.865196
0.841693
0.834525
0.847465
0.899524
0.961235
0.994912
0.552752
0.604691
0.656144
0.716977
0.73031
0.730318
0.715118
0.689416
0.706326
0.739447
0.791951
0.889136
0.914633
0.881892
0.854776
0.844463
0.854467
0.903148
0.96249
0.995048
)
;

boundaryField
{
    inlet
    {
        type            fixedValue;
        value           uniform 1;
    }
    outlet
    {
        type            zeroGradient;
    }
    airfoil
    {
        type            zeroGradient;
    }
    top
    {
        type            symmetryPlane;
    }
    bottom
    {
        type            symmetryPlane;
    }
    defaultFaces
    {
        type            empty;
    }
}


// ************************************************************************* //
