/*--------------------------------*- C++ -*----------------------------------*\
  =========                 |
  \\      /  F ield         | OpenFOAM: The Open Source CFD Toolbox
   \\    /   O peration     | Website:  https://openfoam.org
    \\  /    A nd           | Version:  7
     \\/     M anipulation  |
\*---------------------------------------------------------------------------*/
FoamFile
{
    version     2.0;
    format      ascii;
    class       volScalarField;
    location    "1.7";
    object      p;
}
// * * * * * * * * * * * * * * * * * * * * * * * * * * * * * * * * * * * * * //

dimensions      [1 -1 -2 0 0 0 0];

internalField   nonuniform List<scalar> 
3700
(
0.197573
0.276354
0.338124
0.382704
0.362861
0.362136
0.362691
0.382684
0.391637
0.392228
0.409534
0.44403
0.465131
0.473219
0.488366
0.496784
0.505712
0.511735
0.517003
0.516043
0.116667
0.103831
0.115155
0.106779
0.0837903
0.0811421
0.0951386
0.118295
0.129954
0.137403
0.154832
0.175431
0.173562
0.163484
0.167283
0.175274
0.18249
0.190372
0.203913
0.203753
0.10025
0.0888096
0.0781052
0.0613485
0.0440339
0.0443259
0.0503266
0.0599089
0.0685483
0.0776983
0.086562
0.0866849
0.0870615
0.088274
0.0906305
0.0960556
0.106339
0.118662
0.130537
0.140376
0.0891157
0.081856
0.0733695
0.0536698
0.0395216
0.0419294
0.0490957
0.0590204
0.0700223
0.0863087
0.105494
0.11409
0.122464
0.127057
0.13025
0.131473
0.133036
0.142427
0.157372
0.187108
0.0788152
0.0716906
0.061985
0.0424438
0.0381014
0.0416294
0.0496087
0.0583013
0.0688368
0.0859306
0.107646
0.123202
0.141777
0.157198
0.168704
0.174966
0.171785
0.174038
0.179959
0.214192
0.0676298
0.0575276
0.0446776
0.0391358
0.0415854
0.0517445
0.063629
0.0668679
0.0756518
0.0905988
0.10528
0.1238
0.150805
0.178279
0.200231
0.222717
0.239921
0.255837
0.261479
0.285151
0.0511796
0.0435584
0.0408744
0.0433956
0.0508662
0.0685607
0.0872891
0.0974084
0.111275
0.134348
0.129697
0.136386
0.158726
0.190969
0.221929
0.258038
0.296592
0.333633
0.363117
0.409067
0.0386509
0.0383408
0.0427616
0.0456225
0.0554693
0.0781788
0.101922
0.124945
0.154296
0.183644
0.193045
0.208336
0.224594
0.248443
0.271492
0.305145
0.350307
0.412128
0.465258
0.562764
0.0304274
0.0373423
0.0452281
0.0474815
0.0574386
0.0830785
0.104024
0.134318
0.176216
0.212909
0.253883
0.290029
0.328738
0.367974
0.394952
0.425474
0.456077
0.518756
0.590785
0.741714
0.0262952
0.0360628
0.0460883
0.0494979
0.0591928
0.0897832
0.101828
0.131962
0.178479
0.231855
0.296842
0.352665
0.424371
0.482883
0.542193
0.600439
0.654228
0.714261
0.806151
0.953412
0.0246834
0.0332958
0.0429571
0.0522481
0.0798773
0.12407
0.134716
0.161322
0.200009
0.265165
0.34826
0.428258
0.527537
0.611467
0.706909
0.805791
0.903949
0.987801
1.14936
1.12081
0.0278163
0.030414
0.0401585
0.0666506
0.113761
0.171516
0.216329
0.28106
0.360816
0.45473
0.542761
0.627872
0.722424
0.812956
0.921294
1.06344
1.21838
1.35276
1.5557
1.50581
0.0347994
0.0282622
0.0424361
0.0923334
0.142071
0.196083
0.271823
0.387218
0.533024
0.689101
0.816875
0.939983
1.05895
1.17175
1.30029
1.46533
1.65403
1.83671
2.10555
2.09519
0.0385455
0.0324189
0.0508524
0.100581
0.15304
0.194175
0.301713
0.463198
0.689305
0.93016
1.12901
1.32353
1.50233
1.67566
1.88554
2.11513
2.33823
2.58152
2.8023
2.99729
0.0395946
0.0400946
0.0493306
0.0836355
0.161836
0.267903
0.48381
0.750598
1.07338
1.39517
1.66592
1.91278
2.15263
2.40208
2.7105
2.98866
3.25493
3.50503
3.6672
3.7906
0.0295155
0.0392245
0.0471166
0.0891175
0.261538
0.681863
1.11114
1.53579
1.98546
2.35016
2.62307
2.88862
3.16476
3.46807
3.78915
3.97391
4.08138
4.12675
4.0352
3.91059
0.0151993
0.0319113
0.0959354
0.366804
0.878983
1.47955
2.03147
2.60023
3.18833
3.57083
3.77773
4.00501
4.22738
4.40092
4.48951
4.41196
4.1908
3.65315
2.79228
1.88718
0.0195618
0.106182
0.488637
1.22535
2.16406
2.90106
3.51948
4.19218
4.71164
4.81231
4.73304
4.7476
4.70772
4.54062
4.02785
3.06522
2.09143
1.33459
1.01931
0.992965
0.312049
0.900423
2.03268
3.19913
4.21422
4.85084
5.40156
5.85618
5.70994
5.26417
4.83912
4.29727
3.37886
2.32002
1.42496
1.02941
0.989328
0.994901
0.997316
0.999441
2.32547
3.63149
4.91494
5.70772
6.36334
6.42119
6.49969
6.20329
4.52452
3.20821
2.36804
1.55732
1.07724
0.987258
0.992821
0.996234
0.999147
0.999973
1.00002
1.00001
6.96987
6.92939
6.90847
6.97107
7.04285
6.74198
6.01604
2.4001
0.626984
1
1
1
1
1
1
1
1
1
1
1
6.92603
6.88466
6.83724
6.78405
6.83728
5.83615
2.64364
1.02461
1
1
1
1
1
1
1
1
1
1
1
1
6.78024
6.84195
6.83394
6.7012
6.28283
3.27422
1.01429
0.999796
1
1
1
1
1
1
1
1
1
1
1
1
6.677
6.82331
6.83891
6.56884
4.63533
1.43107
0.995413
1.00008
0.999999
1
1
1
1
1
1
1
1
1
1
1
6.56107
6.8275
6.81889
6.09266
2.73181
0.974811
1.00033
0.999994
1
1
1
1
1
1
1
1
1
1
1
1
6.43596
6.81784
6.79845
4.95615
1.48179
1
1
1
1
1
1
1
1
1
1
1
1
1
1
1
6.3577
6.68571
6.73856
3.57198
0.972825
1
1
1
1
1
1
1
1
1
1
1
1
1
1
1
6.46869
6.62131
6.0155
2.06895
0.999987
1
1
1
1
1
1
1
1
1
1
1
1
1
1
1
6.95975
6.68324
4.88801
1.18343
1
1
1
1
1
1
1
1
1
1
1
1
1
1
1
1
7.22185
6.35929
3.43596
0.988063
1
1
1
1
1
1
1
1
1
1
1
1
1
1
1
1
7.40398
5.95007
2.33297
1
1
1
1
1
1
1
1
1
1
1
1
1
1
1
1
1
7.48734
5.46427
1.62091
1
1
1
1
1
1
1
1
1
1
1
1
1
1
1
1
1
7.5115
4.79365
1.19976
1
1
1
1
1
1
1
1
1
1
1
1
1
1
1
1
1
7.39088
4.02261
1.01836
1
1
1
1
1
1
1
1
1
1
1
1
1
1
1
1
1
7.1953
3.17285
1
1
1
1
1
1
1
1
1
1
1
1
1
1
1
1
1
1
6.92286
2.51368
1
1
1
1
1
1
1
1
1
1
1
1
1
1
1
1
1
1
6.78195
1.86855
1
1
1
1
1
1
1
1
1
1
1
1
1
1
1
1
1
1
6.3053
1.32691
1
1
1
1
1
1
1
1
1
1
1
1
1
1
1
1
1
1
5.61243
1.00457
1
1
1
1
1
1
1
1
1
1
1
1
1
1
1
1
1
1
4.67372
1.00008
1
1
1
1
1
1
1
1
1
1
1
1
1
1
1
1
1
1
4.6737
1.00008
1
1
1
1
1
1
1
1
1
1
1
1
1
1
1
1
1
1
5.61243
1.00457
1
1
1
1
1
1
1
1
1
1
1
1
1
1
1
1
1
1
6.30532
1.32692
1
1
1
1
1
1
1
1
1
1
1
1
1
1
1
1
1
1
6.78194
1.86854
1
1
1
1
1
1
1
1
1
1
1
1
1
1
1
1
1
1
6.92286
2.51368
1
1
1
1
1
1
1
1
1
1
1
1
1
1
1
1
1
1
7.1953
3.17285
1
1
1
1
1
1
1
1
1
1
1
1
1
1
1
1
1
1
7.39089
4.02261
1.01836
1
1
1
1
1
1
1
1
1
1
1
1
1
1
1
1
1
7.51149
4.79363
1.19976
1
1
1
1
1
1
1
1
1
1
1
1
1
1
1
1
1
7.48734
5.4643
1.6209
1
1
1
1
1
1
1
1
1
1
1
1
1
1
1
1
1
7.40397
5.95005
2.33299
1
1
1
1
1
1
1
1
1
1
1
1
1
1
1
1
1
7.22185
6.35929
3.43594
0.988063
1
1
1
1
1
1
1
1
1
1
1
1
1
1
1
1
6.95975
6.68324
4.88798
1.18343
1
1
1
1
1
1
1
1
1
1
1
1
1
1
1
1
6.46869
6.62132
6.01549
2.06894
0.999987
1
1
1
1
1
1
1
1
1
1
1
1
1
1
1
6.3577
6.68571
6.7386
3.57204
0.972824
1
1
1
1
1
1
1
1
1
1
1
1
1
1
1
6.43596
6.81783
6.79842
4.95612
1.48182
1
1
1
1
1
1
1
1
1
1
1
1
1
1
1
6.56107
6.82748
6.81888
6.09267
2.7318
0.974811
1.00033
0.999994
1
1
1
1
1
1
1
1
1
1
1
1
6.67698
6.82331
6.83894
6.56892
4.63535
1.43109
0.995413
1.00008
0.999999
1
1
1
1
1
1
1
1
1
1
1
6.78023
6.84195
6.83397
6.70122
6.28277
3.27419
1.0143
0.999796
1
1
1
1
1
1
1
1
1
1
1
1
6.92602
6.88465
6.83723
6.78403
6.83727
5.83618
2.64363
1.02461
1
1
1
1
1
1
1
1
1
1
1
1
6.96988
6.92938
6.90844
6.97104
7.04285
6.74203
6.01608
2.40011
0.626979
1
1
1
1
1
1
1
1
1
1
1
2.32544
3.63199
4.91546
5.70756
6.36367
6.42112
6.49942
6.20311
4.52453
3.20835
2.36815
1.55736
1.07724
0.987257
0.99282
0.996233
0.999147
0.999973
1.00002
1.00001
0.312035
0.89859
2.03169
3.19898
4.2138
4.85129
5.40208
5.8562
5.7099
5.26414
4.8391
4.2973
3.37897
2.32015
1.42503
1.02942
0.989329
0.994902
0.997317
0.999441
0.0194708
0.108394
0.489124
1.22454
2.16519
2.90103
3.51891
4.19214
4.71262
4.81239
4.73297
4.74748
4.70762
4.54057
4.02789
3.06529
2.09144
1.33456
1.0193
0.992966
0.0147169
0.0313299
0.096725
0.36752
0.876129
1.4784
2.03178
2.60082
3.18896
3.57109
3.77791
4.00527
4.22756
4.40091
4.48942
4.41188
4.19072
3.65303
2.79215
1.88708
0.0288657
0.038732
0.0485738
0.0902029
0.261762
0.680904
1.10979
1.53423
1.98425
2.34956
2.62292
2.88859
3.16464
3.46782
3.78883
3.97372
4.0813
4.12675
4.0352
3.91058
0.0390424
0.0400172
0.0498426
0.0848813
0.166116
0.267892
0.482173
0.749572
1.07267
1.39469
1.66551
1.91243
2.15227
2.40172
2.71016
2.98843
3.25485
3.5051
3.66732
3.79064
0.0379754
0.032462
0.0506257
0.100734
0.154607
0.196609
0.30406
0.464717
0.690391
0.930875
1.12953
1.32385
1.50248
1.67569
1.8855
2.11507
2.33829
2.58163
2.80251
2.9975
0.0344277
0.0282503
0.0418003
0.0914213
0.142144
0.197296
0.272851
0.38792
0.533714
0.689665
0.81744
0.940464
1.05933
1.17199
1.30048
1.46549
1.65422
1.83691
2.1056
2.09513
0.0273161
0.0302294
0.0397037
0.06528
0.112768
0.171469
0.21614
0.280826
0.360625
0.454627
0.542661
0.627811
0.722399
0.813003
0.921407
1.06359
1.21849
1.35282
1.55563
1.50572
0.0245521
0.0331855
0.0425742
0.0515402
0.0790556
0.123629
0.134068
0.161268
0.199748
0.264918
0.348131
0.428216
0.527581
0.611535
0.706976
0.805808
0.903883
0.987663
1.14918
1.12063
0.0262274
0.0359877
0.0457245
0.0490657
0.0586577
0.0894904
0.101712
0.131778
0.178559
0.232006
0.297
0.352732
0.424415
0.482907
0.54214
0.60029
0.654003
0.713994
0.805919
0.953198
0.0304865
0.0372915
0.044906
0.0469973
0.0569068
0.0827438
0.103921
0.134207
0.176451
0.213071
0.253981
0.290061
0.32863
0.367758
0.394657
0.425179
0.455836
0.518607
0.590719
0.741703
0.0388656
0.0382976
0.0424966
0.045239
0.0550385
0.0778367
0.101824
0.124946
0.154435
0.183854
0.192756
0.207989
0.224184
0.248079
0.271378
0.305223
0.350378
0.412167
0.46529
0.56291
0.0515337
0.043665
0.0405817
0.0431579
0.0505723
0.0683092
0.0872746
0.0974309
0.111197
0.134033
0.129496
0.136248
0.158896
0.1913
0.222198
0.258205
0.296698
0.333713
0.363223
0.409243
0.068183
0.0577736
0.0444384
0.0390503
0.0414233
0.0514441
0.0636166
0.0671039
0.075829
0.0907721
0.105646
0.124256
0.151223
0.178586
0.200428
0.222821
0.240014
0.255941
0.261562
0.28515
0.0796913
0.0719554
0.0617983
0.0421603
0.0380999
0.041578
0.0496766
0.0585659
0.0691964
0.0864839
0.108215
0.123731
0.142134
0.157394
0.168736
0.175013
0.171826
0.174073
0.179948
0.21404
0.0896296
0.0817092
0.0730329
0.0527339
0.0394185
0.0420663
0.0492904
0.0593848
0.0704605
0.0868286
0.106118
0.114527
0.122646
0.127042
0.130124
0.131413
0.133001
0.14237
0.15727
0.186913
0.100536
0.0885434
0.0774414
0.0609858
0.0441245
0.0445254
0.0502473
0.0601374
0.0688968
0.0780598
0.0869669
0.0866788
0.0869432
0.0881387
0.0904051
0.0958098
0.10628
0.118643
0.130447
0.140306
0.119894
0.113339
0.109962
0.103197
0.104834
0.104618
0.102012
0.104386
0.117198
0.139732
0.15741
0.163979
0.169102
0.175361
0.169133
0.166419
0.17353
0.186979
0.207318
0.208563
0.199387
0.299401
0.339016
0.375725
0.385311
0.385089
0.372507
0.370788
0.378884
0.391176
0.409945
0.440341
0.464774
0.483557
0.486523
0.489184
0.502949
0.512154
0.519473
0.517272
0.563795
0.636825
0.710078
0.803195
0.798035
0.753272
0.74673
0.765055
0.794915
0.799228
0.792423
0.752431
0.726282
0.730757
0.760571
0.831286
0.89911
0.9019
0.883501
0.878903
0.275727
0.415852
0.541062
0.677791
0.748181
0.739253
0.754906
0.778392
0.789502
0.788975
0.784429
0.751967
0.735436
0.750421
0.79457
0.853741
0.893882
0.892605
0.875639
0.875923
0.138275
0.160685
0.238085
0.331912
0.496427
0.637233
0.681665
0.741718
0.776139
0.774946
0.776503
0.755341
0.744992
0.765484
0.818346
0.880147
0.918459
0.902857
0.881267
0.876549
0.195728
0.20942
0.236359
0.244344
0.253757
0.325543
0.439149
0.590293
0.712041
0.743873
0.764917
0.752008
0.746872
0.772474
0.82732
0.892808
0.925582
0.904374
0.878886
0.87522
0.244951
0.258005
0.268321
0.294687
0.300238
0.287156
0.283936
0.322056
0.475424
0.656445
0.730551
0.737819
0.746978
0.771867
0.826728
0.902061
0.923544
0.902085
0.875352
0.873286
0.308071
0.325569
0.333437
0.336704
0.332835
0.329442
0.326641
0.310575
0.314335
0.435533
0.634878
0.70169
0.73727
0.767966
0.820159
0.894451
0.914719
0.896879
0.872547
0.869922
0.399728
0.403588
0.379011
0.372831
0.381056
0.377572
0.364928
0.35355
0.335454
0.326592
0.4142
0.597259
0.707881
0.731038
0.774655
0.860598
0.902737
0.890175
0.869276
0.87
0.525485
0.506759
0.458505
0.412299
0.415726
0.417165
0.398297
0.385547
0.373042
0.346818
0.327237
0.418229
0.57485
0.685351
0.762186
0.844637
0.885665
0.879418
0.864209
0.867204
0.680229
0.622848
0.549833
0.457154
0.46029
0.467584
0.443017
0.41594
0.406168
0.379885
0.341534
0.336435
0.402086
0.563825
0.722226
0.815522
0.855253
0.860012
0.851435
0.858943
0.858567
0.771131
0.673615
0.551088
0.517015
0.519241
0.497577
0.449914
0.435891
0.412278
0.374505
0.352873
0.348304
0.377695
0.484202
0.626488
0.764837
0.828708
0.834885
0.857419
1.23528
0.972598
0.851479
0.708176
0.604248
0.568355
0.528299
0.49756
0.486792
0.468904
0.428259
0.388021
0.38145
0.384547
0.395596
0.450306
0.582097
0.727886
0.799853
0.858623
2.04399
1.45983
1.17139
0.998845
0.87774
0.76923
0.650393
0.547975
0.527087
0.514046
0.478598
0.432218
0.41902
0.424605
0.444146
0.484611
0.555324
0.659215
0.750384
0.855427
2.50927
2.17092
1.69914
1.34044
1.09394
0.936762
0.837736
0.734593
0.643798
0.570834
0.500465
0.464812
0.46743
0.481211
0.501193
0.539045
0.605312
0.693451
0.76776
0.866816
2.37433
2.34998
2.2365
1.94063
1.54458
1.21186
1.07287
0.943157
0.808803
0.724927
0.640874
0.556548
0.531941
0.524984
0.524158
0.547484
0.61658
0.714581
0.79788
0.896079
1.68336
2.14986
2.2182
2.18282
2.04001
1.74927
1.45397
1.18566
0.952599
0.874652
0.806375
0.702211
0.621767
0.60639
0.609433
0.626361
0.670193
0.745036
0.831593
0.931946
1.10384
1.44685
1.8608
2.0992
2.08493
2.02203
1.86412
1.63326
1.36979
1.13577
0.989392
0.867731
0.773493
0.767654
0.778571
0.80419
0.84482
0.896739
0.948537
0.989271
1.00431
1.04647
1.21456
1.55077
1.85371
1.96102
1.92944
1.84968
1.7253
1.53559
1.34295
1.18743
1.04355
0.954863
0.950322
0.964773
1.00065
1.03374
1.04375
1.02579
1.00009
1.00113
1.01163
1.07981
1.26895
1.53791
1.75508
1.79208
1.74742
1.67043
1.56768
1.46032
1.3467
1.23957
1.18144
1.15652
1.13901
1.10899
1.06522
1.01836
1
1.00001
1.00018
1.00231
1.0202
1.08994
1.24953
1.44482
1.57949
1.59362
1.56018
1.49285
1.41663
1.33827
1.26691
1.20648
1.15197
1.09934
1.04692
1.00824
1
1
1
1.00002
1.00035
1.00301
1.01961
1.06894
1.17433
1.28202
1.35967
1.37217
1.35025
1.30201
1.23972
1.17553
1.11257
1.05427
1.01529
1.00134
1
1
1
1
1
1.00003
1.00033
1.00216
1.01092
1.03371
1.07351
1.1112
1.13069
1.12535
1.10464
1.07084
1.03535
1.0108
1.00152
1.00006
1
1
1
1
1
1
1
1.00002
1.00015
1.00076
1.00278
1.00678
1.01103
1.01222
1.01096
1.00721
1.00289
1.00057
1.00004
1
1
1
1
1
1
1
1
1
1
1.00001
1.00003
1.00008
1.00018
1.00023
1.00021
1.00015
1.00006
1.00001
1
1
1
1
1
1
1
1
1
1
1
1
1
1
1
1
1
1
1
1
1
1
1
1
1
1
1
1
1
1
1
1
1
1
1
1
1
1
1
1
1
1
1.6256
2.46032
2.58168
2.08363
1.30998
1.03728
1.0019
1.00005
1
1
1
1
1
1
1
2.34136
2.81333
2.52474
1.5412
1.04838
1.0008
1
1
1
1
1
1
1
1
1
2.93128
2.86734
1.9793
1.15231
1.00522
1.00005
1
1
1
1
1
1
1
1
1
3.25034
2.55575
1.3641
1.01929
1.00019
1
1
1
1
1
1
1
1
1
1
3.32297
1.68199
1.04693
1.00051
1
1
1
1
1
1
1
1
1
1
1
2.06663
1.07304
1.00048
0.999999
1
1
1
1
1
1
1
1
1
1
1
1.10116
1.00055
0.999997
1
1
1
1
1
1
1
1
1
1
1
1
0.99816
0.999865
0.999996
1
1
1
1
1
1
1
1
1
1
1
1
0.999966
1
1
1
1
1
1
1
1
1
1
1
1
1
1
1
1
1
1
1
1
1
1
1
1
1
1
1
1
1
1
1
1
1
1
1
1
1
1
1
1
1
1
1
1
1
1
1
1
1
1
1
1
1
1
1
1
1
1
1
1
1
1
1
1
1
1
1
1
1
1
1
1
1
1
1
1
1
1
1
1
1
1
1
1
1
1
1
1
1
1
1
1
1
1
1
1
1
1
1
1
1
1
1
1
1
1
1
1
1
1
1
1
1
1
1
1
1
1
1
1
1
1
1
1
1
1
1
1
1
1
1
1
1
1
1
1
1
1
1
1
1
1
1
1
1
1
1
1
1
1
1
1
1
1
1
1
1
1
1
1
1
1
1
1
1
1
1
1
1
1
1
1
1
1
1
1
1
1
1
1
1
1
1
1
1
1
1
1
1
1
1
1
1
1
1
1
1
1
1
1
1
1
1
1
1
1
1
1
1
1
1
1
1
1
1
1
1
1
1
1
1
1
1
1
1
1
1
1
1
1
1
1
1
1
1
1
1
1
1
1
1
1
1
1
1
1
1
1
1
1
1
1
1
1
1
1
1
1
1
1
1
1
1
1
1
1
1
1
1
1
1
1
1
1
1
1
1
1
1
1
1
1
1
1
1
1
1
1
1
1
1
1
1
1
1
1
1
1
1
1
1
1
1
1
1
1
1
1
1
1
1
1
1
1
1
1
1
1
1
1
1
1
1
1
1
1
1
1
1
1
1
1
1
1
1
1
1
1
1
1
1
1
1
1
1
1
1
1
1
1
1
1
1
1
1
1
1
1
1
1
1
1
1
1
1
1
1
1
1
1
1
1
1
1
1
1
1
1
1
1
1
1
1
1
1
1
1
1
1
1
1
1
1
1
1
1
1
1
1
1
1
1
1
1
1
1
1
1
1
1
1
1
1
1
1
1
1
1
1
1
1
1
1
1
1
1
1
1
1
1
1
1
1
1
1
1
1
1
1
1
1
1
1
1
1
1
1
1
1
1
1
1
1
1
1
1
1
1
1
1
1
1
1
1
1
1
1
1
1
1
1
1
1
1
1
1
1
1
1
1
1
1
1
1
1
1
1
1
1
1
1
1
1
1
1
1
1
1
1
1
1
1
1
1
1
1
1
1
1
1
1
1
1
1
1
1
1
1
1
1
1
1
1
1
1
1
1
1
1
1
1
1
1
1
1
1
1
1
1
1
1
1
1
1
1
1
1
1
1
1
1
1
1
1
1
1
1
1
1
1
1
1
1
1
1
1
1
1
1
1
1
1
1
1
1
1
1
1
1
1
1
1
1
1
1
1
1
1
1
1
1
1
1
1
1
1
1
1
1
1
1
1
1
1
1
1
1
1
1
1
1
1
1
1
1
1
1
1
1
1
1
1
1
1
1
1
1
1
1
1
1
1
1
1
1
1
1
1
1
1
1
1
1
1
1
1
1
1
1
1
1
1
1
1
1
1
1
1
1
1
1
1
1
1
1
1
1
1
1
1
1
1
1
1
1
1
1
1
1
1
1
1
1
1
1
1
1
1
1
1
1
1
1
1
1
1
1
1
1
1
1
1
1
1
1
1
1
1
1
1
1
1
1
1
1
1
1
1
1
1
1
1
1
1
1
1
1
1
1
1
1
1
1
1
1
1
1
1
1
1
1
1
1
1
1
1
1
1
1
1
1
1
1
1
1
1
1
1
1
1
1
1
1
1
1
1
1
1
1
1
1
1
1
1
1
1
1
1
1
1
1
1
1
1
1
1
1
1
1
1
1
1
1
1
1
1
1
1
1
1
1
1
1
1
1
1
1
1
1
1
1
1
1
1
1
1
1
1
1
1
1
1
1
1
1
1
1
1
1
1
1
1
1
1
1
1
1
1
1
1
1
1
1
1
0.999966
1
1
1
1
1
1
1
1
1
1
1
1
1
1
0.99816
0.999865
0.999996
1
1
1
1
1
1
1
1
1
1
1
1
1.10114
1.00055
0.999997
1
1
1
1
1
1
1
1
1
1
1
1
2.06658
1.07303
1.00048
0.999999
1
1
1
1
1
1
1
1
1
1
1
3.32297
1.68199
1.04692
1.00051
1
1
1
1
1
1
1
1
1
1
1
3.25034
2.55573
1.3641
1.0193
1.00019
1
1
1
1
1
1
1
1
1
1
2.9313
2.86729
1.97927
1.1523
1.00522
1.00005
1
1
1
1
1
1
1
1
1
2.34127
2.81331
2.52471
1.54121
1.04839
1.0008
1
1
1
1
1
1
1
1
1
1.62555
2.4603
2.58166
2.08361
1.30998
1.03728
1.0019
1.00005
1
1
1
1
1
1
1
1.23489
2.04414
2.50929
2.3744
1.68341
1.10384
1.00431
1.00009
1
1
1
1
1
1
1
0.972668
1.46144
2.17135
2.3499
2.14971
1.44681
1.04647
1.00113
1.00001
1
1
1
1
1
1
0.850766
1.17012
1.69869
2.23686
2.2182
1.86064
1.21447
1.01162
1.00018
1
1
1
1
1
1
0.70717
0.99733
1.34018
1.94068
2.1828
2.09906
1.55062
1.07977
1.00231
1.00002
1
1
1
1
1
0.605612
0.87823
1.09416
1.54521
2.03977
2.08483
1.85358
1.2689
1.0202
1.00035
1
1
1
1
1
0.56886
0.770166
0.936522
1.2117
1.74993
2.02207
1.96103
1.53792
1.08995
1.00301
1.00003
1
1
1
1
0.527976
0.651119
0.837888
1.07299
1.45487
1.86429
1.92947
1.75514
1.24957
1.01961
1.00033
1
1
1
1
0.496128
0.5488
0.737109
0.943587
1.18464
1.63332
1.84971
1.7921
1.44486
1.06895
1.00216
1.00002
1
1
1
0.485469
0.526505
0.645541
0.809077
0.951401
1.36966
1.72522
1.74743
1.57951
1.17434
1.01092
1.00015
1
1
1
0.467644
0.510965
0.570826
0.726638
0.874722
1.13593
1.53555
1.67043
1.59362
1.28201
1.03371
1.00076
1.00001
1
1
0.428424
0.47596
0.498363
0.642756
0.806897
0.988675
1.34286
1.56767
1.56016
1.35965
1.07351
1.00278
1.00003
1
1
0.388493
0.431956
0.462653
0.55788
0.703446
0.866099
1.18715
1.46029
1.49283
1.37216
1.1112
1.00678
1.00008
1
1
0.382454
0.419955
0.465232
0.531087
0.622948
0.772833
1.04364
1.34671
1.41663
1.35024
1.13069
1.01103
1.00018
1
1
0.386651
0.425842
0.479439
0.523209
0.607903
0.767381
0.954857
1.23966
1.33828
1.30201
1.12535
1.01222
1.00023
1
1
0.398014
0.446713
0.500252
0.521588
0.611108
0.778584
0.950109
1.1814
1.2669
1.23972
1.10464
1.01096
1.00021
1
1
0.45367
0.48967
0.539643
0.544424
0.627699
0.804505
0.964399
1.15635
1.20644
1.17551
1.07084
1.00721
1.00015
1
1
0.583887
0.561339
0.608073
0.614634
0.670645
0.844963
1.00003
1.13879
1.15189
1.11254
1.03535
1.00289
1.00006
1
1
0.727038
0.662813
0.697069
0.714915
0.744579
0.896039
1.03301
1.1088
1.09924
1.05426
1.0108
1.00057
1.00001
1
1
0.798486
0.751278
0.770488
0.798678
0.830443
0.947385
1.04317
1.06508
1.04686
1.01529
1.00153
1.00004
1
1
1
0.857967
0.855385
0.867567
0.896017
0.931079
0.988727
1.02561
1.01829
1.00823
1.00134
1.00006
1
1
1
1
0.858078
0.770913
0.673849
0.551425
0.51806
0.51961
0.49706
0.44789
0.435342
0.412408
0.376703
0.354873
0.349567
0.37874
0.485205
0.632575
0.764232
0.829893
0.835205
0.857256
0.680075
0.622771
0.550339
0.457649
0.461071
0.467832
0.442416
0.414203
0.405768
0.379939
0.344114
0.338496
0.405163
0.563645
0.722741
0.817185
0.851939
0.855488
0.848393
0.858205
0.525607
0.506128
0.460229
0.413043
0.416063
0.417098
0.39715
0.384735
0.372903
0.348778
0.327948
0.418636
0.580036
0.68558
0.758654
0.836347
0.879011
0.87227
0.860765
0.86598
0.399532
0.402805
0.380295
0.374047
0.381291
0.377512
0.363749
0.353186
0.336841
0.328427
0.413719
0.595653
0.702492
0.725731
0.768008
0.847961
0.900096
0.88915
0.868999
0.869577
0.307721
0.32528
0.334389
0.337326
0.332641
0.32937
0.325919
0.310333
0.314736
0.437841
0.638868
0.699351
0.730838
0.760933
0.811036
0.888363
0.9151
0.898242
0.873655
0.870873
0.244707
0.257928
0.268988
0.295345
0.299862
0.287207
0.283734
0.321573
0.477025
0.653818
0.731685
0.737454
0.743169
0.766682
0.819656
0.899155
0.92518
0.904826
0.877097
0.874327
0.195612
0.209477
0.237105
0.244507
0.253487
0.325785
0.43886
0.588917
0.712114
0.741799
0.76414
0.753262
0.74996
0.774179
0.827085
0.89556
0.929381
0.908
0.880031
0.876603
0.138277
0.161036
0.238049
0.33105
0.495435
0.63753
0.682176
0.740846
0.77526
0.773445
0.775762
0.757247
0.751137
0.774402
0.827711
0.88804
0.923762
0.906216
0.881983
0.877005
0.276198
0.416477
0.541054
0.677321
0.747839
0.73964
0.754915
0.777376
0.785368
0.785249
0.782795
0.755877
0.74506
0.7642
0.809737
0.862379
0.897186
0.893572
0.875518
0.872948
0.563501
0.637161
0.710028
0.803145
0.79779
0.755793
0.754671
0.773728
0.795434
0.797284
0.791286
0.753078
0.7303
0.745155
0.783158
0.84434
0.9006
0.902114
0.883435
0.878958
)
;

boundaryField
{
    inlet
    {
        type            fixedValue;
        value           uniform 1;
    }
    outlet
    {
        type            zeroGradient;
    }
    airfoil
    {
        type            zeroGradient;
    }
    top
    {
        type            symmetryPlane;
    }
    bottom
    {
        type            symmetryPlane;
    }
    defaultFaces
    {
        type            empty;
    }
}


// ************************************************************************* //
