/*--------------------------------*- C++ -*----------------------------------*\
  =========                 |
  \\      /  F ield         | OpenFOAM: The Open Source CFD Toolbox
   \\    /   O peration     | Website:  https://openfoam.org
    \\  /    A nd           | Version:  7
     \\/     M anipulation  |
\*---------------------------------------------------------------------------*/
FoamFile
{
    version     2.0;
    format      ascii;
    class       volScalarField;
    location    "1.7";
    object      rho;
}
// * * * * * * * * * * * * * * * * * * * * * * * * * * * * * * * * * * * * * //

dimensions      [1 -3 0 0 0 0 0];

internalField   nonuniform List<scalar> 
3700
(
0.274811
0.383849
0.468788
0.530214
0.502873
0.502027
0.502809
0.530377
0.542755
0.543523
0.567187
0.614582
0.643756
0.655034
0.676076
0.687822
0.700294
0.708745
0.716131
0.714853
0.162856
0.144963
0.160565
0.148845
0.116883
0.113213
0.132608
0.164748
0.181052
0.191514
0.215685
0.244103
0.241507
0.227657
0.232988
0.244129
0.254273
0.265371
0.28426
0.284099
0.140002
0.124095
0.109211
0.0858658
0.061707
0.0621213
0.0705059
0.0838892
0.0959639
0.108756
0.121152
0.121338
0.121884
0.123592
0.126892
0.134474
0.148846
0.166065
0.182662
0.196433
0.124496
0.114408
0.102617
0.0751543
0.0554129
0.0587825
0.0688007
0.0826695
0.0980399
0.120788
0.147597
0.159621
0.171325
0.177756
0.182245
0.183987
0.186195
0.199315
0.220182
0.261707
0.110179
0.100274
0.0867562
0.0594932
0.0534353
0.058369
0.0695271
0.0816812
0.0964075
0.120277
0.150609
0.172351
0.19829
0.219821
0.23591
0.244668
0.240271
0.243466
0.251762
0.299549
0.0946057
0.0805335
0.0626019
0.0548777
0.0583177
0.072531
0.0891556
0.0936854
0.105956
0.126821
0.147331
0.173206
0.210916
0.249265
0.279913
0.311301
0.335315
0.357551
0.365454
0.398521
0.0716492
0.0610185
0.057287
0.0608288
0.0712734
0.095989
0.122163
0.136334
0.155727
0.187944
0.181469
0.190808
0.222007
0.267025
0.310227
0.360594
0.414349
0.466005
0.507148
0.571197
0.0541412
0.0537143
0.0599089
0.0639216
0.07766
0.109355
0.142515
0.174681
0.215669
0.256652
0.269814
0.291182
0.313897
0.347215
0.3794
0.42634
0.489284
0.575416
0.649468
0.785273
0.042636
0.0522955
0.0633265
0.0664884
0.0803638
0.116143
0.14541
0.187704
0.246171
0.29739
0.35456
0.40501
0.458982
0.513722
0.551373
0.593969
0.636665
0.724
0.824302
1.03436
0.036849
0.050489
0.0645114
0.0692883
0.0827881
0.125486
0.142345
0.184414
0.249322
0.323782
0.4144
0.49224
0.592142
0.673718
0.756373
0.837547
0.912484
0.996072
1.12397
1.32878
0.0345947
0.0466216
0.060146
0.0731443
0.111693
0.173363
0.188278
0.225415
0.279391
0.370242
0.486087
0.59757
0.735825
0.852727
0.985613
1.12327
1.25988
1.37652
1.60105
1.56142
0.0389861
0.0426425
0.056269
0.0933021
0.159021
0.239569
0.30208
0.392316
0.503435
0.634198
0.756837
0.875375
1.00705
1.1331
1.28387
1.48157
1.69696
1.88369
2.16545
2.09618
0.0487811
0.0396726
0.0594723
0.129168
0.198549
0.273846
0.37939
0.54009
0.743042
0.960223
1.1381
1.30939
1.47491
1.6318
1.81051
2.03988
2.30202
2.55564
2.92862
2.9142
0.0540508
0.0455241
0.0712728
0.140661
0.213872
0.271234
0.421045
0.645844
0.960358
1.29532
1.57193
1.8424
2.09094
2.33169
2.62302
2.94164
3.25117
3.58872
3.89506
4.16566
0.0555337
0.0562936
0.0691779
0.117019
0.22614
0.373821
0.674298
1.04539
1.49409
1.94138
2.31773
2.66074
2.99376
3.33975
3.76728
4.15283
4.52197
4.86893
5.09442
5.26608
0.0414381
0.0550863
0.0660998
0.12465
0.364878
0.949317
1.54583
2.13564
2.76
3.26652
3.64557
4.01412
4.39698
4.81712
5.26193
5.51801
5.66739
5.73084
5.60515
5.43446
0.0213987
0.0448512
0.134265
0.511371
1.22296
2.05699
2.82327
3.61245
4.42829
4.95895
5.24587
5.56072
5.86846
6.10896
6.23196
6.12498
5.82091
5.0799
3.88913
2.63479
0.027531
0.148604
0.680919
1.70405
3.00641
4.02886
4.88644
5.81893
6.53909
6.67844
6.56849
6.5886
6.53329
6.3028
5.59573
4.26472
2.91751
1.86653
1.42696
1.39019
0.436371
1.254
2.8247
4.44155
5.84827
6.73053
7.49334
8.12353
7.92108
7.30353
6.71489
5.96636
4.69655
3.23289
1.99201
1.44103
1.38511
1.39289
1.39626
1.39922
3.23314
5.04199
6.81859
7.91588
8.82387
8.90492
9.01374
8.60444
6.2815
4.45773
3.29648
2.17525
1.5077
1.38223
1.38999
1.39475
1.39881
1.39997
1.40003
1.40002
9.66139
9.60547
9.57673
9.66395
9.7645
9.35066
8.34887
3.34433
0.879233
1.40001
1.40001
1.40001
1.40001
1.40001
1.40001
1.40001
1.40001
1.40001
1.40001
1.40001
9.60061
9.54353
9.4783
9.40577
9.48186
8.10138
3.68286
1.43421
1.40001
1.40001
1.40001
1.40001
1.40001
1.40001
1.40001
1.40001
1.40001
1.40001
1.40001
1.40001
9.39926
9.48464
9.47381
9.29151
8.71632
4.55603
1.41973
1.39972
1.40001
1.40001
1.40001
1.40001
1.40001
1.40001
1.40001
1.40001
1.40001
1.40001
1.40001
1.40001
9.2566
9.45894
9.48081
9.10912
6.43882
1.99874
1.39363
1.40012
1.4
1.40001
1.40001
1.40001
1.40001
1.40001
1.40001
1.40001
1.40001
1.40001
1.40001
1.40001
9.09642
9.4648
9.45331
8.45189
3.80284
1.36485
1.40047
1.4
1.40001
1.40001
1.40001
1.40001
1.40001
1.40001
1.40001
1.40001
1.40001
1.40001
1.40001
1.40001
8.92345
9.45158
9.42536
6.88134
2.06878
1.40001
1.40001
1.40001
1.40001
1.40001
1.40001
1.40001
1.40001
1.40001
1.40001
1.40001
1.40001
1.40001
1.40001
1.40001
8.81522
9.26926
9.34329
4.96578
1.36206
1.40001
1.40001
1.40001
1.40001
1.40001
1.40001
1.40001
1.40001
1.40001
1.40001
1.40001
1.40001
1.40001
1.40001
1.40001
8.96819
9.18053
8.34533
2.88287
1.39999
1.40001
1.40001
1.40001
1.40001
1.40001
1.40001
1.40001
1.40001
1.40001
1.40001
1.40001
1.40001
1.40001
1.40001
1.40001
9.64673
9.26652
6.78776
1.6546
1.40001
1.40001
1.40001
1.40001
1.40001
1.40001
1.40001
1.40001
1.40001
1.40001
1.40001
1.40001
1.40001
1.40001
1.40001
1.40001
10.0088
8.8199
4.77809
1.38334
1.40001
1.40001
1.40001
1.40001
1.40001
1.40001
1.40001
1.40001
1.40001
1.40001
1.40001
1.40001
1.40001
1.40001
1.40001
1.40001
10.2603
8.25546
3.24959
1.40001
1.40001
1.40001
1.40001
1.40001
1.40001
1.40001
1.40001
1.40001
1.40001
1.40001
1.40001
1.40001
1.40001
1.40001
1.40001
1.40001
10.3754
7.58466
2.26196
1.40001
1.40001
1.40001
1.40001
1.40001
1.40001
1.40001
1.40001
1.40001
1.40001
1.40001
1.40001
1.40001
1.40001
1.40001
1.40001
1.40001
10.4087
6.65751
1.67744
1.40001
1.40001
1.40001
1.40001
1.40001
1.40001
1.40001
1.40001
1.40001
1.40001
1.40001
1.40001
1.40001
1.40001
1.40001
1.40001
1.40001
10.2424
5.59043
1.42556
1.40001
1.40001
1.40001
1.40001
1.40001
1.40001
1.40001
1.40001
1.40001
1.40001
1.40001
1.40001
1.40001
1.40001
1.40001
1.40001
1.40001
9.97289
4.413
1.40001
1.40001
1.40001
1.40001
1.40001
1.40001
1.40001
1.40001
1.40001
1.40001
1.40001
1.40001
1.40001
1.40001
1.40001
1.40001
1.40001
1.40001
9.59782
3.49921
1.40001
1.40001
1.40001
1.40001
1.40001
1.40001
1.40001
1.40001
1.40001
1.40001
1.40001
1.40001
1.40001
1.40001
1.40001
1.40001
1.40001
1.40001
9.40532
2.60478
1.40001
1.40001
1.40001
1.40001
1.40001
1.40001
1.40001
1.40001
1.40001
1.40001
1.40001
1.40001
1.40001
1.40001
1.40001
1.40001
1.40001
1.40001
8.74893
1.85381
1.40001
1.40001
1.40001
1.40001
1.40001
1.40001
1.40001
1.40001
1.40001
1.40001
1.40001
1.40001
1.40001
1.40001
1.40001
1.40001
1.40001
1.40001
7.7912
1.40634
1.40001
1.40001
1.40001
1.40001
1.40001
1.40001
1.40001
1.40001
1.40001
1.40001
1.40001
1.40001
1.40001
1.40001
1.40001
1.40001
1.40001
1.40001
6.49031
1.40012
1.40001
1.40001
1.40001
1.40001
1.40001
1.40001
1.40001
1.40001
1.40001
1.40001
1.40001
1.40001
1.40001
1.40001
1.40001
1.40001
1.40001
1.40001
6.49028
1.40012
1.40001
1.40001
1.40001
1.40001
1.40001
1.40001
1.40001
1.40001
1.40001
1.40001
1.40001
1.40001
1.40001
1.40001
1.40001
1.40001
1.40001
1.40001
7.7912
1.40634
1.40001
1.40001
1.40001
1.40001
1.40001
1.40001
1.40001
1.40001
1.40001
1.40001
1.40001
1.40001
1.40001
1.40001
1.40001
1.40001
1.40001
1.40001
8.74896
1.85382
1.40001
1.40001
1.40001
1.40001
1.40001
1.40001
1.40001
1.40001
1.40001
1.40001
1.40001
1.40001
1.40001
1.40001
1.40001
1.40001
1.40001
1.40001
9.40531
2.60477
1.40001
1.40001
1.40001
1.40001
1.40001
1.40001
1.40001
1.40001
1.40001
1.40001
1.40001
1.40001
1.40001
1.40001
1.40001
1.40001
1.40001
1.40001
9.59781
3.4992
1.40001
1.40001
1.40001
1.40001
1.40001
1.40001
1.40001
1.40001
1.40001
1.40001
1.40001
1.40001
1.40001
1.40001
1.40001
1.40001
1.40001
1.40001
9.97289
4.413
1.40001
1.40001
1.40001
1.40001
1.40001
1.40001
1.40001
1.40001
1.40001
1.40001
1.40001
1.40001
1.40001
1.40001
1.40001
1.40001
1.40001
1.40001
10.2424
5.59043
1.42556
1.40001
1.40001
1.40001
1.40001
1.40001
1.40001
1.40001
1.40001
1.40001
1.40001
1.40001
1.40001
1.40001
1.40001
1.40001
1.40001
1.40001
10.4087
6.65748
1.67745
1.40001
1.40001
1.40001
1.40001
1.40001
1.40001
1.40001
1.40001
1.40001
1.40001
1.40001
1.40001
1.40001
1.40001
1.40001
1.40001
1.40001
10.3754
7.5847
2.26194
1.40001
1.40001
1.40001
1.40001
1.40001
1.40001
1.40001
1.40001
1.40001
1.40001
1.40001
1.40001
1.40001
1.40001
1.40001
1.40001
1.40001
10.2603
8.25543
3.24961
1.40001
1.40001
1.40001
1.40001
1.40001
1.40001
1.40001
1.40001
1.40001
1.40001
1.40001
1.40001
1.40001
1.40001
1.40001
1.40001
1.40001
10.0088
8.81991
4.77806
1.38334
1.40001
1.40001
1.40001
1.40001
1.40001
1.40001
1.40001
1.40001
1.40001
1.40001
1.40001
1.40001
1.40001
1.40001
1.40001
1.40001
9.64673
9.26651
6.78773
1.6546
1.40001
1.40001
1.40001
1.40001
1.40001
1.40001
1.40001
1.40001
1.40001
1.40001
1.40001
1.40001
1.40001
1.40001
1.40001
1.40001
8.9682
9.18053
8.34533
2.88285
1.39999
1.40001
1.40001
1.40001
1.40001
1.40001
1.40001
1.40001
1.40001
1.40001
1.40001
1.40001
1.40001
1.40001
1.40001
1.40001
8.81522
9.26926
9.34334
4.96586
1.36206
1.40001
1.40001
1.40001
1.40001
1.40001
1.40001
1.40001
1.40001
1.40001
1.40001
1.40001
1.40001
1.40001
1.40001
1.40001
8.92345
9.45157
9.4253
6.8813
2.06883
1.40001
1.40001
1.40001
1.40001
1.40001
1.40001
1.40001
1.40001
1.40001
1.40001
1.40001
1.40001
1.40001
1.40001
1.40001
9.09641
9.46477
9.45329
8.45191
3.80283
1.36485
1.40047
1.4
1.40001
1.40001
1.40001
1.40001
1.40001
1.40001
1.40001
1.40001
1.40001
1.40001
1.40001
1.40001
9.25657
9.45894
9.48085
9.10924
6.43885
1.99877
1.39363
1.40012
1.4
1.40001
1.40001
1.40001
1.40001
1.40001
1.40001
1.40001
1.40001
1.40001
1.40001
1.40001
9.39924
9.48464
9.47386
9.29154
8.71625
4.556
1.41974
1.39972
1.40001
1.40001
1.40001
1.40001
1.40001
1.40001
1.40001
1.40001
1.40001
1.40001
1.40001
1.40001
9.6006
9.54351
9.47828
9.40573
9.48185
8.10143
3.68285
1.43422
1.40001
1.40001
1.40001
1.40001
1.40001
1.40001
1.40001
1.40001
1.40001
1.40001
1.40001
1.40001
9.66141
9.60545
9.57669
9.66391
9.7645
9.35073
8.34893
3.34434
0.879226
1.40001
1.40001
1.40001
1.40001
1.40001
1.40001
1.40001
1.40001
1.40001
1.40001
1.40001
3.2331
5.04269
6.8193
7.91565
8.82433
8.90483
9.01336
8.60419
6.28152
4.45792
3.29663
2.17531
1.50771
1.38222
1.38998
1.39475
1.39881
1.39997
1.40003
1.40002
0.436351
1.25145
2.82332
4.44134
5.84769
6.73115
7.49406
8.12356
7.92104
7.30349
6.71487
5.96641
4.69671
3.23308
1.99211
1.44104
1.38511
1.39289
1.39626
1.39922
0.0274051
0.151697
0.6816
1.70294
3.00797
4.02881
4.88566
5.81888
6.54045
6.67855
6.56839
6.58845
6.53315
6.30273
5.59578
4.26481
2.91752
1.86649
1.42695
1.39019
0.0207239
0.0440362
0.135369
0.512365
1.219
2.05539
2.8237
3.61327
4.42916
4.9593
5.24612
5.56109
5.86871
6.10895
6.23183
6.12487
5.8208
5.07973
3.88895
2.63465
0.0405306
0.0543959
0.0681384
0.126163
0.365198
0.947989
1.54396
2.13348
2.75832
3.2657
3.64536
4.01407
4.39682
4.81677
5.26149
5.51774
5.66729
5.73084
5.60514
5.43445
0.0547601
0.0561848
0.0698934
0.118753
0.2321
0.373805
0.672027
1.04397
1.4931
1.94071
2.31716
2.66025
2.99326
3.33925
3.7668
4.1525
4.52186
4.86903
5.09459
5.26614
0.0532501
0.0455839
0.0709564
0.140873
0.216053
0.274624
0.42431
0.647956
0.961867
1.29631
1.57266
1.84285
2.09114
2.33174
2.62296
2.94156
3.25126
3.58887
3.89534
4.16595
0.0482573
0.0396551
0.0585828
0.127894
0.198648
0.275533
0.380819
0.541067
0.744002
0.961008
1.13888
1.31006
1.47543
1.63213
1.81077
2.04011
2.30228
2.55591
2.92869
2.91411
0.0382839
0.0423816
0.0556328
0.0913857
0.157632
0.2395
0.301816
0.391989
0.503167
0.634053
0.756696
0.875289
1.00701
1.13317
1.28402
1.48178
1.69711
1.88377
2.16534
2.09606
0.0344096
0.0464652
0.0596097
0.072155
0.110544
0.172745
0.187373
0.225337
0.279025
0.369895
0.485906
0.597512
0.735887
0.852821
0.985705
1.12329
1.25978
1.37632
1.6008
1.56118
0.036754
0.0503832
0.064003
0.0686857
0.0820411
0.125077
0.142184
0.184155
0.249433
0.323991
0.41462
0.492334
0.592204
0.673752
0.756299
0.83734
0.912171
0.9957
1.12364
1.32849
0.0427193
0.0522244
0.0628763
0.0658133
0.0796236
0.115678
0.145267
0.187549
0.2465
0.297617
0.354697
0.405056
0.458832
0.513423
0.550962
0.593558
0.63633
0.723792
0.824211
1.03435
0.054442
0.053654
0.0595383
0.0633858
0.0770599
0.10888
0.14238
0.174684
0.215864
0.256947
0.269413
0.290701
0.313327
0.346708
0.37924
0.426449
0.489382
0.575469
0.649513
0.785477
0.0721444
0.0611673
0.0568774
0.060496
0.0708626
0.095638
0.122143
0.136366
0.155619
0.187505
0.181188
0.190616
0.222243
0.267486
0.310601
0.360827
0.414496
0.466118
0.507295
0.571442
0.095377
0.0808762
0.0622669
0.0547575
0.0580901
0.0721098
0.089137
0.0940139
0.106202
0.127061
0.14784
0.17384
0.211498
0.249692
0.280186
0.311445
0.335444
0.357696
0.36557
0.398519
0.111399
0.100642
0.0864951
0.0590965
0.0534324
0.0582959
0.0696206
0.0820497
0.0969087
0.121049
0.151402
0.173088
0.198787
0.220094
0.235953
0.244734
0.240328
0.243515
0.251746
0.299336
0.125212
0.114205
0.102147
0.0738474
0.0552682
0.0589728
0.0690713
0.0831768
0.0986499
0.121512
0.148467
0.160229
0.171578
0.177733
0.18207
0.183903
0.186146
0.199236
0.220038
0.261434
0.140401
0.123724
0.108286
0.0853594
0.0618324
0.0623987
0.0703934
0.0842074
0.0964495
0.10926
0.121717
0.121329
0.121719
0.123403
0.126578
0.134132
0.148764
0.166037
0.182537
0.196337
0.167353
0.158145
0.153407
0.143871
0.145927
0.145647
0.142145
0.145622
0.163442
0.194626
0.219144
0.228304
0.235408
0.244064
0.235487
0.231926
0.241907
0.260655
0.288973
0.290747
0.277316
0.415622
0.470175
0.520549
0.533752
0.533533
0.516304
0.514126
0.525296
0.541982
0.567615
0.609498
0.643287
0.669305
0.673508
0.677375
0.696558
0.70935
0.719535
0.716523
0.78098
0.882351
0.984141
1.11349
1.10671
1.04511
1.03654
1.06216
1.10357
1.10952
1.10029
1.04585
1.01179
1.0205
1.06383
1.16355
1.25882
1.26295
1.2373
1.23086
0.38386
0.578425
0.752177
0.942044
1.03963
1.02714
1.049
1.08169
1.09699
1.09594
1.08967
1.04535
1.02422
1.04736
1.11083
1.19474
1.25151
1.24999
1.22633
1.22671
0.193537
0.224802
0.332728
0.463412
0.692274
0.887701
0.94941
1.03275
1.08024
1.07788
1.07966
1.05053
1.03724
1.06744
1.14307
1.23109
1.2857
1.26432
1.2342
1.22759
0.273781
0.292938
0.330575
0.341751
0.354886
0.45486
0.61305
0.823361
0.992548
1.03616
1.06467
1.04669
1.03999
1.07671
1.15482
1.24813
1.2954
1.26645
1.23089
1.22575
0.342469
0.360721
0.37516
0.411986
0.419749
0.401512
0.397007
0.450109
0.663671
0.91539
1.01784
1.02774
1.04062
1.07592
1.15375
1.26069
1.29234
1.26323
1.22599
1.22308
0.430513
0.454965
0.465985
0.470574
0.4652
0.460465
0.456553
0.434152
0.439388
0.60819
0.885451
0.978112
1.02774
1.07089
1.14474
1.25002
1.27989
1.2559
1.22208
1.21839
0.558277
0.563711
0.529529
0.520932
0.53239
0.527537
0.509918
0.494077
0.46889
0.45655
0.578614
0.833255
0.987453
1.02008
1.08174
1.20297
1.26312
1.24647
1.21752
1.21851
0.733449
0.707428
0.640262
0.575903
0.580681
0.582696
0.556429
0.538693
0.521308
0.484811
0.457536
0.584354
0.802608
0.956966
1.06477
1.18093
1.23932
1.23139
1.21043
1.21461
0.948853
0.869008
0.76738
0.638342
0.642739
0.65293
0.618758
0.581077
0.567511
0.530946
0.477498
0.470494
0.562122
0.787839
1.00936
1.14045
1.19692
1.20425
1.19258
1.20307
1.19688
1.07525
0.939604
0.769103
0.721742
0.724897
0.694786
0.628443
0.608965
0.576136
0.523536
0.493442
0.487212
0.528471
0.677585
0.876825
1.07072
1.16053
1.16944
1.20096
1.72039
1.35545
1.18711
0.987804
0.843254
0.793363
0.737643
0.69487
0.679943
0.655116
0.598569
0.542536
0.533531
0.538133
0.554036
0.63097
0.815554
1.01972
1.12051
1.20266
2.84398
2.03283
1.63214
1.39236
1.22396
1.07307
0.907734
0.765181
0.736199
0.718147
0.66887
0.604304
0.586101
0.594223
0.622021
0.679124
0.778248
0.923785
1.05141
1.19819
3.49174
3.02157
2.36612
1.86775
1.52507
1.30653
1.16874
1.0252
0.898883
0.797426
0.699492
0.649928
0.653834
0.673421
0.701871
0.75533
0.848234
0.971684
1.07569
1.21409
3.30788
3.27211
3.11427
2.7029
2.15233
1.68975
1.49645
1.31601
1.12906
1.0124
0.895456
0.778091
0.744073
0.734774
0.734185
0.767246
0.864068
1.00128
1.11779
1.25494
2.35083
2.99854
3.09169
3.04132
2.84261
2.43818
2.02745
1.65421
1.32987
1.22151
1.12663
0.98165
0.869706
0.848732
0.853568
0.877627
0.939073
1.04386
1.16488
1.30501
1.54475
2.02259
2.59844
2.92909
2.90765
2.81944
2.59956
2.27826
1.91162
1.58596
1.38235
1.21303
1.08187
1.07425
1.09006
1.12622
1.18314
1.25579
1.32818
1.38504
1.40602
1.46483
1.69924
2.16771
2.5892
2.73772
2.69268
2.58139
2.40812
2.14402
1.87592
1.65951
1.45926
1.33593
1.3301
1.35057
1.40079
1.44709
1.46108
1.43601
1.40014
1.40159
1.41623
1.51136
1.77515
2.15001
2.4524
2.50325
2.44083
2.33342
2.1903
2.0409
1.88278
1.73368
1.65289
1.61831
1.59398
1.55212
1.49105
1.42563
1.40001
1.40002
1.40026
1.40323
1.4282
1.5255
1.74813
2.0204
2.20805
2.22764
2.18099
2.08713
1.98094
1.8718
1.77237
1.68813
1.6121
1.53865
1.46549
1.4115
1.40001
1.40001
1.40001
1.40004
1.4005
1.40421
1.42737
1.49621
1.64325
1.79347
1.90181
1.91929
1.88871
1.82142
1.73454
1.64498
1.55712
1.47575
1.42135
1.40187
1.40001
1.40001
1.40001
1.40001
1.40001
1.40005
1.40046
1.40302
1.41524
1.44705
1.5026
1.5552
1.5824
1.57495
1.54605
1.49888
1.44935
1.41508
1.40213
1.40009
1.40001
1.40001
1.40001
1.40001
1.40001
1.40001
1.40001
1.40003
1.40021
1.40107
1.40389
1.40947
1.4154
1.41706
1.41531
1.41006
1.40404
1.4008
1.40006
1.40001
1.40001
1.40001
1.40001
1.40001
1.40001
1.40001
1.40001
1.40001
1.40001
1.40001
1.40004
1.40012
1.40025
1.40032
1.4003
1.40021
1.40008
1.40002
1.40001
1.40001
1.40001
1.40001
1.40001
1.40001
1.40001
1.40001
1.40001
1.40001
1.40001
1.40001
1.40001
1.40001
1.40001
1.40001
1.40001
1.40001
1.40001
1.40001
1.40001
1.40001
1.40001
1.40001
1.40001
1.40001
1.40001
1.40001
1.40001
1.40001
1.40001
1.40001
1.40001
1.40001
1.40001
1.40001
1.40001
1.40001
1.40001
1.40001
1.40001
1.40001
2.26233
3.42213
3.59248
2.90501
1.83137
1.45194
1.40266
1.40007
1.40001
1.40001
1.40001
1.40001
1.40001
1.40001
1.40001
3.25604
3.91275
3.51642
2.15299
1.46742
1.40112
1.40001
1.4
1.40001
1.40001
1.40001
1.40001
1.40001
1.40001
1.40001
4.07508
3.98891
2.76072
1.61205
1.40728
1.40008
1.40001
1.40001
1.40001
1.40001
1.40001
1.40001
1.40001
1.40001
1.40001
4.51801
3.55964
1.90658
1.42688
1.40026
1.40001
1.40001
1.40001
1.40001
1.40001
1.40001
1.40001
1.40001
1.40001
1.40001
4.62207
2.34813
1.46534
1.40071
1.40001
1.40001
1.40001
1.40001
1.40001
1.40001
1.40001
1.40001
1.40001
1.40001
1.40001
2.88194
1.50169
1.40067
1.4
1.4
1.4
1.40001
1.40001
1.40001
1.40001
1.40001
1.40001
1.40001
1.40001
1.40001
1.54098
1.40077
1.4
1.4
1.40001
1.40001
1.40001
1.40001
1.40001
1.40001
1.40001
1.40001
1.40001
1.40001
1.40001
1.39744
1.39982
1.4
1.40001
1.40001
1.40001
1.40001
1.40001
1.40001
1.40001
1.40001
1.40001
1.40001
1.40001
1.40001
1.39996
1.40001
1.40001
1.40001
1.40001
1.40001
1.40001
1.40001
1.40001
1.40001
1.40001
1.40001
1.40001
1.40001
1.40001
1.40001
1.40001
1.40001
1.40001
1.40001
1.40001
1.40001
1.40001
1.40001
1.40001
1.40001
1.40001
1.40001
1.40001
1.40001
1.40001
1.40001
1.40001
1.40001
1.40001
1.40001
1.40001
1.40001
1.40001
1.40001
1.40001
1.40001
1.40001
1.40001
1.40001
1.40001
1.40001
1.40001
1.40001
1.40001
1.40001
1.40001
1.40001
1.40001
1.40001
1.40001
1.40001
1.40001
1.40001
1.40001
1.40001
1.40001
1.40001
1.40001
1.40001
1.40001
1.40001
1.40001
1.40001
1.40001
1.40001
1.40001
1.40001
1.40001
1.40001
1.40001
1.40001
1.40001
1.40001
1.40001
1.40001
1.40001
1.40001
1.40001
1.40001
1.40001
1.40001
1.40001
1.40001
1.40001
1.40001
1.40001
1.40001
1.40001
1.40001
1.40001
1.40001
1.40001
1.40001
1.40001
1.40001
1.40001
1.40001
1.40001
1.40001
1.40001
1.40001
1.40001
1.40001
1.40001
1.40001
1.40001
1.40001
1.40001
1.40001
1.40001
1.40001
1.40001
1.40001
1.40001
1.40001
1.40001
1.40001
1.40001
1.40001
1.40001
1.40001
1.40001
1.40001
1.40001
1.40001
1.40001
1.40001
1.40001
1.40001
1.40001
1.40001
1.40001
1.40001
1.40001
1.40001
1.40001
1.40001
1.40001
1.40001
1.40001
1.40001
1.40001
1.40001
1.40001
1.40001
1.40001
1.40001
1.40001
1.40001
1.40001
1.40001
1.40001
1.40001
1.40001
1.40001
1.40001
1.40001
1.40001
1.40001
1.40001
1.40001
1.40001
1.40001
1.40001
1.40001
1.40001
1.40001
1.40001
1.40001
1.40001
1.40001
1.40001
1.40001
1.40001
1.40001
1.40001
1.40001
1.40001
1.40001
1.40001
1.40001
1.40001
1.40001
1.40001
1.40001
1.40001
1.40001
1.40001
1.40001
1.40001
1.40001
1.40001
1.40001
1.40001
1.40001
1.40001
1.40001
1.40001
1.40001
1.40001
1.40001
1.40001
1.40001
1.40001
1.40001
1.40001
1.40001
1.40001
1.40001
1.40001
1.40001
1.40001
1.40001
1.40001
1.40001
1.40001
1.40001
1.40001
1.40001
1.40001
1.40001
1.40001
1.40001
1.40001
1.40001
1.40001
1.40001
1.40001
1.40001
1.40001
1.40001
1.40001
1.40001
1.40001
1.40001
1.40001
1.40001
1.40001
1.40001
1.40001
1.40001
1.40001
1.40001
1.40001
1.40001
1.40001
1.40001
1.40001
1.40001
1.40001
1.40001
1.40001
1.40001
1.40001
1.40001
1.40001
1.40001
1.40001
1.40001
1.40001
1.40001
1.40001
1.40001
1.40001
1.40001
1.40001
1.40001
1.40001
1.40001
1.40001
1.40001
1.40001
1.40001
1.40001
1.40001
1.40001
1.40001
1.40001
1.40001
1.40001
1.40001
1.40001
1.40001
1.40001
1.40001
1.40001
1.40001
1.40001
1.40001
1.40001
1.40001
1.40001
1.40001
1.40001
1.40001
1.40001
1.40001
1.40001
1.40001
1.40001
1.40001
1.40001
1.40001
1.40001
1.40001
1.40001
1.40001
1.40001
1.40001
1.40001
1.40001
1.40001
1.40001
1.40001
1.40001
1.40001
1.40001
1.40001
1.40001
1.40001
1.40001
1.40001
1.40001
1.40001
1.40001
1.40001
1.40001
1.40001
1.40001
1.40001
1.40001
1.40001
1.40001
1.40001
1.40001
1.40001
1.40001
1.40001
1.40001
1.40001
1.40001
1.40001
1.40001
1.40001
1.40001
1.40001
1.40001
1.40001
1.40001
1.40001
1.40001
1.40001
1.40001
1.40001
1.40001
1.40001
1.40001
1.40001
1.40001
1.40001
1.40001
1.40001
1.40001
1.40001
1.40001
1.40001
1.40001
1.40001
1.40001
1.40001
1.40001
1.40001
1.40001
1.40001
1.40001
1.40001
1.40001
1.40001
1.40001
1.40001
1.40001
1.40001
1.40001
1.40001
1.40001
1.40001
1.40001
1.40001
1.40001
1.40001
1.40001
1.40001
1.40001
1.40001
1.40001
1.40001
1.40001
1.40001
1.40001
1.40001
1.40001
1.40001
1.40001
1.40001
1.40001
1.40001
1.40001
1.40001
1.40001
1.40001
1.40001
1.40001
1.40001
1.40001
1.40001
1.40001
1.40001
1.40001
1.40001
1.40001
1.40001
1.40001
1.40001
1.40001
1.40001
1.40001
1.40001
1.40001
1.40001
1.40001
1.40001
1.40001
1.40001
1.40001
1.40001
1.40001
1.40001
1.40001
1.40001
1.40001
1.40001
1.40001
1.40001
1.40001
1.40001
1.40001
1.40001
1.40001
1.40001
1.40001
1.40001
1.40001
1.40001
1.40001
1.40001
1.40001
1.40001
1.40001
1.40001
1.40001
1.40001
1.40001
1.40001
1.40001
1.40001
1.40001
1.40001
1.40001
1.40001
1.40001
1.40001
1.40001
1.40001
1.40001
1.40001
1.40001
1.40001
1.40001
1.40001
1.40001
1.40001
1.40001
1.40001
1.40001
1.40001
1.40001
1.40001
1.40001
1.40001
1.40001
1.40001
1.40001
1.40001
1.40001
1.40001
1.40001
1.40001
1.40001
1.40001
1.40001
1.40001
1.40001
1.40001
1.40001
1.40001
1.40001
1.40001
1.40001
1.40001
1.40001
1.40001
1.40001
1.40001
1.40001
1.40001
1.40001
1.40001
1.40001
1.40001
1.40001
1.40001
1.40001
1.40001
1.40001
1.40001
1.40001
1.40001
1.40001
1.40001
1.40001
1.40001
1.40001
1.40001
1.40001
1.40001
1.40001
1.40001
1.40001
1.40001
1.40001
1.40001
1.40001
1.40001
1.40001
1.40001
1.40001
1.40001
1.40001
1.40001
1.40001
1.40001
1.40001
1.40001
1.40001
1.40001
1.40001
1.40001
1.40001
1.40001
1.40001
1.40001
1.40001
1.40001
1.40001
1.40001
1.40001
1.40001
1.40001
1.40001
1.40001
1.40001
1.40001
1.40001
1.40001
1.40001
1.40001
1.40001
1.40001
1.40001
1.40001
1.40001
1.40001
1.40001
1.40001
1.40001
1.40001
1.40001
1.40001
1.40001
1.40001
1.40001
1.40001
1.40001
1.40001
1.40001
1.40001
1.40001
1.40001
1.40001
1.40001
1.40001
1.40001
1.40001
1.40001
1.40001
1.40001
1.40001
1.40001
1.40001
1.40001
1.40001
1.40001
1.40001
1.40001
1.40001
1.40001
1.40001
1.40001
1.40001
1.40001
1.40001
1.40001
1.40001
1.40001
1.40001
1.40001
1.40001
1.40001
1.40001
1.40001
1.40001
1.40001
1.40001
1.40001
1.40001
1.40001
1.40001
1.40001
1.40001
1.40001
1.40001
1.40001
1.40001
1.40001
1.40001
1.40001
1.40001
1.40001
1.40001
1.40001
1.40001
1.40001
1.40001
1.40001
1.40001
1.40001
1.40001
1.40001
1.40001
1.40001
1.40001
1.40001
1.40001
1.40001
1.40001
1.40001
1.40001
1.40001
1.40001
1.40001
1.40001
1.40001
1.40001
1.40001
1.40001
1.40001
1.40001
1.40001
1.40001
1.40001
1.40001
1.40001
1.40001
1.40001
1.40001
1.40001
1.40001
1.40001
1.40001
1.40001
1.40001
1.40001
1.40001
1.40001
1.40001
1.40001
1.40001
1.40001
1.40001
1.40001
1.40001
1.40001
1.40001
1.40001
1.40001
1.40001
1.40001
1.40001
1.40001
1.40001
1.40001
1.40001
1.40001
1.40001
1.40001
1.40001
1.40001
1.40001
1.40001
1.40001
1.40001
1.40001
1.40001
1.40001
1.40001
1.40001
1.40001
1.40001
1.40001
1.40001
1.40001
1.40001
1.40001
1.40001
1.40001
1.40001
1.40001
1.40001
1.40001
1.40001
1.40001
1.40001
1.40001
1.40001
1.40001
1.40001
1.40001
1.40001
1.40001
1.40001
1.40001
1.40001
1.40001
1.40001
1.40001
1.40001
1.40001
1.40001
1.40001
1.40001
1.40001
1.40001
1.40001
1.40001
1.40001
1.40001
1.40001
1.40001
1.40001
1.40001
1.40001
1.40001
1.40001
1.40001
1.40001
1.40001
1.40001
1.40001
1.40001
1.40001
1.40001
1.40001
1.40001
1.40001
1.40001
1.40001
1.40001
1.40001
1.40001
1.40001
1.40001
1.40001
1.40001
1.40001
1.40001
1.40001
1.40001
1.40001
1.40001
1.40001
1.40001
1.40001
1.40001
1.40001
1.40001
1.40001
1.40001
1.40001
1.40001
1.40001
1.40001
1.40001
1.40001
1.40001
1.40001
1.40001
1.40001
1.40001
1.40001
1.40001
1.40001
1.40001
1.40001
1.40001
1.40001
1.40001
1.40001
1.40001
1.40001
1.40001
1.40001
1.40001
1.40001
1.40001
1.40001
1.40001
1.40001
1.40001
1.40001
1.39996
1.40001
1.40001
1.40001
1.40001
1.40001
1.40001
1.40001
1.40001
1.40001
1.40001
1.40001
1.40001
1.40001
1.40001
1.39744
1.39982
1.4
1.40001
1.40001
1.40001
1.40001
1.40001
1.40001
1.40001
1.40001
1.40001
1.40001
1.40001
1.40001
1.54096
1.40077
1.4
1.4
1.40001
1.40001
1.40001
1.40001
1.40001
1.40001
1.40001
1.40001
1.40001
1.40001
1.40001
2.88187
1.50168
1.40067
1.4
1.4
1.4
1.40001
1.40001
1.40001
1.40001
1.40001
1.40001
1.40001
1.40001
1.40001
4.62208
2.34812
1.46533
1.40071
1.40001
1.40001
1.40001
1.40001
1.40001
1.40001
1.40001
1.40001
1.40001
1.40001
1.40001
4.51802
3.55962
1.90658
1.42689
1.40027
1.40001
1.40001
1.40001
1.40001
1.40001
1.40001
1.40001
1.40001
1.40001
1.40001
4.0751
3.98885
2.76068
1.61203
1.40728
1.40008
1.40001
1.40001
1.40001
1.40001
1.40001
1.40001
1.40001
1.40001
1.40001
3.25592
3.91273
3.51639
2.15301
1.46742
1.40112
1.40001
1.4
1.40001
1.40001
1.40001
1.40001
1.40001
1.40001
1.40001
2.26226
3.42211
3.59245
2.90499
1.83137
1.45194
1.40266
1.40007
1.40001
1.40001
1.40001
1.40001
1.40001
1.40001
1.40001
1.71984
2.84419
3.49176
3.30798
2.3509
1.54474
1.40602
1.40014
1.40001
1.40001
1.40001
1.40001
1.40001
1.40001
1.40001
1.35555
2.03506
3.02217
3.27201
2.99833
2.02255
1.46483
1.40159
1.40002
1.40001
1.40001
1.40001
1.40001
1.40001
1.40001
1.18612
1.63037
2.36549
3.11476
3.0917
2.59822
1.69911
1.41622
1.40026
1.40001
1.40001
1.40001
1.40001
1.40001
1.40001
0.986407
1.39026
1.86738
2.70297
3.04129
2.9289
2.1675
1.5113
1.40323
1.40004
1.40001
1.40001
1.40001
1.40001
1.40001
0.845155
1.22465
1.52538
2.1532
2.84228
2.90752
2.58903
1.77508
1.42819
1.4005
1.40001
1.40001
1.40001
1.40001
1.40001
0.794067
1.07438
1.30619
1.68952
2.4391
2.81948
2.73773
2.15002
1.52552
1.40421
1.40005
1.40001
1.40001
1.40001
1.40001
0.737192
0.908742
1.16895
1.49661
2.02871
2.59979
2.69273
2.45248
1.74819
1.42737
1.40046
1.40001
1.40001
1.40001
1.40001
0.692874
0.766328
1.0287
1.31661
1.65278
2.27833
2.58144
2.50328
2.02045
1.49623
1.40302
1.40003
1.40001
1.40001
1.40001
0.678099
0.735386
0.901307
1.12944
1.3282
1.91144
2.40801
2.44084
2.20807
1.64325
1.41524
1.40021
1.40001
1.40001
1.40001
0.653362
0.713855
0.797412
1.01479
1.22161
1.58619
2.14397
2.33342
2.22763
1.79345
1.44705
1.40107
1.40001
1.40001
1.40001
0.598806
0.665195
0.696556
0.898076
1.12736
1.38135
1.87579
2.19028
2.18097
1.90178
1.50259
1.40389
1.40004
1.40001
1.40001
0.543198
0.60394
0.646917
0.779946
0.983376
1.21076
1.65912
2.04087
2.08711
1.91927
1.5552
1.40947
1.40012
1.40001
1.40001
0.534935
0.58741
0.65077
0.74288
0.871353
1.08095
1.45938
1.8828
1.98094
1.8887
1.5824
1.4154
1.40025
1.40001
1.40001
0.54107
0.595952
0.67095
0.732291
0.850841
1.07387
1.33592
1.73381
1.87181
1.82142
1.57495
1.41706
1.40032
1.40001
1.40001
0.557412
0.625606
0.700556
0.730596
0.855903
1.09007
1.3298
1.65284
1.77236
1.73453
1.54605
1.41531
1.4003
1.40001
1.40001
0.635665
0.6862
0.756166
0.762963
0.879494
1.12666
1.35005
1.61809
1.68807
1.64495
1.49888
1.41006
1.40021
1.40001
1.40001
0.818053
0.786662
0.852094
0.861346
0.939703
1.18334
1.39993
1.59368
1.61199
1.55708
1.44935
1.40404
1.40008
1.40001
1.40001
1.01853
0.928811
0.97674
1.00175
1.04322
1.25482
1.44606
1.55186
1.53851
1.47574
1.41508
1.4008
1.40002
1.40001
1.40001
1.1186
1.05266
1.0795
1.1189
1.16327
1.32657
1.46027
1.49085
1.46542
1.42135
1.40213
1.40007
1.40001
1.40001
1.40001
1.20175
1.19814
1.21514
1.25486
1.3038
1.38428
1.43576
1.42553
1.41149
1.40187
1.40009
1.40001
1.40001
1.40001
1.40001
1.1962
1.07495
0.939931
0.769573
0.723197
0.725409
0.694065
0.625622
0.608201
0.57632
0.52661
0.496233
0.48897
0.529925
0.678981
0.885311
1.06986
1.16219
1.16989
1.20073
0.948639
0.868901
0.768085
0.639032
0.643826
0.653275
0.61792
0.578656
0.566955
0.531024
0.481102
0.473367
0.566407
0.787586
1.01008
1.14276
1.19229
1.19793
1.18833
1.20204
0.73362
0.70655
0.642663
0.57694
0.581151
0.582603
0.554831
0.537563
0.521117
0.487546
0.458528
0.584917
0.809818
0.957275
1.05985
1.16937
1.23004
1.22141
1.20562
1.2129
0.558004
0.562621
0.531317
0.522625
0.532718
0.527453
0.508275
0.493569
0.470828
0.459106
0.577941
0.831013
0.979952
1.01269
1.07249
1.18535
1.25944
1.24504
1.21713
1.21792
0.430026
0.454564