/*--------------------------------*- C++ -*----------------------------------*\
  =========                 |
  \\      /  F ield         | OpenFOAM: The Open Source CFD Toolbox
   \\    /   O peration     | Website:  https://openfoam.org
    \\  /    A nd           | Version:  7
     \\/     M anipulation  |
\*---------------------------------------------------------------------------*/
FoamFile
{
    version     2.0;
    format      ascii;
    class       volScalarField;
    location    "1.7";
    object      T;
}
// * * * * * * * * * * * * * * * * * * * * * * * * * * * * * * * * * * * * * //

dimensions      [0 0 0 1 0 0 0];

internalField   nonuniform List<scalar> 
3700
(
100.652
100.794
100.978
101.051
101.021
100.989
100.987
101.015
101.021
101.03
101.087
101.149
101.154
101.141
101.13
101.116
101.1
101.085
101.072
101.065
100.294
100.277
100.407
100.434
100.362
100.341
100.442
100.525
100.488
100.445
100.501
100.615
100.613
100.536
100.519
100.515
100.478
100.434
100.429
100.407
100.249
100.193
100.125
100.026
99.9039
99.8956
99.9313
99.9804
100.004
100.02
100.029
100.018
100.002
99.9937
99.9929
100.003
100.02
100.038
100.049
100.048
100.214
100.166
100.098
99.9783
99.8511
99.8619
99.9034
99.9508
99.9915
100.037
100.064
100.066
100.073
100.07
100.058
100.042
100.03
100.042
100.064
100.094
100.147
100.093
100.027
99.8796
99.8258
99.85
99.8926
99.9277
99.9631
100.021
100.063
100.077
100.1
100.117
100.117
100.116
100.095
100.077
100.072
100.107
100.081
100.007
99.9154
99.8407
99.832
99.8782
99.9162
99.9252
99.9591
100.014
100.042
100.067
100.101
100.131
100.147
100.162
100.172
100.174
100.169
100.174
100.003
99.9402
99.8906
99.8772
99.9151
99.9961
100.035
100.028
100.038
100.076
100.059
100.069
100.095
100.125
100.153
100.183
100.213
100.232
100.24
100.262
99.9452
99.931
99.9291
99.922
99.9965
100.087
100.123
100.139
100.161
100.175
100.167
100.168
100.171
100.175
100.182
100.203
100.235
100.272
100.292
100.331
99.912
99.9693
99.9891
99.9789
100.063
100.144
100.154
100.182
100.216
100.23
100.248
100.255
100.273
100.281
100.283
100.286
100.29
100.312
100.34
100.391
99.9034
99.9981
100.019
100.013
100.099
100.168
100.151
100.181
100.22
100.252
100.285
100.303
100.334
100.345
100.357
100.367
100.377
100.391
100.414
100.451
99.8906
99.9841
99.9903
100.005
100.122
100.194
100.173
100.194
100.223
100.267
100.304
100.333
100.371
100.39
100.412
100.431
100.449
100.466
100.503
100.494
99.8894
99.8527
99.9167
100.01
100.154
100.231
100.259
100.298
100.339
100.383
100.4
100.417
100.432
100.445
100.463
100.489
100.518
100.54
100.579
100.571
99.8735
99.7345
99.8965
100.077
100.177
100.245
100.307
100.373
100.43
100.471
100.486
100.503
100.517
100.53
100.547
100.568
100.592
100.617
100.654
100.655
99.8392
99.6981
99.8889
100.109
100.18
100.225
100.322
100.408
100.487
100.534
100.553
100.572
100.59
100.61
100.638
100.665
100.688
100.708
100.723
100.734
99.818
99.7141
99.8339
100.061
100.19
100.333
100.451
100.521
100.579
100.612
100.629
100.645
100.666
100.694
100.728
100.754
100.773
100.783
100.779
100.774
99.7196
99.6881
99.7938
100.092
100.35
100.558
100.632
100.678
100.712
100.726
100.734
100.747
100.766
100.793
100.815
100.824
100.822
100.814
100.788
100.743
99.4412
99.6092
100.034
100.422
100.623
100.7
100.737
100.772
100.799
100.811
100.819
100.833
100.85
100.857
100.857
100.846
100.794
100.68
100.516
100.276
99.4754
100.035
100.466
100.671
100.775
100.81
100.836
100.862
100.875
100.881
100.88
100.881
100.881
100.858
100.773
100.624
100.36
100.102
100.006
99.9979
100.114
100.526
100.746
100.839
100.883
100.901
100.919
100.925
100.92
100.908
100.892
100.835
100.721
100.469
100.148
100.01
99.9966
99.9985
99.9992
99.9998
100.697
100.835
100.914
100.947
100.962
100.952
100.953
100.932
100.841
100.758
100.57
100.23
100.029
99.9957
99.9977
99.9989
99.9998
100
100
100
100.998
100.996
100.994
100.989
100.978
100.943
100.882
100.473
99.8348
100
100
100
100
100
100
100
100
100
100
100
100.998
100.996
100.99
100.978
100.953
100.855
100.495
100.017
100
100
100
100
100
100
100
100
100
100
100
100
100.991
100.992
100.989
100.971
100.914
100.612
100.02
99.9997
100
100
100
100
100
100
100
100
100
100
100
100
100.986
100.991
100.988
100.958
100.787
100.238
99.9968
100
100
100
100
100
100
100
100
100
100
100
100
100
100.98
100.99
100.986
100.921
100.571
99.992
100
100
100
100
100
100
100
100
100
100
100
100
100
100
100.974
100.989
100.982
100.833
100.277
100
100
100
100
100
100
100
100
100
100
100
100
100
100
100
100.971
100.979
100.971
100.705
99.9925
100
100
100
100
100
100
100
100
100
100
100
100
100
100
100
100.981
100.973
100.915
100.474
100
100
100
100
100
100
100
100
100
100
100
100
100
100
100
100
101.005
100.972
100.817
100.133
100
100
100
100
100
100
100
100
100
100
100
100
100
100
100
100
101.017
100.943
100.676
99.9965
100
100
100
100
100
100
100
100
100
100
100
100
100
100
100
100
101.026
100.904
100.51
100
100
100
100
100
100
100
100
100
100
100
100
100
100
100
100
100
101.031
100.862
100.324
100
100
100
100
100
100
100
100
100
100
100
100
100
100
100
100
100
101.032
100.806
100.133
100
100
100
100
100
100
100
100
100
100
100
100
100
100
100
100
100
101.024
100.738
100.011
100
100
100
100
100
100
100
100
100
100
100
100
100
100
100
100
100
101.008
100.657
100
100
100
100
100
100
100
100
100
100
100
100
100
100
100
100
100
100
100.982
100.571
100
100
100
100
100
100
100
100
100
100
100
100
100
100
100
100
100
100
100.951
100.43
100
100
100
100
100
100
100
100
100
100
100
100
100
100
100
100
100
100
100.897
100.209
100
100
100
100
100
100
100
100
100
100
100
100
100
100
100
100
100
100
100.85
100.004
100
100
100
100
100
100
100
100
100
100
100
100
100
100
100
100
100
100
100.815
100
100
100
100
100
100
100
100
100
100
100
100
100
100
100
100
100
100
100
100.815
100
100
100
100
100
100
100
100
100
100
100
100
100
100
100
100
100
100
100
100.85
100.004
100
100
100
100
100
100
100
100
100
100
100
100
100
100
100
100
100
100
100.897
100.209
100
100
100
100
100
100
100
100
100
100
100
100
100
100
100
100
100
100
100.951
100.43
100
100
100
100
100
100
100
100
100
100
100
100
100
100
100
100
100
100
100.982
100.571
100
100
100
100
100
100
100
100
100
100
100
100
100
100
100
100
100
100
101.008
100.657
100
100
100
100
100
100
100
100
100
100
100
100
100
100
100
100
100
100
101.024
100.738
100.011
100
100
100
100
100
100
100
100
100
100
100
100
100
100
100
100
100
101.032
100.806
100.133
100
100
100
100
100
100
100
100
100
100
100
100
100
100
100
100
100
101.031
100.862
100.324
100
100
100
100
100
100
100
100
100
100
100
100
100
100
100
100
100
101.026
100.904
100.51
100
100
100
100
100
100
100
100
100
100
100
100
100
100
100
100
100
101.017
100.943
100.676
99.9965
100
100
100
100
100
100
100
100
100
100
100
100
100
100
100
100
101.005
100.972
100.817
100.133
100
100
100
100
100
100
100
100
100
100
100
100
100
100
100
100
100.981
100.973
100.915
100.474
100
100
100
100
100
100
100
100
100
100
100
100
100
100
100
100
100.971
100.979
100.971
100.705
99.9925
100
100
100
100
100
100
100
100
100
100
100
100
100
100
100
100.974
100.989
100.982
100.833
100.277
100
100
100
100
100
100
100
100
100
100
100
100
100
100
100
100.98
100.99
100.986
100.921
100.571
99.992
100
100
100
100
100
100
100
100
100
100
100
100
100
100
100.986
100.991
100.988
100.958
100.787
100.238
99.9968
100
100
100
100
100
100
100
100
100
100
100
100
100
100.991
100.992
100.989
100.971
100.914
100.612
100.02
99.9997
100
100
100
100
100
100
100
100
100
100
100
100
100.998
100.996
100.99
100.978
100.953
100.855
100.495
100.017
100
100
100
100
100
100
100
100
100
100
100
100
100.998
100.996
100.994
100.989
100.978
100.943
100.882
100.473
99.8348
100
100
100
100
100
100
100
100
100
100
100
100.697
100.835
100.914
100.947
100.962
100.952
100.953
100.932
100.841
100.758
100.57
100.23
100.029
99.9957
99.9977
99.9989
99.9998
100
100
100
100.114
100.526
100.746
100.839
100.883
100.901
100.919
100.925
100.92
100.908
100.892
100.835
100.721
100.469
100.148
100.01
99.9966
99.9985
99.9992
99.9998
99.4677
100.036
100.466
100.671
100.775
100.81
100.836
100.862
100.875
100.881
100.88
100.881
100.881
100.858
100.773
100.624
100.36
100.102
100.006
99.9979
99.4207
99.6045
100.034
100.422
100.622
100.699
100.737
100.772
100.799
100.811
100.819
100.833
100.85
100.857
100.857
100.846
100.794
100.68
100.516
100.276
99.7076
99.6857
99.8022
100.096
100.348
100.557
100.632
100.678
100.712
100.726
100.734
100.746
100.766
100.793
100.815
100.824
100.822
100.814
100.788
100.743
99.8163
99.7141
99.8376
100.068
100.2
100.333
100.449
100.521
100.579
100.612
100.629
100.645
100.666
100.694
100.728
100.754
100.773
100.783
100.779
100.774
99.8416
99.6997
99.8871
100.111
100.184
100.229
100.324
100.409
100.487
100.534
100.553
100.572
100.59
100.61
100.638
100.665
100.688
100.708
100.723
100.734
99.8791
99.7363
99.8938
100.075
100.178
100.247
100.308
100.374
100.43
100.471
100.486
100.504
100.517
100.53
100.547
100.568
100.592
100.617
100.654
100.655
99.8924
99.8579
99.9148
100.007
100.154
100.233
100.259
100.298
100.34
100.383
100.401
100.417
100.432
100.445
100.463
100.489
100.518
100.54
100.579
100.571
99.8937
99.9886
99.9906
100.002
100.122
100.194
100.173
100.194
100.223
100.268
100.305
100.334
100.371
100.391
100.412
100.431
100.449
100.466
100.503
100.494
99.9036
99.9997
100.018
100.01
100.097
100.168
100.15
100.181
100.221
100.252
100.285
100.303
100.334
100.344
100.357
100.366
100.377
100.391
100.413
100.451
99.9109
99.9692
99.9878
99.9745
100.058
100.142
100.153
100.182
100.216
100.23
100.247
100.255
100.273
100.281
100.283
100.285
100.29
100.312
100.34
100.391
99.9449
99.9307
99.9281
99.9195
99.9926
100.084
100.122
100.138
100.16
100.175
100.166
100.167
100.17
100.174
100.182
100.203
100.235
100.272
100.292
100.331
100.004
99.941
99.8896
99.8766
99.9137
99.995
100.034
100.028
100.037
100.076
100.059
100.07
100.095
100.125
100.154
100.184
100.213
100.232
100.24
100.263
100.083
100.009
99.915
99.8413
99.8325
99.8783
99.9177
99.9275
99.9613
100.016
100.044
100.068
100.102
100.132
100.148
100.162
100.172
100.174
100.169
100.174
100.152
100.095
100.026
99.8782
99.8271
99.8515
99.8951
99.9304
99.9656
100.024
100.065
100.079
100.101
100.118
100.118
100.117
100.095
100.077
100.072
100.107
100.216
100.165
100.097
99.9733
99.8515
99.8647
99.9065
99.9546
99.9951
100.04
100.067
100.068
100.074
100.071
100.058
100.041
100.03
100.042
100.064
100.094
100.249
100.192
100.122
100.025
99.9064
99.8991
99.9333
99.9826
100.007
100.022
100.031
100.018
100.002
99.9929
99.9917
100.002
100.019
100.038
100.049
100.047
100.298
100.335
100.352
100.421
100.577
100.563
100.473
100.356
100.389
100.514
100.562
100.556
100.567
100.591
100.552
100.458
100.428
100.429
100.441
100.427
100.659
100.852
100.946
101.05
101.065
101.048
101.009
100.968
100.979
101.046
101.112
101.145
101.15
101.147
101.132
101.105
101.087
101.081
101.074
101.069
101.067
101.043
101.013
100.986
100.953
100.907
100.857
100.84
100.844
100.847
100.828
100.722
100.496
100.251
100.091
100.022
99.9949
99.9775
99.9677
99.9678
100.562
100.652
100.706
100.729
100.753
100.761
100.75
100.745
100.758
100.787
100.783
100.708
100.527
100.309
100.142
100.042
99.9945
99.9732
99.9649
99.9664
100.025
100.07
100.178
100.273
100.394
100.499
100.519
100.548
100.589
100.653
100.69
100.662
100.555
100.397
100.229
100.091
100.012
99.9748
99.9659
99.9658
100.087
100.086
100.099
100.097
100.106
100.198
100.287
100.371
100.435
100.508
100.584
100.585
100.542
100.442
100.297
100.145
100.032
99.9747
99.9635
99.964
100.136
100.135
100.131
100.14
100.14
100.127
100.127
100.171
100.29
100.397
100.484
100.507
100.495
100.436
100.318
100.174
100.049
99.9758
99.9602
99.9616
100.183
100.183
100.178
100.173
100.166
100.164
100.164
100.151
100.155
100.256
100.382
100.435
100.432
100.398
100.305
100.178
100.056
99.9786
99.958
99.9592
100.241
100.233
100.206
100.199
100.205
100.202
100.193
100.181
100.159
100.149
100.219
100.349
100.363
100.331
100.257
100.156
100.057
99.982
99.9568
99.9585
100.304
100.288
100.257
100.229
100.23
100.229
100.213
100.199
100.183
100.152
100.131
100.2
100.272
100.264
100.215
100.133
100.05
99.9834
99.9557
99.9573
100.366
100.343
100.311
100.262
100.26
100.259
100.237
100.214
100.198
100.168
100.136
100.11
100.142
100.193
100.174
100.113
100.037
99.9814
99.9527
99.9542
100.428
100.404
100.368
100.315
100.288
100.282
100.263
100.229
100.211
100.183
100.147
100.118
100.085
100.058
100.044
100.03
100.005
99.9715
99.9489
99.9527
100.524
100.456
100.418
100.369
100.32
100.295
100.268
100.247
100.231
100.206
100.166
100.128
100.094
100.044
99.9638
99.9147
99.9245
99.934
99.9366
99.9515
100.619
100.538
100.478
100.433
100.399
100.359
100.311
100.26
100.234
100.212
100.175
100.133
100.09
100.038
99.9655
99.9019
99.8982
99.9046
99.9173
99.9505
100.609
100.587
100.536
100.475
100.423
100.379
100.35
100.316
100.271
100.219
100.166
100.125
100.087
100.041
99.9718
99.9119
99.9063
99.9126
99.9239
99.9551
100.489
100.546
100.541
100.518
100.469
100.406
100.373
100.336
100.289
100.247
100.198
100.139
100.087
100.028
99.9507
99.9004
99.9013
99.9137
99.9325
99.9658
100.25
100.376
100.446
100.481
100.472
100.443
100.4
100.346
100.284
100.246
100.204
100.148
100.089
100.026
99.9579
99.9182
99.9149
99.9229
99.9446
99.9782
100.041
100.148
100.257
100.335
100.387
100.405
100.393
100.365
100.319
100.259
100.203
100.148
100.094
100.043
99.995
99.9686
99.9674
99.9719
99.9834
99.9962
100.002
100.016
100.068
100.156
100.232
100.282
100.317
100.317
100.303
100.271
100.225
100.175
100.118
100.066
100.027
100.008
100.009
100.011
100.012
100.007
100
100
100.004
100.025
100.078
100.143
100.193
100.227
100.228
100.222
100.204
100.174
100.138
100.099
100.069
100.05
100.04
100.03
100.018
100.005
100
100
100
100.001
100.006
100.027
100.07
100.117
100.147
100.155
100.15
100.137
100.118
100.096
100.074
100.056
100.041
100.027
100.013
100.003
100
100
100
100
100
100.001
100.006
100.021
100.05
100.076
100.092
100.091
100.087
100.076
100.062
100.047
100.031
100.015
100.005
100
100
100
100
100
100
100
100
100.001
100.003
100.01
100.022
100.032
100.036
100.034
100.029
100.02
100.01
100.003
100
100
100
100
100
100
100
100
100
100
100
100
100.001
100.002
100.003
100.004
100.003
100.002
100.001
100
100
100
100
100
100
100
100
100
100
100
100
100
100
100
100
100
100
100
100
100
100
100
100
100
100
100
100
100
100
100
100
100
100
100
100
100
100
100
100
100
100
100
100
100
100
100
100
100
100
100
100
100
100
100
100
100
100
100
100
100
100
100
100.598
100.652
100.609
100.416
100.142
100.018
100.001
100
100
100
100
100
100
100
100
100.672
100.662
100.518
100.218
100.022
100
100
100
100
100
100
100
100
100
100
100.705
100.636
100.373
100.074
100.002
100
100
100
100
100
100
100
100
100
100
100.719
100.517
100.166
100.009
100
100
100
100
100
100
100
100
100
100
100
100.651
100.284
100.024
100
100
100
100
100
100
100
100
100
100
100
100
100.394
100.038
100
100
100
100
100
100
100
100
100
100
100
100
100
100.042
100
100
100
100
100
100
100
100
100
100
100
100
100
100
99.9995
100
100
100
100
100
100
100
100
100
100
100
100
100
100
100
100
100
100
100
100
100
100
100
100
100
100
100
100
100
100
100
100
100
100
100
100
100
100
100
100
100
100
100
100
100
100
100
100
100
100
100
100
100
100
100
100
100
100
100
100
100
100
100
100
100
100
100
100
100
100
100
100
100
100
100
100
100
100
100
100
100
100
100
100
100
100
100
100
100
100
100
100
100
100
100
100
100
100
100
100
100
100
100
100
100
100
100
100
100
100
100
100
100
100
100
100
100
100
100
100
100
100
100
100
100
100
100
100
100
100
100
100
100
100
100
100
100
100
100
100
100
100
100
100
100
100
100
100
100
100
100
100
100
100
100
100
100
100
100
100
100
100
100
100
100
100
100
100
100
100
100
100
100
100
100
100
100
100
100
100
100
100
100
100
100
100
100
100
100
100
100
100
100
100
100
100
100
100
100
100
100
100
100
100
100
100
100
100
100
100
100
100
100
100
100
100
100
100
100
100
100
100
100
100
100
100
100
100
100
100
100
100
100
100
100
100
100
100
100
100
100
100
100
100
100
100
100
100
100
100
100
100
100
100
100
100
100
100
100
100
100
100
100
100
100
100
100
100
100
100
100
100
100
100
100
100
100
100
100
100
100
100
100
100
100
100
100
100
100
100
100
100
100
100
100
100
100
100
100
100
100
100
100
100
100
100
100
100
100
100
100
100
100
100
100
100
100
100
100
100
100
100
100
100
100
100
100
100
100
100
100
100
100
100
100
100
100
100
100
100
100
100
100
100
100
100
100
100
100
100
100
100
100
100
100
100
100
100
100
100
100
100
100
100
100
100
100
100
100
100
100
100
100
100
100
100
100
100
100
100
100
100
100
100
100
100
100
100
100
100
100
100
100
100
100
100
100
100
100
100
100
100
100
100
100
100
100
100
100
100
100
100
100
100
100
100
100
100
100
100
100
100
100
100
100
100
100
100
100
100
100
100
100
100
100
100
100
100
100
100
100
100
100
100
100
100
100
100
100
100
100
100
100
100
100
100
100
100
100
100
100
100
100
100
100
100
100
100
100
100
100
100
100
100
100
100
100
100
100
100
100
100
100
100
100
100
100
100
100
100
100
100
100
100
100
100
100
100
100
100
100
100
100
100
100
100
100
100
100
100
100
100
100
100
100
100
100
100
100
100
100
100
100
100
100
100
100
100
100
100
100
100
100
100
100
100
100
100
100
100
100
100
100
100
100
100
100
100
100
100
100
100
100
100
100
100
100
100
100
100
100
100
100
100
100
100
100
100
100
100
100
100
100
100
100
100
100
100
100
100
100
100
100
100
100
100
100
100
100
100
100
100
100
100
100
100
100
100
100
100
100
100
100
100
100
100
100
100
100
100
100
100
100
100
100
100
100
100
100
100
100
100
100
100
100
100
100
100
100
100
100
100
100
100
100
100
100
100
100
100
100
100
100
100
100
100
100
100
100
100
100
100
100
100
100
100
100
100
100
100
100
100
100
100
100
100
100
100
100
100
100
100
100
100
100
100
100
100
100
100
100
100
100
100
100
100
100
100
100
100
100
100
100
100
100
100
100
100
100
100
100
100
100
100
100
100
100
100
100
100
100
100
100
100
100
100
100
100
100
100
100
100
100
100
100
100
100
100
100
100
100
100
100
100
100
100
100
100
100
100
100
100
100
100
100
100
100
100
100
100
100
100
100
100
100
100
100
100
100
100
100
100
100
100
100
100
100
100
100
100
100
100
100
100
100
100
100
100
100
100
100
100
100
100
100
100
100
100
100
100
100
100
100
100
100
100
100
100
100
100
100
100
100
100
100
100
100
100
100
100
100
100
100
100
100
100
100
100
100
100
100
100
100
100
100
100
100
100
100
100
100
100
100
100
100
100
100
100
100
100
100
100
100
100
100
100
100
100
100
100
100
100
100
100
100
100
100
100
100
100
100
100
100
100
100
100
100
100
100
100
100
100
100
100
99.9995
100
100
100
100
100
100
100
100
100
100
100
100
100
100
100.042
100
100
100
100
100
100
100
100
100
100
100
100
100
100
100.394
100.038
100
100
100
100
100
100
100
100
100
100
100
100
100
100.651
100.284
100.024
100
100
100
100
100
100
100
100
100
100
100
100
100.719
100.517
100.166
100.009
100
100
100
100
100
100
100
100
100
100
100
100.705
100.636
100.373
100.074
100.002
100
100
100
100
100
100
100
100
100
100
100.672
100.663
100.518
100.218
100.022
100
100
100
100
100
100
100
100
100
100
100.598
100.652
100.609
100.416
100.142
100.018
100.001
100
100
100
100
100
100
100
100
100.524
100.619
100.609
100.489
100.25
100.041
100.002
100
100
100
100
100
100
100
100
100.456
100.538
100.587
100.546
100.376
100.148
100.016
100
100
100
100
100
100
100
100
100.418
100.478
100.536
100.541
100.446
100.257
100.068
100.004
100
100
100
100
100
100
100
100.368
100.432
100.475
100.518
100.481
100.334
100.155
100.025
100.001
100
100
100
100
100
100
100.32
100.398
100.423
100.469
100.472
100.387
100.232
100.078
100.006
100
100
100
100
100
100
100.295
100.359
100.378
100.406
100.443
100.405
100.282
100.143
100.027
100.001
100
100
100
100
100
100.268
100.311
100.35
100.373
100.4
100.393
100.317
100.193
100.07
100.006
100
100
100
100
100
100.247
100.26
100.317
100.336
100.346
100.365
100.317
100.227
100.117
100.021
100.001
100
100
100
100
100.23
100.234
100.272
100.289
100.283
100.319
100.303
100.228
100.147
100.05
100.003
100
100
100
100
100.205
100.21
100.219
100.247
100.246
100.259
100.271
100.222
100.155
100.076
100.01
100
100
100
100
100.165
100.173
100.166
100.199
100.204
100.203
100.225
100.204
100.15
100.092
100.022
100.001
100
100
100
100.128
100.133
100.124
100.139
100.148
100.147
100.175
100.174
100.137
100.091
100.032
100.002
100
100
100
100.094
100.09
100.086
100.087
100.089
100.094
100.118
100.138
100.118
100.087
100.036
100.003
100
100
100
100.045
100.038
100.04
100.028
100.026
100.043
100.066
100.099
100.096
100.076
100.034
100.004
100
100
100
99.9657
99.9672
99.9713
99.9493
99.9592
99.9952
100.027
100.069
100.074
100.062
100.029
100.003
100
100
100
99.9174
99.904
99.9123
99.8994
99.919
99.9686
100.008
100.05
100.056
100.047
100.02
100.002
100
100
100
99.9257
99.9003
99.9075
99.9007
99.9152
99.9673
100.008
100.04
100.041
100.031
100.01
100.001
100
100
100
99.9337
99.9063
99.9139
99.9138
99.9228
99.9717
100.011
100.03
100.027
100.015
100.003
100
100
100
100
99.9361
99.9179
99.925
99.9328
99.9442
99.9831
100.012
100.018
100.013
100.005
100
100
100
100
100
99.9512
99.9504
99.9553
99.9658
99.9779
99.996
100.007
100.005
100.003
100
100
100
100
100
100
100.427
100.403
100.368
100.315
100.289
100.282
100.262
100.228
100.211
100.183
100.147
100.119
100.087
100.059
100.045
100.034
100.006
99.9712
99.9488
99.9526
100.366
100.343
100.311
100.263
100.26
100.259
100.237
100.213
100.198
100.168
100.137
100.112
100.145
100.193
100.174
100.114
100.036
99.9794
99.9518
99.9541
100.304
100.288
100.258
100.229
100.231
100.23
100.213
100.199
100.182
100.153
100.131
100.201
100.276
100.265
100.214
100.13
100.047
99.9812
99.955
99.9571
100.241
100.232
100.207
100.199
100.205
100.202
100.192
100.181
100.16
100.151
100.219
100.349
100.361
100.329
100.254
100.152
100.055
99.9817
99.9568
99.9585
100.183
100.183
100.178
100.174
100.165
100.164
100.163
100.15
100.156
100.258
100.383
100.434
100.43
100.396
100.303
100.176
100.057
99.9794
99.9585
99.9596
100.135
100.135
100.132
100.141
100.139
100.126
100.127
100.171
100.291
100.396
100.484
100.506
100.494
100.435
100.318
100.175
100.05
99.9772
99.961
99.9622
100.087
100.085
100.1
100.097
100.106
100.199
100.287
100.37
100.435
100.507
100.582
100.584
100.542
100.442
100.298
100.148
100.035
99.9761
99.9641
99.9649
100.025
100.072
100.178
100.272
100.393
100.5
100.519
100.548
100.589
100.653
100.689
100.662
100.554
100.397
100.231
100.094
100.014
99.9758
99.9662
99.9662
100.563
100.653
100.706
100.728
100.753
100.761
100.751
100.746
100.758
100.787
100.783
100.709
100.526
100.309
100.144
100.044
99.9959
99.9735
99.9647
99.9652
101.068
101.043
101.013
100.986
100.953
100.907
100.863
100.844
100.845
100.847
100.828
100.722
100.495
100.254
100.099
100.026
99.9956
99.9776
99.9676
99.9676
)
;

boundaryField
{
    inlet
    {
        type            fixedValue;
        value           uniform 100;
    }
    outlet
    {
        type            inletOutlet;
        inletValue      uniform 100;
        value           nonuniform List<scalar> 
50
(
99.9516
99.9507
99.9552
99.966
99.9784
99.9963
100.007
100.005
100.002
100
100
100
100
100
100
99.9678
99.9664
99.9658
99.964
99.9616
99.9591
99.9585
99.9573
99.9542
99.9527
99.9527
99.9541
99.9571
99.9585
99.9596
99.9622
99.9649
99.9662
99.9652
99.9676
99.9513
99.9506
99.9555
99.966
99.9781
99.9962
100.007
100.005
100.002
100
100
100
100
100
100
)
;
    }
    airfoil
    {
        type            zeroGradient;
    }
    top
    {
        type            symmetryPlane;
    }
    bottom
    {
        type            symmetryPlane;
    }
    defaultFaces
    {
        type            empty;
    }
}


// ************************************************************************* //
