/*--------------------------------*- C++ -*----------------------------------*\
  =========                 |
  \\      /  F ield         | OpenFOAM: The Open Source CFD Toolbox
   \\    /   O peration     | Website:  https://openfoam.org
    \\  /    A nd           | Version:  7
     \\/     M anipulation  |
\*---------------------------------------------------------------------------*/
FoamFile
{
    version     2.0;
    format      ascii;
    class       volScalarField;
    location    "6.6";
    object      T;
}
// * * * * * * * * * * * * * * * * * * * * * * * * * * * * * * * * * * * * * //

dimensions      [0 0 0 1 0 0 0];

internalField   nonuniform List<scalar> 
3700
(
100.672
100.853
100.955
101.024
101.018
100.992
100.958
100.953
100.992
101.054
101.116
101.17
101.179
101.177
101.168
101.152
101.113
101.023
101.004
101.025
100.323
100.377
100.478
100.579
100.595
100.562
100.471
100.428
100.46
100.505
100.567
100.652
100.725
100.746
100.732
100.67
100.535
100.34
100.317
100.33
100.277
100.218
100.14
100.041
99.9269
99.8647
99.8903
99.9607
99.9993
100.026
100.045
100.037
100.025
100.01
99.996
99.9904
99.9959
100.012
100.032
100.044
100.256
100.202
100.119
100.001
99.871
99.8378
99.8662
99.9234
99.9614
100.014
100.06
100.07
100.085
100.088
100.08
100.064
100.029
100.019
100.036
100.082
100.154
100.113
100.059
99.9165
99.8303
99.8306
99.8603
99.902
99.9318
99.9835
100.035
100.069
100.099
100.12
100.127
100.132
100.117
100.097
100.079
100.096
100.017
99.9957
99.9533
99.8626
99.8517
99.8955
99.9275
99.9158
99.9326
99.9821
100.019
100.05
100.088
100.122
100.142
100.159
100.173
100.179
100.177
100.185
99.9328
99.9166
99.8985
99.8854
99.935
100.017
100.058
100.045
100.053
100.07
100.056
100.069
100.088
100.113
100.135
100.166
100.199
100.224
100.236
100.265
99.8687
99.8903
99.9023
99.9237
100.01
100.102
100.126
100.13
100.16
100.173
100.174
100.176
100.18
100.188
100.187
100.194
100.216
100.256
100.282
100.325
99.819
99.9066
99.9616
99.9911
100.067
100.151
100.142
100.161
100.211
100.234
100.25
100.257
100.276
100.286
100.291
100.294
100.295
100.309
100.331
100.386
99.8019
99.9517
100.024
100.034
100.098
100.166
100.147
100.171
100.225
100.26
100.283
100.299
100.33
100.343
100.359
100.37
100.379
100.391
100.411
100.449
99.8261
99.9923
100.017
100.023
100.116
100.173
100.155
100.207
100.252
100.284
100.31
100.332
100.361
100.382
100.407
100.431
100.45
100.465
100.502
100.492
99.9277
99.9446
99.9514
100.039
100.156
100.208
100.239
100.302
100.342
100.388
100.408
100.423
100.433
100.444
100.46
100.486
100.517
100.54
100.578
100.569
99.9613
99.836
99.928
100.093
100.185
100.23
100.3
100.373
100.425
100.471
100.486
100.503
100.516
100.529
100.548
100.571
100.596
100.618
100.653
100.654
99.9499
99.8228
99.9322
100.109
100.185
100.222
100.341
100.414
100.476
100.529
100.55
100.569
100.585
100.605
100.635
100.665
100.691
100.711
100.724
100.733
99.9253
99.8622
99.9236
100.04
100.168
100.32
100.457
100.524
100.588
100.617
100.633
100.647
100.664
100.689
100.723
100.752
100.774
100.784
100.779
100.774
99.6458
99.826
99.9859
100.148
100.346
100.557
100.627
100.675
100.711
100.729
100.739
100.751
100.769
100.792
100.813
100.824
100.822
100.814
100.788
100.743
99.3918
99.802
100.095
100.432
100.624
100.701
100.736
100.771
100.796
100.811
100.822
100.835
100.851
100.855
100.855
100.844
100.794
100.68
100.517
100.276
99.5527
100.127
100.481
100.672
100.775
100.81
100.834
100.858
100.874
100.882
100.882
100.883
100.881
100.857
100.771
100.622
100.36
100.102
100.006
99.9978
100.128
100.522
100.741
100.842
100.885
100.902
100.916
100.922
100.918
100.909
100.896
100.841
100.724
100.467
100.146
100.01
99.9966
99.9985
99.9992
99.9998
100.697
100.838
100.914
100.95
100.961
100.952
100.951
100.927
100.846
100.767
100.582
100.239
100.032
99.9959
99.9978
99.9989
99.9998
100
100
100
100.999
100.998
100.994
100.99
100.982
100.946
100.874
100.439
99.8548
100
100
100
100
100
100
100
100
100
100
100
100.997
100.995
100.988
100.976
100.965
100.859
100.48
100.01
100
100
100
100
100
100
100
100
100
100
100
100
100.989
100.991
100.985
100.966
100.928
100.656
100.048
99.9992
100
100
100
100
100
100
100
100
100
100
100
100
100.983
100.989
100.986
100.954
100.798
100.265
99.9959
100
100
100
100
100
100
100
100
100
100
100
100
100
100.977
100.987
100.981
100.923
100.553
99.9922
100
100
100
100
100
100
100
100
100
100
100
100
100
100
100.974
100.984
100.976
100.823
100.237
100
100
100
100
100
100
100
100
100
100
100
100
100
100
100
100.975
100.983
100.969
100.711
100.012
100
100
100
100
100
100
100
100
100
100
100
100
100
100
100
100.986
100.985
100.93
100.467
99.9976
100
100
100
100
100
100
100
100
100
100
100
100
100
100
100
101.003
100.97
100.823
100.151
100
100
100
100
100
100
100
100
100
100
100
100
100
100
100
100
101.014
100.941
100.682
99.9964
100
100
100
100
100
100
100
100
100
100
100
100
100
100
100
100
101.022
100.907
100.5
100
100
100
100
100
100
100
100
100
100
100
100
100
100
100
100
100
101.027
100.849
100.316
100
100
100
100
100
100
100
100
100
100
100
100
100
100
100
100
100
101.031
100.791
100.108
100
100
100
100
100
100
100
100
100
100
100
100
100
100
100
100
100
101.031
100.729
100
100
100
100
100
100
100
100
100
100
100
100
100
100
100
100
100
100
101.014
100.68
100
100
100
100
100
100
100
100
100
100
100
100
100
100
100
100
100
100
100.991
100.582
100
100
100
100
100
100
100
100
100
100
100
100
100
100
100
100
100
100
100.948
100.424
100
100
100
100
100
100
100
100
100
100
100
100
100
100
100
100
100
100
100.899
100.212
100
100
100
100
100
100
100
100
100
100
100
100
100
100
100
100
100
100
100.865
100.004
100
100
100
100
100
100
100
100
100
100
100
100
100
100
100
100
100
100
100.815
100
100
100
100
100
100
100
100
100
100
100
100
100
100
100
100
100
100
100
100.814
100
100
100
100
100
100
100
100
100
100
100
100
100
100
100
100
100
100
100
100.867
100.004
100
100
100
100
100
100
100
100
100
100
100
100
100
100
100
100
100
100
100.901
100.216
100
100
100
100
100
100
100
100
100
100
100
100
100
100
100
100
100
100
100.946
100.42
100
100
100
100
100
100
100
100
100
100
100
100
100
100
100
100
100
100
100.99
100.576
100
100
100
100
100
100
100
100
100
100
100
100
100
100
100
100
100
100
101.013
100.683
100
100
100
100
100
100
100
100
100
100
100
100
100
100
100
100
100
100
101.032
100.732
100
100
100
100
100
100
100
100
100
100
100
100
100
100
100
100
100
100
101.032
100.791
100.107
100
100
100
100
100
100
100
100
100
100
100
100
100
100
100
100
100
101.027
100.848
100.316
100
100
100
100
100
100
100
100
100
100
100
100
100
100
100
100
100
101.022
100.906
100.5
100
100
100
100
100
100
100
100
100
100
100
100
100
100
100
100
100
101.014
100.941
100.68
99.9964
100
100
100
100
100
100
100
100
100
100
100
100
100
100
100
100
101.002
100.968
100.82
100.154
100
100
100
100
100
100
100
100
100
100
100
100
100
100
100
100
100.986
100.986
100.929
100.463
99.9974
100
100
100
100
100
100
100
100
100
100
100
100
100
100
100
100.976
100.985
100.971
100.713
100.011
100
100
100
100
100
100
100
100
100
100
100
100
100
100
100
100.975
100.985
100.977
100.825
100.248
100
100
100
100
100
100
100
100
100
100
100
100
100
100
100
100.978
100.987
100.981
100.921
100.55
99.9923
100
100
100
100
100
100
100
100
100
100
100
100
100
100
100.983
100.989
100.985
100.955
100.794
100.256
99.996
100
100
100
100
100
100
100
100
100
100
100
100
100
100.989
100.991
100.985
100.965
100.927
100.658
100.05
99.9991
100
100
100
100
100
100
100
100
100
100
100
100
100.996
100.994
100.986
100.976
100.965
100.863
100.486
100.011
100
100
100
100
100
100
100
100
100
100
100
100
100.999
100.997
100.993
100.991
100.983
100.946
100.873
100.435
99.8572
100
100
100
100
100
100
100
100
100
100
100
100.697
100.838
100.914
100.95
100.962
100.954
100.951
100.927
100.846
100.767
100.582
100.239
100.032
99.9959
99.9978
99.9989
99.9998
100
100
100
100.125
100.523
100.742
100.842
100.885
100.902
100.917
100.922
100.918
100.909
100.896
100.842
100.725
100.468
100.146
100.01
99.9966
99.9985
99.9992
99.9998
99.5121
100.11
100.479
100.672
100.776
100.811
100.834
100.857
100.874
100.882
100.882
100.883
100.881
100.857
100.77
100.622
100.361
100.102
100.006
99.9978
99.411
99.7584
100.111
100.449
100.629
100.702
100.737
100.771
100.795
100.81
100.821
100.836
100.851
100.855
100.855
100.844
100.794
100.681
100.517
100.276
99.6043
99.7429
99.8673
100.128
100.362
100.566
100.63
100.674
100.709
100.728
100.739
100.752
100.769
100.792
100.813
100.824
100.822
100.815
100.789
100.743
99.8742
99.7811
99.8625
100.028
100.164
100.329
100.455
100.523
100.587
100.618
100.635
100.649
100.665
100.689
100.723
100.752
100.774
100.784
100.779
100.774
99.9503
99.8052
99.9279
100.109
100.18
100.224
100.342
100.417
100.48
100.532
100.553
100.571
100.587
100.606
100.634
100.664
100.69
100.711
100.724
100.733
99.9673
99.8226
99.9434
100.094
100.174
100.231
100.302
100.373
100.426
100.473
100.488
100.505
100.517
100.529
100.547
100.57
100.595
100.618
100.653
100.654
99.9646
99.9084
99.9435
100.022
100.136
100.203
100.233
100.297
100.343
100.391
100.409
100.424
100.433
100.443
100.458
100.486
100.517
100.541
100.579
100.57
99.8793
99.9827
99.9795
99.9893
100.086
100.154
100.142
100.199
100.25
100.284
100.307
100.329
100.36
100.382
100.407
100.431
100.451
100.466
100.502
100.492
99.8063
99.9659
100.006
100.008
100.077
100.145
100.136
100.158
100.211
100.253
100.281
100.297
100.329
100.343
100.359
100.37
100.379
100.391
100.411
100.448
99.8088
99.9232
99.9745
99.999
100.065
100.132
100.131
100.155
100.208
100.231
100.249
100.255
100.275
100.284
100.29
100.292
100.294
100.308
100.331
100.386
99.8709
99.9007
99.9241
99.9605
100.025
100.09
100.117
100.134
100.164
100.176
100.176
100.176
100.177
100.181
100.183
100.194
100.219
100.258
100.282
100.326
99.9608
99.9118
99.8823
99.9047
99.9534
100.017
100.053
100.056
100.06
100.079
100.06
100.069
100.089
100.116
100.141
100.17
100.2
100.224
100.236
100.265
100.056
99.9873
99.8924
99.8543
99.8553
99.8988
99.9292
99.9341
99.9536
99.997
100.028
100.055
100.094
100.128
100.146
100.159
100.171
100.177
100.176
100.184
100.1
100.076
100.022
99.8949
99.832
99.8387
99.8719
99.9181
99.9525
99.9987
100.046
100.077
100.105
100.124
100.126
100.127
100.113
100.094
100.076
100.094
100.174
100.181
100.141
100.03
99.8685
99.8503
99.8777
99.935
99.9798
100.03
100.07
100.077
100.087
100.086
100.072
100.053
100.024
100.02
100.04
100.085
100.273
100.244
100.177
100.075
99.9553
99.8801
99.9045
99.9684
100.009
100.032
100.051
100.035
100.017
99.9987
99.985
99.9868
100.001
100.022
100.041
100.049
100.306
100.272
100.287
100.217
100.234
100.364
100.469
100.478
100.436
100.429
100.466
100.481
100.45
100.354
100.34
100.395
100.475
100.55
100.572
100.537
100.599
100.742
100.847
100.866
100.893
100.927
100.944
100.959
100.979
101.012
101.068
101.093
101.086
101.064
101.048
101.07
101.107
101.109
101.104
101.089
101.047
101.025
101.007
100.993
100.961
100.93
100.906
100.899
100.889
100.873
100.863
100.857
100.852
100.85
100.843
100.828
100.816
100.811
100.808
100.802
100.574
100.63
100.694
100.737
100.774
100.79
100.796
100.805
100.808
100.807
100.805
100.805
100.803
100.803
100.801
100.794
100.787
100.783
100.781
100.779
100.023
100.048
100.169
100.285
100.44
100.516
100.575
100.615
100.644
100.668
100.681
100.686
100.691
100.695
100.699
100.705
100.709
100.71
100.711
100.714
100.082
100.087
100.103
100.099
100.128
100.216
100.363
100.439
100.486
100.533
100.567
100.569
100.572
100.577
100.586
100.599
100.608
100.614
100.618
100.628
100.127
100.135
100.129
100.14
100.139
100.13
100.157
100.231
100.35
100.436
100.484
100.498
100.497
100.499
100.507
100.52
100.531
100.535
100.538
100.548
100.181
100.176
100.177
100.181
100.177
100.172
100.166
100.159
100.182
100.279
100.393
100.459
100.463
100.467
100.468
100.478
100.486
100.487
100.488
100.495
100.242
100.222
100.212
100.214
100.217
100.212
100.204
100.192
100.177
100.181
100.243
100.364
100.439
100.448
100.448
100.456
100.459
100.456
100.459
100.465
100.308
100.28
100.247
100.241
100.245
100.243
100.233
100.22
100.206
100.181
100.179
100.217
100.334
100.408
100.432
100.444
100.44
100.437
100.443
100.446
100.371
100.339
100.298
100.268
100.271
100.273
100.264
100.253
100.233
100.206
100.18
100.18
100.204
100.301
100.391
100.422
100.415
100.42
100.431
100.431
100.434
100.405
100.355
100.311
100.295
100.295
100.285
100.27
100.252
100.221
100.193
100.178
100.182
100.195
100.275
100.364
100.385
100.409
100.418
100.413
100.529
100.464
100.416
100.35
100.307
100.306
100.305
100.292
100.276
100.25
100.217
100.2
100.189
100.183
100.178
100.222
100.309
100.365
100.376
100.38
100.617
100.538
100.49
100.441
100.374
100.349
100.328
100.304
100.282
100.261
100.235
100.222
100.208
100.186
100.161
100.155
100.169
100.223
100.279
100.321
100.609
100.586
100.535
100.485
100.428
100.381
100.343
100.306
100.295
100.282
100.26
100.242
100.223
100.198
100.173
100.152
100.141
100.13
100.143
100.221
100.489
100.547
100.54
100.515
100.475
100.421
100.381
100.336
100.315
100.296
100.266
100.238
100.214
100.19
100.17
100.152
100.131
100.111
100.097
100.106
100.25
100.376
100.446
100.483
100.476
100.448
100.409
100.365
100.323
100.291
100.256
100.227
100.211
100.194
100.18
100.163
100.142
100.116
100.091
100.072
100.043
100.145
100.254
100.336
100.389
100.414
100.404
100.381
100.343
100.305
100.273
100.238
100.218
100.198
100.174
100.148
100.123
100.1
100.083
100.063
100.002
100.015
100.065
100.154
100.233
100.29
100.328
100.349
100.339
100.315
100.284
100.248
100.213
100.186
100.157
100.133
100.117
100.1
100.089
100.067
100
100
100.003
100.025
100.078
100.149
100.208
100.249
100.279
100.291
100.282
100.261
100.229
100.198
100.166
100.142
100.127
100.109
100.087
100.055
100
100
100
100.001
100.006
100.031
100.081
100.139
100.187
100.216
100.241
100.244
100.236
100.215
100.187
100.156
100.128
100.103
100.08
100.048
100
100
100
100
100
100.001
100.008
100.032
100.078
100.128
100.17
100.192
100.21
100.209
100.202
100.183
100.156
100.125
100.101
100.069
100
100
100
100
100
100
100
100.001
100.008
100.032
100.073
100.118
100.154
100.174
100.186
100.184
100.178
100.161
100.137
100.098
100
100
100
100
100
100
100
100
100
100.002
100.008
100.029
100.065
100.108
100.14
100.159
100.168
100.167
100.162
100.139
100
100
100
100
100
100
100
100
100
100
100
100.001
100.007
100.024
100.057
100.096
100.128
100.146
100.154
100.151
100
100
100
100
100
100
100
100
100
100
100
100
100
100.001
100.006
100.019
100.048
100.085
100.113
100.137
100
100
100
100
100
100
100
100
100
100
100
100
100
100
100
100.001
100.004
100.016
100.041
100.105
100.597
100.653
100.609
100.415
100.142
100.017
100.001
100
100
100
100
100
100
100
100
100.672
100.663
100.518
100.218
100.022
100
100
100
100
100
100
100
100
100
100
100.705
100.636
100.374
100.074
100.002
100
100
100
100
100
100
100
100
100
100
100.719
100.519
100.167
100.009
100
100
100
100
100
100
100
100
100
100
100
100.652
100.285
100.025
100
100
100
100
100
100
100
100
100
100
100
100
100.394
100.038
100
100
100
100
100
100
100
100
100
100
100
100
100
100.042
100
100
100
100
100
100
100
100
100
100
100
100
100
100
99.9995
100
100
100
100
100
100
100
100
100
100
100
100
100
100
100
100
100
100
100
100
100
100
100
100
100
100
100
100
100
100
100
100
100
100
100
100
100
100
100
100
100
100
100
100
100
100
100
100
100
100
100
100
100
100
100
100
100
100
100
100
100
100
100
100
100
100
100
100
100
100
100
100
100
100
100
100
100
100
100
100
100
100
100
100
100
100
100
100
100
100
100
100
100
100
100
100
100
100
100
100
100
100
100
100
100
100
100
100
100
100
100
100
100
100
100
100
100
100
100
100
100
100
100
100
100
100
100
100
100
100
100
100
100
100
100
100
100
100
100
100
100
100
100
100
100
100
100
100
100
100
100
100
100
100
100
100
100
100
100
100
100
100
100
100
100
100
100
100
100
100
100
100
100
100
100
100
100
100
100
100
100
100
100
100
100
100
100
100
100
100
100
100
100
100
100
100
100
100
100
100
100
100
100
100
100
100
100
100
100
100
100
100
100
100
100
100
100
100
100
100
100
100
100
100
100
100
100
100
100
100
100
100
100
100
100
100
100
100
100
100
100
100
100
100
100
100
100
100
100
100
100
100
100
100
100
100
100
100
100
100
100
100
100
100
100
100
100
100
100
100
100
100
100
100
100
100
100
100
100
100
100
100
100
100
100
100
100
100
100
100
100
100
100
100
100
100
100
100
100
100
100
100
100
100
100
100
100
100
100
100
100
100
100
100
100
100
100
100
100
100
100
100
100
100
100
100
100
100
100
100
100
100
100
100
100
100
100
100
100
100
100
100
100
100
100
100
100
100
100
100
100
100
100
100
100
100
100
100
100
100
100
100
100
100
100
100
100
100
100
100
100
100
100
100
100
100
100
100
100
100
100
100
100
100
100
100
100
100
100
100
100
100
100
100
100
100
100
100
100
100
100
100
100
100
100
100
100
100
100
100
100
100
100
100
100
100
100
100
100
100
100
100
100
100
100
100
100
100
100
100
100
100
100
100
100
100
100
100
100
100
100
100
100
100
100
100
100
100
100
100
100
100
100
100
100
100
100
100
100
100
100
100
100
100
100
100
100
100
100
100
100
100
100
100
100
100
100
100
100
100
100
100
100
100
100
100
100
100
100
100
100
100
100
100
100
100
100
100
100
100
100
100
100
100
100
100
100
100
100
100
100
100
100
100
100
100
100
100
100
100
100
100
100
100
100
100
100
100
100
100
100
100
100
100
100
100
100
100
100
100
100
100
100
100
100
100
100
100
100
100
100
100
100
100
100
100
100
100
100
100
100
100
100
100
100
100
100
100
100
100
100
100
100
100
100
100
100
100
100
100
100
100
100
100
100
100
100
100
100
100
100
100
100
100
100
100
100
100
100
100
100
100
100
100
100
100
100
100
100
100
100
100
100
100
100
100
100
100
100
100
100
100
100
100
100
100
100
100
100
100
100
100
100
100
100
100
100
100
100
100
100
100
100
100
100
100
100
100
100
100
100
100
100
100
100
100
100
100
100
100
100
100
100
100
100
100
100
100
100
100
100
100
100
100
100
100
100
100
100
100
100
100
100
100
100
100
100
100
100
100
100
100
100
100
100
100
100
100
100
100
100
100
100
100
100
100
100
100
100
100
100
100
100
100
100
100
100
100
100
100
100
100
100
100
100
100
100
100
100
100
100
100
100
100
100
100
100
100
100
100
100
100
100
100
100
100
100
100
100
100
100
100
100
100
100
100
100
100
100
100
100
100
100
100
100
100
100
100
100
100
100
100
100
100
100
100
100
100
100
100
100
100
100
100
100
100
100
100
100
100
100
100
100
100
100
100
100
100
100
100
100
100
100
100
100
100
100
100
100
100
100
100
100
100
100
100
100
100
100
100
100
100
100
100
100
100
100
100
100
100
100
100
100
100
100
100
100
100
100
100
100
100
100
100
100
100
100
100
100
100
100
100
100
100
100
100
100
100
100
100
100
100
100
100
100
100
100
100
100
100
100
100
100
100
99.9995
100
100
100
100
100
100
100
100
100
100
100
100
100
100
100.042
100
100
100
100
100
100
100
100
100
100
100
100
100
100
100.394
100.038
100
100
100
100
100
100
100
100
100
100
100
100
100
100.652
100.285
100.025
100
100
100
100
100
100
100
100
100
100
100
100
100.718
100.518
100.167
100.009
100
100
100
100
100
100
100
100
100
100
100
100.704
100.636
100.374
100.074
100.002
100
100
100
100
100
100
100
100
100
100
100.672
100.663
100.518
100.218
100.022
100
100
100
100
100
100
100
100
100
100
100.597
100.653
100.609
100.415
100.142
100.017
100.001
100
100
100
100
100
100
100
100
100.529
100.616
100.608
100.489
100.251
100.043
100.002
100
100
100
100
100
100
100
100
100.465
100.54
100.585
100.546
100.376
100.145
100.015
100
100
100
100
100
100
100
100
100.415
100.491
100.536
100.54
100.446
100.254
100.065
100.003
100
100
100
100
100
100
100
100.347
100.439
100.485
100.516
100.484
100.336
100.154
100.025
100.001
100
100
100
100
100
100
100.308
100.375
100.428
100.473
100.476
100.389
100.233
100.078
100.006
100
100
100
100
100
100
100.307
100.348
100.384
100.422
100.447
100.414
100.29
100.149
100.031
100.001
100
100
100
100
100
100.305
100.325
100.344
100.384
100.409
100.404
100.328
100.208
100.081
100.008
100
100
100
100
100
100.293
100.304
100.301
100.334
100.366
100.381
100.349
100.25
100.14
100.032
100.001
100
100
100
100
100.28
100.284
100.289
100.311
100.322
100.343
100.339
100.279
100.187
100.078
100.008
100
100
100
100
100.253
100.261
100.279
100.295
100.29
100.303
100.315
100.29
100.216
100.128
100.032
100.002
100
100
100
100.219
100.236
100.26
100.268
100.258
100.271
100.284
100.282
100.241
100.169
100.073
100.008
100
100
100
100.202
100.222
100.241
100.239
100.232
100.24
100.247
100.261
100.244
100.192
100.118
100.029
100.001
100
100
100.19
100.208
100.224
100.213
100.212
100.221
100.215
100.228
100.236
100.21
100.154
100.065
100.007
100
100
100.179
100.188
100.199
100.189
100.192
100.198
100.187
100.198
100.215
100.209
100.174
100.108
100.024
100.001
100
100.183
100.167
100.173
100.17
100.178
100.172
100.157
100.167
100.187
100.202
100.186
100.14
100.057
100.006
100
100.227
100.154
100.149
100.154
100.163
100.146
100.133
100.144
100.157
100.183
100.184
100.159
100.096
100.019
100.001
100.309
100.17
100.143
100.135
100.143
100.123
100.114
100.127
100.129
100.156
100.178
100.168
100.128
100.048
100.004
100.359
100.222
100.133
100.116
100.117
100.101
100.098
100.107
100.103
100.126
100.161
100.167
100.146
100.085
100.016
100.374
100.276
100.144
100.099
100.092
100.083
100.088
100.086
100.08
100.101
100.137
100.162
100.154
100.113
100.041
100.379
100.319
100.218
100.106
100.072
100.061
100.066
100.054
100.048
100.069
100.098
100.139
100.151
100.137
100.105
100.434
100.405
100.354
100.311
100.297
100.294
100.282
100.265
100.251
100.219
100.193
100.177
100.18
100.193
100.285
100.371
100.384
100.404
100.417
100.414
100.371
100.34
100.297
100.269
100.273
100.272
100.26
100.248
100.229
100.202
100.172
100.174
100.201
100.303
100.391
100.42
100.413
100.418
100.431
100.433
100.31
100.282
100.246
100.243
100.248
100.243
100.232
100.222
100.208
100.18
100.175
100.211
100.322
100.421
100.43
100.439
100.436
100.436
100.443
100.448
100.243
100.225
100.208
100.212
100.217
100.212
100.204
100.197
100.179
100.18
100.237
100.354
100.433
100.454
100.449
100.453
100.457
100.456
100.46
100.467
100.181
100.176
100.178
100.183
100.181
100.174
100.17
100.163
100.184
100.276
100.385
100.458
100.469
100.47
100.469
100.478
100.488
100.489
100.49
100.497
100.129
100.134
100.131
100.141
100.137
100.13
100.156
100.23
100.349
100.435
100.482
100.499
100.503
100.501
100.508
100.524
100.536
100.539
100.542
100.549
100.084
100.087
100.099
100.097
100.129
100.223
100.366
100.436
100.486
100.535
100.568
100.568
100.571
100.575
100.586
100.603
100.616
100.621
100.623
100.627
100.025
100.07
100.166
100.273
100.437
100.53
100.579
100.61
100.639
100.669
100.684
100.686
100.689
100.692
100.698
100.708
100.716
100.718
100.717
100.715
100.588
100.657
100.7
100.728
100.769
100.8
100.799
100.799
100.804
100.809
100.809
100.807
100.802
100.8
100.799
100.796
100.793
100.79
100.785
100.778
101.05
101.03
101.011
100.991
100.957
100.933
100.907
100.898
100.892
100.88
100.871
100.862
100.853
100.851
100.844
100.831
100.819
100.813
100.809
100.802
)
;

boundaryField
{
    inlet
    {
        type            fixedValue;
        value           uniform 100;
    }
    outlet
    {
        type            inletOutlet;
        inletValue      uniform 100;
        value           nonuniform List<scalar> 
50
(
100.379
100.321
100.221
100.106
100.072
100.063
100.067
100.055
100.048
100.069
100.098
100.139
100.151
100.137
100.105
100.802
100.779
100.714
100.628
100.548
100.495
100.465
100.446
100.431
100.413
100.414
100.433
100.448
100.467
100.497
100.549
100.627
100.715
100.778
100.802
100.379
100.319
100.218
100.106
100.072
100.061
100.066
100.054
100.048
100.069
100.098
100.139
100.151
100.137
100.105
)
;
    }
    airfoil
    {
        type            zeroGradient;
    }
    top
    {
        type            symmetryPlane;
    }
    bottom
    {
        type            symmetryPlane;
    }
    defaultFaces
    {
        type            empty;
    }
}


// ************************************************************************* //
