/*--------------------------------*- C++ -*----------------------------------*\
  =========                 |
  \\      /  F ield         | OpenFOAM: The Open Source CFD Toolbox
   \\    /   O peration     | Website:  https://openfoam.org
    \\  /    A nd           | Version:  7
     \\/     M anipulation  |
\*---------------------------------------------------------------------------*/
FoamFile
{
    version     2.0;
    format      ascii;
    class       volScalarField;
    location    "6.4";
    object      p;
}
// * * * * * * * * * * * * * * * * * * * * * * * * * * * * * * * * * * * * * //

dimensions      [1 -1 -2 0 0 0 0];

internalField   nonuniform List<scalar> 
3700
(
0.102877
0.178331
0.228184
0.286289
0.332365
0.369199
0.376841
0.392936
0.411901
0.427514
0.442454
0.457734
0.468903
0.468941
0.494296
0.504899
0.514617
0.525127
0.51653
0.519851
0.0611025
0.0793084
0.105787
0.136311
0.137228
0.122928
0.101832
0.104436
0.0915286
0.0981191
0.124288
0.158234
0.176636
0.183871
0.191779
0.20238
0.21343
0.209952
0.197239
0.188592
0.0550059
0.0707965
0.0854001
0.0820846
0.0672188
0.0505131
0.0455426
0.0503742
0.0530932
0.0595769
0.0706558
0.0803034
0.0914485
0.10166
0.106985
0.109695
0.111146
0.11176
0.113269
0.121978
0.0592394
0.0761425
0.0796924
0.0711096
0.0576242
0.0513231
0.0514324
0.0565973
0.0554077
0.0619969
0.0737231
0.0856065
0.100573
0.119802
0.13564
0.150243
0.159539
0.16128
0.159063
0.163119
0.0643566
0.0726043
0.0672133
0.0597336
0.0597581
0.0630665
0.0697651
0.0806771
0.0820954
0.0972747
0.0900243
0.0929062
0.102023
0.123617
0.146459
0.169278
0.19006
0.206785
0.218485
0.223606
0.0644816
0.064163
0.060467
0.0565967
0.0590365
0.0658851
0.0784038
0.0942233
0.112536
0.136876
0.134797
0.141891
0.136024
0.140885
0.154723
0.180344
0.211829
0.246281
0.276509
0.316204
0.0637485
0.0594132
0.0552602
0.0534268
0.0552378
0.0629522
0.0761616
0.0955486
0.129685
0.157551
0.179415
0.195764
0.203526
0.21489
0.218055
0.229115
0.246376
0.285319
0.332281
0.413381
0.0744108
0.0544914
0.0459934
0.0499733
0.055186
0.0604952
0.0717423
0.0902265
0.130995
0.168197
0.206018
0.232286
0.267722
0.296969
0.321529
0.34475
0.364974
0.389729
0.427869
0.539726
0.0836041
0.0485965
0.0423004
0.0523139
0.0627725
0.071606
0.0820359
0.0972317
0.129384
0.167142
0.218127
0.258425
0.317109
0.365155
0.415343
0.465186
0.510767
0.552758
0.593371
0.729193
0.0819628
0.0451676
0.0433402
0.0649924
0.0813422
0.100293
0.123935
0.15542
0.18573
0.21249
0.249802
0.300826
0.370946
0.43642
0.507909
0.591502
0.675548
0.753333
0.828855
0.954602
0.0786019
0.0432836
0.0449059
0.0689876
0.0893607
0.115358
0.16681
0.230207
0.283241
0.347795
0.405981
0.466855
0.527344
0.591656
0.655619
0.746656
0.872069
0.990752
1.17579
1.14227
0.0683428
0.0375975
0.0411494
0.0557973
0.0805378
0.112302
0.183002
0.267124
0.35706
0.477083
0.573643
0.671316
0.76636
0.85709
0.939473
1.0423
1.17407
1.31482
1.55444
1.5248
0.050515
0.0281648
0.0283405
0.0443645
0.0722313
0.104456
0.178798
0.277111
0.413472
0.595628
0.752215
0.901335
1.04725
1.17783
1.32907
1.49377
1.65733
1.82648
2.08976
2.08087
0.0344199
0.0209806
0.0212073
0.0409932
0.0707546
0.141906
0.285413
0.439777
0.674211
0.900693
1.10716
1.28412
1.46362
1.63719
1.86566
2.10581
2.34394
2.58271
2.79744
3.00933
0.0245138
0.0182065
0.0192297
0.0424161
0.139444
0.397436
0.652858
0.928108
1.25098
1.54361
1.7729
1.97423
2.18112
2.40352
2.69733
2.98186
3.26062
3.50146
3.64998
3.77797
0.0129438
0.0200091
0.0300799
0.138255
0.430217
0.790621
1.11551
1.52249
1.96592
2.35256
2.62811
2.88415
3.14187
3.4307
3.75963
3.98359
4.1085
4.13923
4.04421
3.91297
0.00662382
0.0281922
0.156788
0.4486
0.929534
1.43491
1.96012
2.51354
3.11791
3.52775
3.78061
4.0055
4.19577
4.3514
4.46325
4.39464
4.18335
3.6561
2.80158
1.89614
0.0335998
0.169066
0.555839
1.19642
2.05303
2.84912
3.54755
4.2428
4.77022
4.85228
4.77924
4.75021
4.69781
4.52311
4.01641
3.06416
2.09233
1.33471
1.01921
0.992881
0.30606
0.861193
1.93097
3.13102
4.20795
4.88361
5.44139
5.87995
5.73636
5.29029
4.8638
4.33098
3.41071
2.33545
1.42943
1.03048
0.989421
0.994929
0.997318
0.999434
2.31497
3.6344
4.88732
5.70921
6.27105
6.41958
6.55694
6.23551
4.5369
3.2003
2.36174
1.55654
1.07835
0.987144
0.992807
0.996286
0.999179
0.999977
1.00002
1.00001
6.95415
6.90125
6.86245
6.90808
7.01013
6.76092
6.00456
2.35905
0.644667
1
1
1
1
1
1
1
1
1
1
1
6.95341
6.88771
6.80453
6.74285
6.70863
5.75918
2.70727
1.03451
1
1
1
1
1
1
1
1
1
1
1
1
6.79509
6.83856
6.83518
6.71782
6.31713
3.37197
1.032
0.999298
1
1
1
1
1
1
1
1
1
1
1
1
6.66518
6.79696
6.82553
6.66334
4.68695
1.37845
0.994344
1.00011
0.999999
1
1
1
1
1
1
1
1
1
1
1
6.5631
6.79172
6.79284
6.02573
2.70078
0.975861
1.00035
0.999994
1
1
1
1
1
1
1
1
1
1
1
1
6.47069
6.82837
6.77755
4.9512
1.49452
1
1
1
1
1
1
1
1
1
1
1
1
1
1
1
6.40707
6.72555
6.74497
3.56122
0.973007
1
1
1
1
1
1
1
1
1
1
1
1
1
1
1
6.46241
6.61955
6.00843
2.0469
0.999999
1
1
1
1
1
1
1
1
1
1
1
1
1
1
1
6.98374
6.64501
4.87005
1.20722
1
1
1
1
1
1
1
1
1
1
1
1
1
1
1
1
7.29267
6.419
3.40968
0.987998
1
1
1
1
1
1
1
1
1
1
1
1
1
1
1
1
7.44031
5.95281
2.3103
1
1
1
1
1
1
1
1
1
1
1
1
1
1
1
1
1
7.49928
5.39956
1.60755
1
1
1
1
1
1
1
1
1
1
1
1
1
1
1
1
1
7.51416
4.76655
1.182
1
1
1
1
1
1
1
1
1
1
1
1
1
1
1
1
1
7.34638
4.03562
1.02173
1
1
1
1
1
1
1
1
1
1
1
1
1
1
1
1
1
7.25282
3.19289
1
1
1
1
1
1
1
1
1
1
1
1
1
1
1
1
1
1
6.94605
2.4713
1
1
1
1
1
1
1
1
1
1
1
1
1
1
1
1
1
1
6.61649
1.90209
1
1
1
1
1
1
1
1
1
1
1
1
1
1
1
1
1
1
6.35943
1.38288
1
1
1
1
1
1
1
1
1
1
1
1
1
1
1
1
1
1
5.70249
1.00631
1
1
1
1
1
1
1
1
1
1
1
1
1
1
1
1
1
1
4.6386
1.00006
1
1
1
1
1
1
1
1
1
1
1
1
1
1
1
1
1
1
4.64056
1.00006
1
1
1
1
1
1
1
1
1
1
1
1
1
1
1
1
1
1
5.68577
1.00622
1
1
1
1
1
1
1
1
1
1
1
1
1
1
1
1
1
1
6.36887
1.38384
1
1
1
1
1
1
1
1
1
1
1
1
1
1
1
1
1
1
6.62604
1.91729
1
1
1
1
1
1
1
1
1
1
1
1
1
1
1
1
1
1
6.91745
2.47661
1
1
1
1
1
1
1
1
1
1
1
1
1
1
1
1
1
1
7.27028
3.17478
1
1
1
1
1
1
1
1
1
1
1
1
1
1
1
1
1
1
7.35438
4.02978
1.02056
1
1
1
1
1
1
1
1
1
1
1
1
1
1
1
1
1
7.50551
4.76062
1.18381
1
1
1
1
1
1
1
1
1
1
1
1
1
1
1
1
1
7.49108
5.41129
1.60869
1
1
1
1
1
1
1
1
1
1
1
1
1
1
1
1
1
7.43323
5.95494
2.32007
1
1
1
1
1
1
1
1
1
1
1
1
1
1
1
1
1
7.28724
6.41129
3.42001
0.988045
1
1
1
1
1
1
1
1
1
1
1
1
1
1
1
1
6.99296
6.66245
4.87528
1.19755
1
1
1
1
1
1
1
1
1
1
1
1
1
1
1
1
6.45608
6.61355
6.00475
2.05591
0.999999
1
1
1
1
1
1
1
1
1
1
1
1
1
1
1
6.3901
6.69872
6.73769
3.55303
0.973082
1
1
1
1
1
1
1
1
1
1
1
1
1
1
1
6.46412
6.83086
6.79027
4.971
1.48499
1
1
1
1
1
1
1
1
1
1
1
1
1
1
1
6.56979
6.81009
6.79612
6.00697
2.72445
0.975532
1.00035
0.999994
1
1
1
1
1
1
1
1
1
1
1
1
6.67599
6.80823
6.82615
6.64611
4.68376
1.37555
0.994598
1.00011
0.999999
1
1
1
1
1
1
1
1
1
1
1
6.79486
6.83818
6.83829
6.72424
6.3519
3.35064
1.02756
0.999434
1
1
1
1
1
1
1
1
1
1
1
1
6.95118
6.88933
6.81805
6.74414
6.69385
5.76035
2.70021
1.03417
1
1
1
1
1
1
1
1
1
1
1
1
6.95664
6.9065
6.87129
6.89845
6.98693
6.75725
6.00967
2.3812
0.639203
1
1
1
1
1
1
1
1
1
1
1
2.3131
3.63666
4.89817
5.70715
6.23382
6.41835
6.561
6.2448
4.54221
3.20107
2.35984
1.55346
1.07697
0.987059
0.992784
0.996274
0.999177
0.999977
1.00002
1.00001
0.311733
0.860064
1.93106
3.16853
4.23562
4.86837
5.41781
5.8752
5.73351
5.28796
4.86199
4.32894
3.40866
2.33484
1.42918
1.03042
0.989449
0.994948
0.997327
0.999436
0.0300791
0.166211
0.552945
1.18127
2.04241
2.87351
3.56724
4.24069
4.75058
4.84716
4.77841
4.75451
4.7047
4.52642
4.0127
3.05859
2.08889
1.33322
1.01891
0.992886
0.00691316
0.0261875
0.139686
0.429621
0.936149
1.44425
1.95928
2.52118
3.12355
3.52485
3.77664
4.0077
4.20303
4.35548
4.46274
4.39315
4.18126
3.65329
2.79939
1.89528
0.0114956
0.0179374
0.0244619
0.151189
0.428143
0.779665
1.13287
1.53174
1.96737
2.34743
2.62466
2.88767
3.14881
3.43695
3.76296
3.98221
4.10651
4.13898
4.04408
3.91383
0.0220542
0.0165315
0.018571
0.0477117
0.144288
0.401645
0.647411
0.920541
1.2449
1.53773
1.76913
1.97394
2.18266
2.40602
2.69953
2.98182
3.25851
3.49982
3.64994
3.77924
0.0283224
0.0198139
0.0222384
0.0402613
0.0711983
0.153552
0.275613
0.435611
0.668496
0.895738
1.10234
1.28117
1.4628
1.63805
1.86652
2.10531
2.34193
2.58028
2.79562
3.01147
0.0411034
0.0268316
0.0300701
0.0436874
0.0722748
0.112587
0.1934
0.283581
0.415495
0.594998
0.752745
0.902101
1.04931
1.17969
1.33103
1.49495
1.65718
1.82513
2.08847
2.0808
0.0579677
0.035495
0.0435505
0.0570707
0.0831481
0.118399
0.192468
0.264444
0.35657
0.476093
0.574523
0.672668
0.768484
0.859219
0.941386
1.0434
1.17302
1.3127
1.55397
1.52559
0.070022
0.0403779
0.0475868
0.0675168
0.0905111
0.118494
0.168357
0.222718
0.27947
0.34529
0.403477
0.465685
0.526714
0.591978
0.656147
0.746638
0.872064
0.99055
1.17661
1.14483
0.0746992
0.0443708
0.044824
0.0609406
0.0817749
0.0999649
0.121397
0.152192
0.183061
0.210449
0.247068
0.299241
0.370425
0.436839
0.508226
0.59178
0.676268
0.754669
0.829216
0.953686
0.0792234
0.0502702
0.0445006
0.0494027
0.059593
0.070911
0.0827971
0.100802
0.127972
0.165372
0.217132
0.257989
0.317279
0.365549
0.415602
0.465471
0.510752
0.552811
0.591661
0.725006
0.078446
0.0599537
0.0507922
0.0494967
0.0541292
0.0662703
0.0755178
0.0947498
0.129059
0.166191
0.2053
0.231882
0.267694
0.296982
0.321325
0.344005
0.363587
0.387283
0.424674
0.537009
0.0703848
0.0664718
0.0614974
0.0553385
0.0579627
0.0706963
0.077992
0.0971246
0.127862
0.154856
0.178035
0.195429
0.203448
0.214386
0.216891
0.227007
0.244142
0.283285
0.331305
0.413946
0.0668443
0.0699996
0.0646358
0.0594431
0.0608851
0.071001
0.0773558
0.0917206
0.111306
0.133891
0.133452
0.141811
0.136004
0.140252
0.153462
0.179427
0.211306
0.246703
0.277669
0.318448
0.0655948
0.0713184
0.0664291
0.0606668
0.0577178
0.0632011
0.064258
0.0722629
0.0815131
0.0965609
0.090566
0.0939544
0.102678
0.123591
0.146412
0.169589
0.190893
0.207858
0.22046
0.225043
0.0642107
0.0745604
0.0734591
0.0666047
0.0550345
0.0507098
0.0489163
0.0510556
0.0556129
0.0637927
0.0753443
0.0868253
0.101427
0.120609
0.136854
0.151064
0.160575
0.162533
0.160076
0.163327
0.0595686
0.0703266
0.0786974
0.0761307
0.0658025
0.0536589
0.0482103
0.0497965
0.0545343
0.0614723
0.0721967
0.0815171
0.0926341
0.103087
0.108273
0.110448
0.111436
0.111699
0.113082
0.121029
0.067792
0.0856997
0.109817
0.12388
0.134607
0.150186
0.154365
0.15849
0.167288
0.168229
0.159485
0.154727
0.164656
0.186631
0.204449
0.196853
0.186895
0.188683
0.201794
0.210603
0.115255
0.198751
0.244435
0.286143
0.32413
0.388215
0.41825
0.431322
0.457633
0.469277
0.459679
0.449544
0.466877
0.477405
0.49788
0.500829
0.503566
0.52142
0.529941
0.533033
0.566918
0.640741
0.693047
0.79709
0.845072
0.872041
0.862813
0.848281
0.849796
0.876404
0.930221
0.963515
0.96032
0.936332
0.928969
0.939253
0.969256
0.977057
0.968881
0.953844
0.278272
0.424471
0.546999
0.665521
0.774454
0.860025
0.862283
0.860792
0.862337
0.883522
0.924951
0.958726
0.959497
0.940823
0.927615
0.936892
0.964323
0.976298
0.972113
0.958554
0.138662
0.167193
0.243882
0.33601
0.506095
0.704194
0.782473
0.855625
0.877938
0.892967
0.912203
0.933164
0.941512
0.941173
0.940027
0.945809
0.955457
0.96199
0.962341
0.961914
0.186518
0.222525
0.225533
0.229324
0.244318
0.323018
0.535223
0.746855
0.827062
0.898935
0.910148
0.909128
0.921985
0.943435
0.954219
0.957407
0.957813
0.954535
0.955748
0.961714
0.231749
0.264255
0.28408
0.281948
0.280022
0.283809
0.310214
0.423577
0.657246
0.831452
0.86787
0.882919
0.909384
0.947522
0.965739
0.96666
0.959643
0.94764
0.949205
0.961558
0.308178
0.329853
0.340768
0.321783
0.308376
0.310132
0.33143
0.339675
0.391281
0.536459
0.725185
0.81973
0.877132
0.940988
0.958325
0.961649
0.956944
0.945802
0.947145
0.962588
0.398382
0.415056
0.405735
0.363532
0.348532
0.352135
0.365709
0.38087
0.38185
0.389484
0.464958
0.659885
0.797581
0.923141
0.946533
0.958002
0.952656
0.937697
0.943721
0.962499
0.51525
0.509813
0.491668
0.443612
0.401622
0.396112
0.408321
0.413538
0.411049
0.405753
0.400349
0.444648
0.625677
0.816791
0.907701
0.949015
0.939901
0.931744
0.950797
0.962993
0.66465
0.623823
0.581783
0.518169
0.455809
0.438198
0.441072
0.443709
0.438745
0.427442
0.421612
0.413195
0.44529
0.610192
0.83135
0.937816
0.909508
0.92434
0.959539
0.962797
0.854191
0.757245
0.699025
0.629315
0.541164
0.489832
0.469159
0.474415
0.470635
0.462361
0.454023
0.439332
0.431694
0.454173
0.603496
0.826169
0.87328
0.933076
0.968626
0.958984
1.27662
0.915291
0.779072
0.746153
0.704993
0.608852
0.549453
0.54321
0.529948
0.512202
0.506377
0.49306
0.473859
0.470157
0.479839
0.565337
0.75102
0.891303
0.935232
0.949641
2.05126
1.51574
1.07103
0.92941
0.911988
0.826949
0.70309
0.640378
0.597636
0.559431
0.553892
0.547241
0.530019
0.515466
0.490554
0.491671
0.529601
0.644366
0.789799
0.909633
2.49953
2.18189
1.72614
1.29427
1.0978
0.977946
0.829505
0.755105
0.698835
0.654386
0.651951
0.639197
0.608146
0.580815
0.55654
0.528197
0.530621
0.538356
0.580069
0.750643
2.3664
2.34786
2.2454
1.9358
1.5316
1.27964
1.07477
0.963636
0.896608
0.818193
0.763808
0.711918
0.653627
0.613031
0.601496
0.586323
0.568014
0.556931
0.549641
0.583242
1.67976
2.15342
2.22382
2.19346
2.04253
1.77616
1.49445
1.23494
1.08435
0.952978
0.861047
0.804421
0.73262
0.690773
0.692339
0.680652
0.652839
0.61855
0.571477
0.573643
1.10888
1.43862
1.84699
2.11276
2.11099
2.07075
1.94071
1.68658
1.43677
1.23153
1.06738
0.993243
0.921764
0.848964
0.79721
0.742305
0.691937
0.657071
0.632153
0.609326
1.00456
1.04385
1.20506
1.54964
1.8631
2.01773
2.01427
1.97063
1.83385
1.63401
1.39232
1.20849
1.0847
0.974718
0.891282
0.825791
0.763637
0.73653
0.731691
0.699059
1.00009
1.00108
1.01058
1.07852
1.26969
1.56954
1.82488
1.93752
1.93014
1.88854
1.77041
1.57547
1.38133
1.21386
1.08574
1.01493
0.943396
0.880859
0.830606
0.759969
1
1.00001
1.00015
1.00249
1.01882
1.10099
1.28958
1.55806
1.76587
1.85864
1.8533
1.8152
1.71675
1.55659
1.3752
1.22381
1.10582
1.00086
0.920761
0.829778
1
1
1
1.00003
1.00032
1.00393
1.02441
1.108
1.28646
1.52204
1.70546
1.78721
1.78342
1.75635
1.6781
1.53731
1.38182
1.23142
1.12451
0.998854
1
1
1
1
1
1.00005
1.00049
1.00462
1.02686
1.10585
1.265
1.47418
1.63913
1.72634
1.72361
1.70335
1.64452
1.52974
1.39678
1.19539
1
1
1
1
1
1
1
1.00006
1.00059
1.00483
1.02508
1.09541
1.23354
1.42488
1.57033
1.66837
1.66691
1.65424
1.61709
1.46487
1
1
1
1
1
1
1
1
1.00001
1.00006
1.00056
1.00442
1.02154
1.08063
1.19807
1.3737
1.50844
1.60064
1.61504
1.5922
1
1
1
1
1
1
1
1
1
1
1.00001
1.00006
1.00049
1.00344
1.01814
1.06237
1.16538
1.31471
1.44391
1.54873
1
1
1
1
1
1
1
1
1
1
1
1
1
1.00005
1.00041
1.00249
1.01421
1.05163
1.13639
1.38755
1.61717
2.46391
2.58291
2.08478
1.31018
1.03695
1.00188
1.00005
1
1
1
1
1
1
1
2.34555
2.81544
2.52668
1.5415
1.04843
1.00082
1
1
1
1
1
1
1
1
1
2.93183
2.86831
1.98012
1.15212
1.00517
1.00005
1
1
1
1
1
1
1
1
1
3.2532
2.55617
1.36494
1.0195
1.00019
1
1
1
1
1
1
1
1
1
1
3.31888
1.68458
1.04731
1.0005
1
1
1
1
1
1
1
1
1
1
1
2.06586
1.07293
1.00049
0.999999
1
1
1
1
1
1
1
1
1
1
1
1.1024
1.00055
0.999997
1
1
1
1
1
1
1
1
1
1
1
1
0.998143
0.999864
0.999996
1
1
1
1
1
1
1
1
1
1
1
1
0.999966
1
1
1
1
1
1
1
1
1
1
1
1
1
1
1
1
1
1
1
1
1
1
1
1
1
1
1
1
1
1
1
1
1
1
1
1
1
1
1
1
1
1
1
1
1
1
1
1
1
1
1
1
1
1
1
1
1
1
1
1
1
1
1
1
1
1
1
1
1
1
1
1
1
1
1
1
1
1
1
1
1
1
1
1
1
1
1
1
1
1
1
1
1
1
1
1
1
1
1
1
1
1
1
1
1
1
1
1
1
1
1
1
1
1
1
1
1
1
1
1
1
1
1
1
1
1
1
1
1
1
1
1
1
1
1
1
1
1
1
1
1
1
1
1
1
1
1
1
1
1
1
1
1
1
1
1
1
1
1
1
1
1
1
1
1
1
1
1
1
1
1
1
1
1
1
1
1
1
1
1
1
1
1
1
1
1
1
1
1
1
1
1
1
1
1
1
1
1
1
1
1
1
1
1
1
1
1
1
1
1
1
1
1
1
1
1
1
1
1
1
1
1
1
1
1
1
1
1
1
1
1
1
1
1
1
1
1
1
1
1
1
1
1
1
1
1
1
1
1
1
1
1
1
1
1
1
1
1
1
1
1
1
1
1
1
1
1
1
1
1
1
1
1
1
1
1
1
1
1
1
1
1
1
1
1
1
1
1
1
1
1
1
1
1
1
1
1
1
1
1
1
1
1
1
1
1
1
1
1
1
1
1
1
1
1
1
1
1
1
1
1
1
1
1
1
1
1
1
1
1
1
1
1
1
1
1
1
1
1
1
1
1
1
1
1
1
1
1
1
1
1
1
1
1
1
1
1
1
1
1
1
1
1
1
1
1
1
1
1
1
1
1
1
1
1
1
1
1
1
1
1
1
1
1
1
1
1
1
1
1
1
1
1
1
1
1
1
1
1
1
1
1
1
1
1
1
1
1
1
1
1
1
1
1
1
1
1
1
1
1
1
1
1
1
1
1
1
1
1
1
1
1
1
1
1
1
1
1
1
1
1
1
1
1
1
1
1
1
1
1
1
1
1
1
1
1
1
1
1
1
1
1
1
1
1
1
1
1
1
1
1
1
1
1
1
1
1
1
1
1
1
1
1
1
1
1
1
1
1
1
1
1
1
1
1
1
1
1
1
1
1
1
1
1
1
1
1
1
1
1
1
1
1
1
1
1
1
1
1
1
1
1
1
1
1
1
1
1
1
1
1
1
1
1
1
1
1
1
1
1
1
1
1
1
1
1
1
1
1
1
1
1
1
1
1
1
1
1
1
1
1
1
1
1
1
1
1
1
1
1
1
1
1
1
1
1
1
1
1
1
1
1
1
1
1
1
1
1
1
1
1
1
1
1
1
1
1
1
1
1
1
1
1
1
1
1
1
1
1
1
1
1
1
1
1
1
1
1
1
1
1
1
1
1
1
1
1
1
1
1
1
1
1
1
1
1
1
1
1
1
1
1
1
1
1
1
1
1
1
1
1
1
1
1
1
1
1
1
1
1
1
1
1
1
1
1
1
1
1
1
1
1
1
1
1
1
1
1
1
1
1
1
1
1
1
1
1
1
1
1
1
1
1
1
1
1
1
1
1
1
1
1
1
1
1
1
1
1
1
1
1
1
1
1
1
1
1
1
1
1
1
1
1
1
1
1
1
1
1
1
1
1
1
1
1
1
1
1
1
1
1
1
1
1
1
1
1
1
1
1
1
1
1
1
1
1
1
1
1
1
1
1
1
1
1
1
1
1
1
1
1
1
1
1
1
1
1
1
1
1
1
1
1
1
1
1
1
1
1
1
1
1
1
1
1
1
1
1
1
1
1
1
1
1
1
1
1
1
1
1
1
1
1
1
1
1
1
1
1
1
1
1
1
1
1
1
1
1
1
1
1
1
1
1
1
1
1
1
1
1
1
1
1
1
0.999966
1
1
1
1
1
1
1
1
1
1
1
1
1
1
0.998146
0.999865
0.999996
1
1
1
1
1
1
1
1
1
1
1
1
1.10232
1.00055
0.999997
1
1
1
1
1
1
1
1
1
1
1
1
2.06613
1.07289
1.00049
0.999999
1
1
1
1
1
1
1
1
1
1
1
3.32
1.68458
1.04723
1.00049
1
1
1
1
1
1
1
1
1
1
1
3.25468
2.55648
1.3648
1.0195
1.00019
1
1
1
1
1
1
1
1
1
1
2.93379
2.86921
1.97953
1.15189
1.00516
1.00005
1
1
1
1
1
1
1
1
1
2.34671
2.81606
2.52679
1.54142
1.04844
1.00082
1
1
1
1
1
1
1
1
1
1.61879
2.46358
2.58272
2.08486
1.31035
1.03698
1.00188
1.00005
1
1
1
1
1
1
1
1.27347
2.05202
2.49887
2.36589
1.67913
1.10875
1.00455
1.00009
1
1
1
1
1
1
1
0.908531
1.51461
2.18479
2.34825
2.15282
1.4389
1.0439
1.00108
1.00001
1
1
1
1
1
1
0.785362
1.06093
1.72201
2.24871
2.22516
1.84719
1.20534
1.01061
1.00015
1
1
1
1
1
1
0.751954
0.939193
1.29941
1.92986
2.19317
2.11182
1.55022
1.07886
1.00251
1.00003
1
1
1
1
1
0.702503
0.909594
1.10196
1.54389
2.04185
2.11026
1.86354
1.27041
1.01892
1.00032
1
1
1
1
1
0.605114
0.819234
0.965504
1.28209
1.78266
2.0708
2.01776
1.57027
1.1011
1.00393
1.00005
1
1
1
1
0.550917
0.719402
0.829854
1.04897
1.48425
1.94001
2.01366
1.82488
1.2899
1.02444
1.00049
1
1
1
1
0.536566
0.649782
0.767886
0.962419
1.22435
1.68074
1.97014
1.9364
1.55776
1.10807
1.00462
1.00006
1
1
1
0.520915
0.597149
0.70069
0.902385
1.09448
1.43316
1.83108
1.92936
1.76525
1.28629
1.02685
1.00059
1.00001
1
1
0.505208
0.555528
0.652252
0.815898
0.963016
1.23671
1.63331
1.88863
1.85893
1.52198
1.10567
1.00482
1.00006
1
1
0.501878
0.551502
0.652537
0.756345
0.857184
1.07661
1.39874
1.77049
1.85358
1.70562
1.26481
1.02503
1.00056
1.00001
1
0.492262
0.549258
0.642947
0.711397
0.795915
0.987204
1.21177
1.57615
1.81658
1.78767
1.4739
1.09529
1.00441
1.00006
1
0.474453
0.530122
0.614943
0.662524
0.728689
0.910714
1.08382
1.38648
1.7167
1.78357
1.63892
1.23336
1.02152
1.00049
1
0.459463
0.516058
0.580447
0.616219
0.70554
0.85179
0.970717
1.21554
1.55687
1.75619
1.72606
1.42464
1.08065
1.00344
1.00005
0.473264
0.490706
0.55229
0.602141
0.704242
0.802389
0.886931
1.0866
1.37653
1.67737
1.72328
1.57011
1.19805
1.01814
1.00041
0.564435
0.489958
0.520714
0.58584
0.686221
0.748213
0.82163
1.0098
1.2232
1.53667
1.70324
1.66833
1.37371
1.06233
1.00249
0.749652
0.525311
0.522116
0.568904
0.650785
0.693371
0.768338
0.939062
1.10368
1.38292
1.64473
1.66687
1.5083
1.16534
1.01421
0.896732
0.63917
0.530328
0.552234
0.615957
0.652865
0.736065
0.88049
1.00075
1.23287
1.52949
1.65411
1.60043
1.31457
1.05161
0.944209
0.787421
0.573778
0.546444
0.571337
0.628506
0.729894
0.832179
0.920759
1.12381
1.39642
1.61687
1.61486
1.44376
1.13635
0.951351
0.911281
0.750162
0.584071
0.573156
0.605859
0.700048
0.760129
0.829718
0.996962
1.19528
1.46483
1.59217
1.5487
1.38764
0.859735
0.757303
0.697291
0.632899
0.545686
0.495228
0.483252
0.480824
0.466879
0.460567
0.453864
0.441003
0.43166
0.453391
0.600441
0.820332
0.878147
0.93909
0.976948
0.96169
0.669736
0.62283
0.578543
0.520777
0.457165
0.443537
0.44738
0.4473
0.439536
0.429188
0.427113
0.416573
0.4497
0.618469
0.803638
0.930412
0.918722
0.93598
0.969256
0.965372
0.517889
0.508197
0.489853
0.443101
0.400338
0.392039
0.405918
0.409852
0.404729
0.406677
0.405867
0.452459
0.639791
0.819075
0.909588
0.9495
0.94618
0.940956
0.960894
0.966014
0.399551
0.414927
0.405304
0.361321
0.351739
0.355338
0.368675
0.384342
0.387725
0.392394
0.464882
0.669058
0.80532
0.910831
0.962702
0.964307
0.954003
0.942787
0.949953
0.964289
0.308638
0.329815
0.335989
0.318177
0.305532
0.308559
0.330845
0.339716
0.387144
0.532568
0.729869
0.820772
0.873738
0.942973
0.96761
0.967783
0.957238
0.940258
0.942666
0.960527
0.232177
0.262743
0.281492
0.280179
0.280461
0.284899
0.310474
0.423774
0.649349
0.831
0.86735
0.873668
0.906401
0.952265
0.970502
0.96914
0.953382
0.936556
0.940614
0.959319
0.186243
0.221875
0.226277
0.228638
0.241572
0.316433
0.528373
0.747402
0.829457
0.897114
0.904065
0.909035
0.922405
0.952112
0.962047
0.959715
0.949036
0.941874
0.944578
0.960297
0.139052
0.160976
0.237642
0.33537
0.500635
0.693624
0.782808
0.856177
0.887664
0.898244
0.913243
0.929965
0.942848
0.950116
0.951271
0.948061
0.948242
0.951727
0.953347
0.96151
0.294175
0.414095
0.541917
0.66494
0.776158
0.85605
0.860501
0.860576
0.86566
0.886775
0.924381
0.955814
0.957905
0.948791
0.937587
0.939327
0.951182
0.966789
0.96432
0.962139
0.568092
0.637517
0.692171
0.797311
0.845635
0.887956
0.874762
0.853081
0.852046
0.878263
0.936405
0.974099
0.971412
0.945136
0.929941
0.939908
0.964782
0.980529
0.973891
0.959576
)
;

boundaryField
{
    inlet
    {
        type            fixedValue;
        value           uniform 1;
    }
    outlet
    {
        type            zeroGradient;
    }
    airfoil
    {
        type            zeroGradient;
    }
    top
    {
        type            symmetryPlane;
    }
    bottom
    {
        type            symmetryPlane;
    }
    defaultFaces
    {
        type            empty;
    }
}


// ************************************************************************* //
