/*--------------------------------*- C++ -*----------------------------------*\
  =========                 |
  \\      /  F ield         | OpenFOAM: The Open Source CFD Toolbox
   \\    /   O peration     | Website:  https://openfoam.org
    \\  /    A nd           | Version:  7
     \\/     M anipulation  |
\*---------------------------------------------------------------------------*/
FoamFile
{
    version     2.0;
    format      ascii;
    class       volScalarField;
    location    "6.4";
    object      rho;
}
// * * * * * * * * * * * * * * * * * * * * * * * * * * * * * * * * * * * * * //

dimensions      [1 -3 0 0 0 0 0];

internalField   nonuniform List<scalar> 
3700
(
0.143316
0.247969
0.317056
0.397448
0.461042
0.511697
0.522027
0.544331
0.570711
0.592399
0.61284
0.633645
0.649122
0.649287
0.684383
0.699047
0.71253
0.727155
0.715486
0.720373
0.0854085
0.110757
0.147568
0.18997
0.191241
0.171302
0.141897
0.145581
0.127788
0.136974
0.173272
0.22026
0.245887
0.256087
0.267105
0.28179
0.297071
0.292273
0.274795
0.26302
0.0769482
0.0989745
0.119369
0.114789
0.094098
0.0707964
0.0638551
0.0706136
0.074424
0.083487
0.0989602
0.11243
0.128004
0.142272
0.149722
0.153526
0.155571
0.156447
0.15856
0.170722
0.0828901
0.106477
0.111456
0.0995053
0.0807088
0.0719278
0.072098
0.07933
0.0776733
0.0868869
0.103272
0.119871
0.140772
0.167629
0.189753
0.21016
0.22316
0.225617
0.222581
0.228272
0.0900504
0.101562
0.0940379
0.0836049
0.0836458
0.0882834
0.0976629
0.112933
0.114954
0.136191
0.126084
0.130103
0.142822
0.172976
0.204877
0.236746
0.265761
0.28912
0.305475
0.312648
0.0902202
0.0897683
0.0846027
0.079191
0.0826038
0.0921805
0.109674
0.131776
0.157378
0.191407
0.188557
0.198502
0.190344
0.197135
0.216457
0.252233
0.296176
0.34424
0.386427
0.441789
0.0891808
0.0831199
0.0773143
0.0747576
0.0772987
0.0880771
0.106536
0.133604
0.181257
0.220185
0.250738
0.273611
0.284492
0.300384
0.304838
0.320314
0.344436
0.398756
0.464221
0.577248
0.103997
0.076234
0.0643914
0.069966
0.0772506
0.0846741
0.100397
0.126203
0.183083
0.235015
0.287804
0.324501
0.373955
0.414785
0.449061
0.481467
0.509705
0.544251
0.597446
0.753259
0.116771
0.0680255
0.0592652
0.0732571
0.0878891
0.100238
0.114813
0.136017
0.180879
0.233568
0.304712
0.36095
0.442781
0.50979
0.579755
0.649224
0.712767
0.771287
0.827871
1.01694
0.114487
0.06327
0.0607405
0.0910059
0.11386
0.140333
0.173365
0.217295
0.259599
0.296897
0.348956
0.420111
0.517854
0.609116
0.708714
0.825125
0.94214
1.05045
1.15553
1.3304
0.109844
0.060658
0.0629469
0.0965871
0.125045
0.161333
0.233129
0.321532
0.395478
0.485412
0.5665
0.6513
0.735605
0.825245
0.914375
1.04113
1.2156
1.38065
1.63782
1.59127
0.0955836
0.0527207
0.0577142
0.0781764
0.112727
0.157049
0.255652
0.37293
0.498217
0.665326
0.799802
0.935788
1.06811
1.19445
1.30911
1.45219
1.6354
1.83102
2.16376
2.12261
0.070715
0.0395298
0.0397903
0.0621973
0.101128
0.146074
0.249709
0.3868
0.576727
0.830251
1.04818
1.25566
1.45865
1.6403
1.85054
2.07939
2.30648
2.54128
2.90667
2.89435
0.0482337
0.0294649
0.0297872
0.0574725
0.0990168
0.19811
0.398047
0.613067
0.939287
1.25439
1.54159
1.78769
2.03723
2.27842
2.59562
2.92889
3.25914
3.59024
3.88814
4.1823
0.0343897
0.0255776
0.0270063
0.0593811
0.194686
0.553763
0.909191
1.29186
1.74058
2.1473
2.46601
2.74571
3.033
3.3416
3.74911
4.14362
4.53003
4.86397
5.07046
5.24852
0.0181955
0.0281052
0.0421609
0.19306
0.599261
1.10042
1.55204
2.11733
2.73311
3.27006
3.65261
4.00777
4.36495
4.76505
5.22097
5.53147
5.70502
5.74808
5.61752
5.43765
0.00933767
0.0395879
0.219038
0.625019
1.29318
1.99521
2.72439
3.49241
4.33104
4.89965
5.25012
5.56146
5.82459
6.04027
6.1956
6.10107
5.81074
5.08406
3.90196
2.64717
0.0472638
0.236358
0.77431
1.66392
2.85262
3.95685
4.92516
5.88905
6.62039
6.73399
6.63254
6.59215
6.51947
6.27844
5.57987
4.26334
2.91882
1.86671
1.42682
1.39007
0.427966
1.19935
2.68379
4.34739
5.83943
6.77552
7.54815
8.15658
7.95788
7.33991
6.74913
6.01291
4.74045
3.25418
1.99821
1.44253
1.38524
1.39293
1.39626
1.39921
3.21861
5.04608
6.78049
7.91797
8.69576
8.90232
9.09286
8.6491
6.29871
4.44673
3.28768
2.17416
1.50925
1.38207
1.38997
1.39482
1.39886
1.39997
1.40003
1.40002
9.63982
9.56679
9.51328
9.57682
9.71885
9.37578
8.33226
3.28736
0.903983
1.40001
1.40001
1.40001
1.40001
1.40001
1.40001
1.40001
1.40001
1.40001
1.40001
1.40001
9.63892
9.5481
9.43339
9.34906
9.30374
7.99406
3.77082
1.44798
1.40001
1.40001
1.40001
1.40001
1.40001
1.40001
1.40001
1.40001
1.40001
1.40001
1.40001
1.40001
9.41981
9.48003
9.47579
9.31498
8.76441
4.69168
1.44437
1.39903
1.40001
1.40001
1.40001
1.40001
1.40001
1.40001
1.40001
1.40001
1.40001
1.40001
1.40001
1.40001
9.24009
9.42242
9.46239
9.24029
6.51081
1.9257
1.39213
1.40016
1.4
1.40001
1.40001
1.40001
1.40001
1.40001
1.40001
1.40001
1.40001
1.40001
1.40001
1.40001
9.09895
9.41512
9.41708
8.35904
3.75973
1.36632
1.40049
1.4
1.40001
1.40001
1.40001
1.40001
1.40001
1.40001
1.40001
1.40001
1.40001
1.40001
1.40001
1.40001
8.97121
9.46579
9.39608
6.87426
2.08642
1.40001
1.40001
1.40001
1.40001
1.40001
1.40001
1.40001
1.40001
1.40001
1.40001
1.40001
1.40001
1.40001
1.40001
1.40001
8.8833
9.32399
9.35189
4.9511
1.36232
1.40001
1.40001
1.40001
1.40001
1.40001
1.40001
1.40001
1.40001
1.40001
1.40001
1.40001
1.40001
1.40001
1.40001
1.40001
8.9599
9.17827
8.33566
2.85233
1.4
1.40001
1.40001
1.40001
1.40001
1.40001
1.40001
1.40001
1.40001
1.40001
1.40001
1.40001
1.40001
1.40001
1.40001
1.40001
9.68033
9.21413
6.76284
1.68763
1.40001
1.40001
1.40001
1.40001
1.40001
1.40001
1.40001
1.40001
1.40001
1.40001
1.40001
1.40001
1.40001
1.40001
1.40001
1.40001
10.1071
8.90275
4.74169
1.38325
1.40001
1.40001
1.40001
1.40001
1.40001
1.40001
1.40001
1.40001
1.40001
1.40001
1.40001
1.40001
1.40001
1.40001
1.40001
1.40001
10.3107
8.2595
3.21817
1.40001
1.40001
1.40001
1.40001
1.40001
1.40001
1.40001
1.40001
1.40001
1.40001
1.40001
1.40001
1.40001
1.40001
1.40001
1.40001
1.40001
10.3918
7.49524
2.24342
1.40001
1.40001
1.40001
1.40001
1.40001
1.40001
1.40001
1.40001
1.40001
1.40001
1.40001
1.40001
1.40001
1.40001
1.40001
1.40001
1.40001
10.4121
6.61998
1.65279
1.40001
1.40001
1.40001
1.40001
1.40001
1.40001
1.40001
1.40001
1.40001
1.40001
1.40001
1.40001
1.40001
1.40001
1.40001
1.40001
1.40001
10.1805
5.60814
1.43023
1.40001
1.40001
1.40001
1.40001
1.40001
1.40001
1.40001
1.40001
1.40001
1.40001
1.40001
1.40001
1.40001
1.40001
1.40001
1.40001
1.40001
10.0527
4.44065
1.40001
1.40001
1.40001
1.40001
1.40001
1.40001
1.40001
1.40001
1.40001
1.40001
1.40001
1.40001
1.40001
1.40001
1.40001
1.40001
1.40001
1.40001
9.62981
3.44066
1.40001
1.40001
1.40001
1.40001
1.40001
1.40001
1.40001
1.40001
1.40001
1.40001
1.40001
1.40001
1.40001
1.40001
1.40001
1.40001
1.40001
1.40001
9.17561
2.65127
1.40001
1.40001
1.40001
1.40001
1.40001
1.40001
1.40001
1.40001
1.40001
1.40001
1.40001
1.40001
1.40001
1.40001
1.40001
1.40001
1.40001
1.40001
8.82224
1.93128
1.40001
1.40001
1.40001
1.40001
1.40001
1.40001
1.40001
1.40001
1.40001
1.40001
1.40001
1.40001
1.40001
1.40001
1.40001
1.40001
1.40001
1.40001
7.9155
1.40876
1.40001
1.40001
1.40001
1.40001
1.40001
1.40001
1.40001
1.40001
1.40001
1.40001
1.40001
1.40001
1.40001
1.40001
1.40001
1.40001
1.40001
1.40001
6.44202
1.40009
1.40001
1.40001
1.40001
1.40001
1.40001
1.40001
1.40001
1.40001
1.40001
1.40001
1.40001
1.40001
1.40001
1.40001
1.40001
1.40001
1.40001
1.40001
6.44474
1.40009
1.40001
1.40001
1.40001
1.40001
1.40001
1.40001
1.40001
1.40001
1.40001
1.40001
1.40001
1.40001
1.40001
1.40001
1.40001
1.40001
1.40001
1.40001
7.89249
1.40864
1.40001
1.40001
1.40001
1.40001
1.40001
1.40001
1.40001
1.40001
1.40001
1.40001
1.40001
1.40001
1.40001
1.40001
1.40001
1.40001
1.40001
1.40001
8.83533
1.93261
1.40001
1.40001
1.40001
1.40001
1.40001
1.40001
1.40001
1.40001
1.40001
1.40001
1.40001
1.40001
1.40001
1.40001
1.40001
1.40001
1.40001
1.40001
9.1886
2.6723
1.40001
1.40001
1.40001
1.40001
1.40001
1.40001
1.40001
1.40001
1.40001
1.40001
1.40001
1.40001
1.40001
1.40001
1.40001
1.40001
1.40001
1.40001
9.59012
3.44802
1.40001
1.40001
1.40001
1.40001
1.40001
1.40001
1.40001
1.40001
1.40001
1.40001
1.40001
1.40001
1.40001
1.40001
1.40001
1.40001
1.40001
1.40001
10.0769
4.41564
1.40001
1.40001
1.40001
1.40001
1.40001
1.40001
1.40001
1.40001
1.40001
1.40001
1.40001
1.40001
1.40001
1.40001
1.40001
1.40001
1.40001
1.40001
10.1918
5.60012
1.42861
1.40001
1.40001
1.40001
1.40001
1.40001
1.40001
1.40001
1.40001
1.40001
1.40001
1.40001
1.40001
1.40001
1.40001
1.40001
1.40001
1.40001
10.4002
6.61178
1.65531
1.40001
1.40001
1.40001
1.40001
1.40001
1.40001
1.40001
1.40001
1.40001
1.40001
1.40001
1.40001
1.40001
1.40001
1.40001
1.40001
1.40001
10.3805
7.51142
2.245
1.40001
1.40001
1.40001
1.40001
1.40001
1.40001
1.40001
1.40001
1.40001
1.40001
1.40001
1.40001
1.40001
1.40001
1.40001
1.40001
1.40001
10.3009
8.26235
3.23169
1.40001
1.40001
1.40001
1.40001
1.40001
1.40001
1.40001
1.40001
1.40001
1.40001
1.40001
1.40001
1.40001
1.40001
1.40001
1.40001
1.40001
10.0995
8.89204
4.75596
1.38332
1.40001
1.40001
1.40001
1.40001
1.40001
1.40001
1.40001
1.40001
1.40001
1.40001
1.40001
1.40001
1.40001
1.40001
1.40001
1.40001
9.69302
9.2382
6.77012
1.67421
1.40001
1.40001
1.40001
1.40001
1.40001
1.40001
1.40001
1.40001
1.40001
1.40001
1.40001
1.40001
1.40001
1.40001
1.40001
1.40001
8.95117
9.17
8.33058
2.86483
1.4
1.40001
1.40001
1.40001
1.40001
1.40001
1.40001
1.40001
1.40001
1.40001
1.40001
1.40001
1.40001
1.40001
1.40001
1.40001
8.85988
9.28703
9.34194
4.9397
1.36242
1.40001
1.40001
1.40001
1.40001
1.40001
1.40001
1.40001
1.40001
1.40001
1.40001
1.40001
1.40001
1.40001
1.40001
1.40001
8.96216
9.46924
9.4137
6.90176
2.07322
1.40001
1.40001
1.40001
1.40001
1.40001
1.40001
1.40001
1.40001
1.40001
1.40001
1.40001
1.40001
1.40001
1.40001
1.40001
9.1082
9.44049
9.4216
8.33314
3.79252
1.36586
1.40049
1.4
1.40001
1.40001
1.40001
1.40001
1.40001
1.40001
1.40001
1.40001
1.40001
1.40001
1.40001
1.40001
9.25503
9.43799
9.46317
9.21631
6.50626
1.92166
1.39249
1.40015
1.4
1.40001
1.40001
1.40001
1.40001
1.40001
1.40001
1.40001
1.40001
1.40001
1.40001
1.40001
9.41945
9.47946
9.48003
9.3238
8.81252
4.66212
1.43819
1.39922
1.40001
1.40001
1.40001
1.40001
1.40001
1.40001
1.40001
1.40001
1.40001
1.40001
1.40001
1.40001
9.6358
9.55031
9.45206
9.35086
9.28341
7.99588
3.76111
1.44751
1.40001
1.40001
1.40001
1.40001
1.40001
1.40001
1.40001
1.40001
1.40001
1.40001
1.40001
1.40001
9.64328
9.57405
9.52553
9.56355
9.68686
9.3708
8.33929
3.31805
0.896351
1.40001
1.40001
1.40001
1.40001
1.40001
1.40001
1.40001
1.40001
1.40001
1.40001
1.40001
3.21603
5.04923
6.79549
7.91517
8.64431
8.9007
9.09847
8.66189
6.30605
4.44783
3.2851
2.1699
1.50734
1.38195
1.38993
1.3948
1.39886
1.39997
1.40003
1.40002
0.435893
1.19781
2.68396
4.39933
5.87766
6.75444
7.51552
8.14996
7.95388
7.33664
6.74664
6.01013
4.73765
3.25333
1.99787
1.44244
1.38528
1.39295
1.39627
1.39922
0.0423168
0.232375
0.770264
1.64288
2.83794
3.99066
4.95239
5.88607
6.59315
6.72689
6.63138
6.59811
6.52903
6.28304
5.57473
4.25562
2.91405
1.86464
1.4264
1.39008
0.00974385
0.0367842
0.195192
0.598587
1.30227
2.00811
2.72324
3.50303
4.33884
4.89562
5.24462
5.56451
5.83466
6.04594
6.1949
6.099
5.80785
5.08017
3.89894
2.64598
0.0161589
0.0252046
0.0343009
0.211108
0.59642
1.08515
1.57608
2.13014
2.7351
3.26293
3.64783
4.01267
4.37459
4.77373
5.22557
5.52955
5.70226
5.74776
5.61736
5.43884
0.0309508
0.0232356
0.0260908
0.0668141
0.201418
0.559574
0.901582
1.28133
1.73213
2.13913
2.46078
2.74533
3.03516
3.34507
3.75214
4.14354
4.52711
4.8617
5.07042
5.25028
0.0397182
0.0278349
0.0312344
0.0564394
0.0995939
0.214297
0.384408
0.607291
0.931356
1.2475
1.53489
1.7836
2.03609
2.27959
2.59681
2.92818
3.25636
3.58689
3.88564
4.18527
0.0575843
0.0376632
0.0422062
0.0612286
0.101161
0.157387
0.270072
0.395804
0.579525
0.829353
1.0489
1.25671
1.4615
1.64285
1.85324
2.08101
2.30628
2.53942
2.90488
2.89426
0.0811385
0.049779
0.0610488
0.0799206
0.116358
0.165539
0.268845
0.369186
0.497512
0.663924
0.801005
0.937651
1.07104
1.19739
1.31176
1.45371
1.63395
1.82809
2.16312
2.1237
0.0979425
0.0565922
0.0666867
0.0945313
0.126654
0.165701
0.235284
0.311083
0.3902
0.481895
0.562986
0.649646
0.734706
0.82568
0.915105
1.0411
1.21559
1.38037
1.63896
1.59482
0.104422
0.0621608
0.0628169
0.085356
0.11447
0.139881
0.169815
0.212775
0.255855
0.294027
0.345122
0.417875
0.517109
0.609689
0.70915
0.82551
0.94314
1.0523
1.15603
1.32913
0.110706
0.070379
0.0623536
0.0692049
0.0834518
0.0992679
0.11587
0.141001
0.178913
0.231095
0.303312
0.360331
0.443009
0.510334
0.580113
0.649619
0.712744
0.771359
0.825487
1.01111
0.109634
0.0838731
0.071115
0.0693201
0.0757888
0.0927548
0.105672
0.132523
0.180399
0.232222
0.286802
0.323937
0.373915
0.414802
0.448776
0.480429
0.507771
0.540842
0.592993
0.749474
0.0984325
0.092984
0.0860453
0.0774506
0.0811124
0.0989002
0.109109
0.13583
0.178735
0.21644
0.248825
0.273152
0.284384
0.29968
0.303214
0.317371
0.341316
0.395915
0.462855
0.578034
0.093519
0.0979231
0.0904397
0.0831893
0.0851964
0.0993324
0.108233
0.128311
0.155685
0.187262
0.186695
0.198396
0.190312
0.196247
0.214691
0.250947
0.295441
0.344821
0.38804
0.44492
0.0917849
0.0997724
0.0929617
0.0849283
0.0808105
0.0884865
0.0899897
0.101198
0.114156
0.135208
0.126841
0.131562
0.143732
0.172937
0.204807
0.237175
0.266917
0.290612
0.30823
0.314659
0.0898438
0.104289
0.102775
0.093232
0.0770984
0.0710752
0.0685796
0.071577
0.0779567
0.0893935
0.105531
0.121568
0.141962
0.168756
0.191444
0.211301
0.224602
0.227364
0.223996
0.228573
0.0833394
0.0983505
0.110049
0.106499
0.0921253
0.0751952
0.0675898
0.0698081
0.0764332
0.0861268
0.101106
0.114124
0.129661
0.144267
0.151519
0.154576
0.155978
0.156368
0.158307
0.169402
0.0947395
0.119673
0.153178
0.172761
0.187655
0.209013
0.214618
0.220303
0.232518
0.233908
0.222042
0.2157
0.229493
0.259875
0.284539
0.274042
0.260399
0.26297
0.281149
0.293454
0.160505
0.276275
0.339527
0.39725
0.449616
0.537824
0.579174
0.59728
0.633628
0.649765
0.636611
0.622734
0.646576
0.660907
0.689224
0.693379
0.697357
0.722215
0.734066
0.7384
0.785516
0.887874
0.960604
1.10504
1.17186
1.20947
1.19694
1.17712
1.17944
1.21638
1.29105
1.33728
1.33299
1.29993
1.28986
1.3042
1.34588
1.35678
1.34554
1.32479
0.387487
0.59038
0.760324
0.924964
1.07607
1.19456
1.19755
1.19546
1.19765
1.22708
1.28456
1.33144
1.33256
1.30673
1.28847
1.30139
1.3395
1.35618
1.3504
1.33161
0.194064
0.233884
0.340754
0.469075
0.705688
0.980899
1.08921
1.19033
1.22111
1.24191
1.26855
1.29759
1.30912
1.30857
1.30689
1.31489
1.32831
1.33737
1.33779
1.33707
0.260914
0.311269
0.315469
0.320785
0.341717
0.45138
0.746702
1.04084
1.15204
1.25175
1.26725
1.26573
1.28348
1.31317
1.32802
1.33237
1.33289
1.32827
1.32984
1.33793
0.324047
0.369439
0.397149
0.394219
0.391572
0.396854
0.433645
0.591505
0.916503
1.15872
1.20937
1.23022
1.26688
1.31977
1.34502
1.34625
1.33645
1.31969
1.32177
1.33878
0.430656
0.46093
0.476196
0.449773
0.431101
0.433549
0.463247
0.474729
0.546594
0.74868
1.01128
1.14277
1.2225
1.31114
1.33522
1.33984
1.33328
1.31774
1.31957
1.34095
0.556405
0.579682
0.566737
0.507965
0.48706
0.49209
0.511017
0.532157
0.533521
0.54417
0.649306
0.920612
1.11214
1.28661
1.31912
1.33506
1.32763
1.30682
1.31518
1.34125
0.719214
0.711675
0.686435
0.619507
0.560994
0.553365
0.570403
0.5777
0.574249
0.566897
0.559411
0.621154
0.873184
1.13902
1.26538
1.32278
1.31012
1.29878
1.32525
1.3422
0.927198
0.87037
0.811859
0.7233
0.636438
0.611981
0.616053
0.619763
0.612873
0.597155
0.589071
0.577404
0.622164
0.8518
1.15944
1.30744
1.26808
1.28869
1.3376
1.34215
1.19079
1.05595
0.974989
0.878015
0.755303
0.683883
0.655195
0.662566
0.65734
0.645848
0.634274
0.613855
0.603273
0.634649
0.842608
1.15244
1.21793
1.30103
1.35046
1.33707
1.77775
1.2758
1.08645
1.0407
0.98344
0.84965
0.767043
0.758442
0.740044
0.715372
0.707295
0.688787
0.662094
0.657044
0.670573
0.789695
1.04815
1.24331
1.30447
1.3245
2.8541
2.11044
1.49256
1.29583
1.27166
1.15338
0.98106
0.893871
0.834459
0.781308
0.773622
0.764397
0.740489
0.720314
0.685642
0.687263
0.740165
0.900082
1.10266
1.26943
3.4782
3.03679
2.40353
1.80352
1.53047
1.36381
1.15727
1.05378
0.975551
0.913702
0.91038
0.892698
0.849536
0.811554
0.777802
0.738341
0.741805
0.75269
0.8109
1.04857
3.29689
3.26913
3.12662
2.69618
2.13431
1.78402
1.49904
1.34444
1.25124
1.14215
1.0665
0.994303
0.913161
0.856659
0.84067
0.819612
0.794171
0.7788
0.768721
0.815661
2.3458
3.00347
3.09952
3.05611
2.84611
2.47556
2.0837
1.72268
1.51316
1.33032
1.20236
1.12354
1.02354
0.965287
0.967575
0.951382
0.912694
0.86497
0.799342
0.802519
1.55177
2.01115
2.57925
2.94796
2.94398
2.88709
2.706
2.35228
2.00459
1.71891
1.49036
1.38714
1.2876
1.18622
1.11418
1.03772
0.967553
0.918984
0.884273
0.85253
1.40636
1.46118
1.68599
2.16614
2.60228
2.81668
2.81072
2.74931
2.55873
2.28038
1.94379
1.68775
1.51532
1.36208
1.24581
1.15454
1.0679
1.03015
1.02346
0.978026
1.40014
1.40151
1.41477
1.50955
1.77619
2.19411
2.54953
2.70578
2.69468
2.63629
2.47161
2.19998
1.92948
1.69609
1.51751
1.4188
1.31908
1.2319
1.16186
1.06337
1.40001
1.40002
1.40021
1.40348
1.42627
1.54092
1.80397
2.17825
2.46762
2.59647
2.58838
2.53511
2.39781
2.17453
1.9217
1.71065
1.54614
1.39977
1.28805
1.16114
1.40001
1.40001
1.40001
1.40004
1.40045
1.40549
1.43408
1.55071
1.79964
2.12813
2.38361
2.49732
2.49155
2.45376
2.34461
2.14831
1.93155
1.72183
1.57273
1.39744
1.40001
1.40001
1.40001
1.40001
1.40001
1.40007
1.40069
1.40645
1.43749
1.5477
1.76972
2.06144
2.29126
2.41268
2.40858
2.38031
2.29825
2.13821
1.95283
1.67192
1.40001
1.40001
1.40001
1.40001
1.40001
1.40001
1.40001
1.40009
1.40084
1.40675
1.43501
1.53315
1.72584
1.99269
2.19541
2.332
2.32976
2.31208
2.26027
2.04798
1.40001
1.40001
1.40001
1.40001
1.40001
1.40001
1.40001
1.40001
1.40001
1.4001
1.40079
1.40617
1.43006
1.51252
1.67635
1.92132
2.10914
2.23765
2.25758
2.22571
1.40001
1.40001
1.40001
1.40001
1.40001
1.40001
1.40001
1.40001
1.40001
1.40001
1.40001
1.40009
1.40069
1.4048
1.42532
1.48704
1.63074
1.83904
2.01921
2.16525
1.40001
1.40001
1.40001
1.40001
1.40001
1.40001
1.40001
1.40001
1.40001
1.40001
1.40001
1.40001
1.40001
1.40007
1.40058
1.40348
1.41984
1.47204
1.5903
1.94054
2.25059
3.42708
3.59418
2.90662
1.83165
1.45148
1.40262
1.40007
1.40001
1.40001
1.40001
1.40001
1.40001
1.40001
1.40001
3.26186
3.91566
3.51913
2.15342
1.46748
1.40114
1.40001
1.4
1.40001
1.40001
1.40001
1.40001
1.40001
1.40001
1.40001
4.07588
3.99031
2.76187
1.61179
1.40721
1.40007
1.40001
1.40001
1.40001
1.40001
1.40001
1.40001
1.40001
1.40001
1.40001
4.52197
3.5602
1.90772
1.42717
1.40028
1.40001
1.40001
1.40001
1.40001
1.40001
1.40001
1.40001
1.40001
1.40001
1.40001
4.61639
2.35172
1.46588
1.4007
1.40001
1.40001
1.40001
1.40001
1.40001
1.40001
1.40001
1.40001
1.40001
1.40001
1.40001
2.88089
1.50154
1.40068
1.4
1.4
1.40001
1.40001
1.40001
1.40001
1.40001
1.40001
1.40001
1.40001
1.40001
1.40001
1.5427
1.40077
1.4
1.4
1.40001
1.40001
1.40001
1.40001
1.40001
1.40001
1.40001
1.40001
1.40001
1.40001
1.40001
1.39741
1.39982
1.4
1.40001
1.40001
1.40001
1.40001
1.40001
1.40001
1.40001
1.40001
1.40001
1.40001
1.40001
1.40001
1.39996
1.40001
1.40001
1.40001
1.40001
1.40001
1.40001
1.40001
1.40001
1.40001
1.40001
1.40001
1.40001
1.40001
1.40001
1.40001
1.40001
1.40001
1.40001
1.40001
1.40001
1.40001
1.40001
1.40001
1.40001
1.40001
1.40001
1.40001
1.40001
1.40001
1.40001
1.40001
1.40001
1.40001
1.40001
1.40001
1.40001
1.40001
1.40001
1.40001
1.40001
1.40001
1.40001
1.40001
1.40001
1.40001
1.40001
1.40001
1.40001
1.40001
1.40001
1.40001
1.40001
1.40001
1.40001
1.40001
1.40001
1.40001
1.40001
1.40001
1.40001
1.40001
1.40001
1.40001
1.40001
1.40001
1.40001
1.40001
1.40001
1.40001
1.40001
1.40001
1.40001
1.40001
1.40001
1.40001
1.40001
1.40001
1.40001
1.40001
1.40001
1.40001
1.40001
1.40001
1.40001
1.40001
1.40001
1.40001
1.40001
1.40001
1.40001
1.40001
1.40001
1.40001
1.40001
1.40001
1.40001
1.40001
1.40001
1.40001
1.40001
1.40001
1.40001
1.40001
1.40001
1.40001
1.40001
1.40001
1.40001
1.40001
1.40001
1.40001
1.40001
1.40001
1.40001
1.40001
1.40001
1.40001
1.40001
1.40001
1.40001
1.40001
1.40001
1.40001
1.40001
1.40001
1.40001
1.40001
1.40001
1.40001
1.40001
1.40001
1.40001
1.40001
1.40001
1.40001
1.40001
1.40001
1.40001
1.40001
1.40001
1.40001
1.40001
1.40001
1.40001
1.40001
1.40001
1.40001
1.40001
1.40001
1.40001
1.40001
1.40001
1.40001
1.40001
1.40001
1.40001
1.40001
1.40001
1.40001
1.40001
1.40001
1.40001
1.40001
1.40001
1.40001
1.40001
1.40001
1.40001
1.40001
1.40001
1.40001
1.40001
1.40001
1.40001
1.40001
1.40001
1.40001
1.40001
1.40001
1.40001
1.40001
1.40001
1.40001
1.40001
1.40001
1.40001
1.40001
1.40001
1.40001
1.40001
1.40001
1.40001
1.40001
1.40001
1.40001
1.40001
1.40001
1.40001
1.40001
1.40001
1.40001
1.40001
1.40001
1.40001
1.40001
1.40001
1.40001
1.40001
1.40001
1.40001
1.40001
1.40001
1.40001
1.40001
1.40001
1.40001
1.40001
1.40001
1.40001
1.40001
1.40001
1.40001
1.40001
1.40001
1.40001
1.40001
1.40001
1.40001
1.40001
1.40001
1.40001
1.40001
1.40001
1.40001
1.40001
1.40001
1.40001
1.40001
1.40001
1.40001
1.40001
1.40001
1.40001
1.40001
1.40001
1.40001
1.40001
1.40001
1.40001
1.40001
1.40001
1.40001
1.40001
1.40001
1.40001
1.40001
1.40001
1.40001
1.40001
1.40001
1.40001
1.40001
1.40001
1.40001
1.40001
1.40001
1.40001
1.40001
1.40001
1.40001
1.40001
1.40001
1.40001
1.40001
1.40001
1.40001
1.40001
1.40001
1.40001
1.40001
1.40001
1.40001
1.40001
1.40001
1.40001
1.40001
1.40001
1.40001
1.40001
1.40001
1.40001
1.40001
1.40001
1.40001
1.40001
1.40001
1.40001
1.40001
1.40001
1.40001
1.40001
1.40001
1.40001
1.40001
1.40001
1.40001
1.40001
1.40001
1.40001
1.40001
1.40001
1.40001
1.40001
1.40001
1.40001
1.40001
1.40001
1.40001
1.40001
1.40001
1.40001
1.40001
1.40001
1.40001
1.40001
1.40001
1.40001
1.40001
1.40001
1.40001
1.40001
1.40001
1.40001
1.40001
1.40001
1.40001
1.40001
1.40001
1.40001
1.40001
1.40001
1.40001
1.40001
1.40001
1.40001
1.40001
1.40001
1.40001
1.40001
1.40001
1.40001
1.40001
1.40001
1.40001
1.40001
1.40001
1.40001
1.40001
1.40001
1.40001
1.40001
1.40001
1.40001
1.40001
1.40001
1.40001
1.40001
1.40001
1.40001
1.40001
1.40001
1.40001
1.40001
1.40001
1.40001
1.40001
1.40001
1.40001
1.40001
1.40001
1.40001
1.40001
1.40001
1.40001
1.40001
1.40001
1.40001
1.40001
1.40001
1.40001
1.40001
1.40001
1.40001
1.40001
1.40001
1.40001
1.40001
1.40001
1.40001
1.40001
1.40001
1.40001
1.40001
1.40001
1.40001
1.40001
1.40001
1.40001
1.40001
1.40001
1.40001
1.40001
1.40001
1.40001
1.40001
1.40001
1.40001
1.40001
1.40001
1.40001
1.40001
1.40001
1.40001
1.40001
1.40001
1.40001
1.40001
1.40001
1.40001
1.40001
1.40001
1.40001
1.40001
1.40001
1.40001
1.40001
1.40001
1.40001
1.40001
1.40001
1.40001
1.40001
1.40001
1.40001
1.40001
1.40001
1.40001
1.40001
1.40001
1.40001
1.40001
1.40001
1.40001
1.40001
1.40001
1.40001
1.40001
1.40001
1.40001
1.40001
1.40001
1.40001
1.40001
1.40001
1.40001
1.40001
1.40001
1.40001
1.40001
1.40001
1.40001
1.40001
1.40001
1.40001
1.40001
1.40001
1.40001
1.40001
1.40001
1.40001
1.40001
1.40001
1.40001
1.40001
1.40001
1.40001
1.40001
1.40001
1.40001
1.40001
1.40001
1.40001
1.40001
1.40001
1.40001
1.40001
1.40001
1.40001
1.40001
1.40001
1.40001
1.40001
1.40001
1.40001
1.40001
1.40001
1.40001
1.40001
1.40001
1.40001
1.40001
1.40001
1.40001
1.40001
1.40001
1.40001
1.40001
1.40001
1.40001
1.40001
1.40001
1.40001
1.40001
1.40001
1.40001
1.40001
1.40001
1.40001
1.40001
1.40001
1.40001
1.40001
1.40001
1.40001
1.40001
1.40001
1.40001
1.40001
1.40001
1.40001
1.40001
1.40001
1.40001
1.40001
1.40001
1.40001
1.40001
1.40001
1.40001
1.40001
1.40001
1.40001
1.40001
1.40001
1.40001
1.40001
1.40001
1.40001
1.40001
1.40001
1.40001
1.40001
1.40001
1.40001
1.40001
1.40001
1.40001
1.40001
1.40001
1.40001
1.40001
1.40001
1.40001
1.40001
1.40001
1.40001
1.40001
1.40001
1.40001
1.40001
1.40001
1.40001
1.40001
1.40001
1.40001
1.40001
1.40001
1.40001
1.40001
1.40001
1.40001
1.40001
1.40001
1.40001
1.40001
1.40001
1.40001
1.40001
1.40001
1.40001
1.40001
1.40001
1.40001
1.40001
1.40001
1.40001
1.40001
1.40001
1.40001
1.40001
1.40001
1.40001
1.40001
1.40001
1.40001
1.40001
1.40001
1.40001
1.40001
1.40001
1.40001
1.40001
1.40001
1.40001
1.40001
1.40001
1.40001
1.40001
1.40001
1.40001
1.40001
1.40001
1.40001
1.40001
1.40001
1.40001
1.40001
1.40001
1.40001
1.40001
1.40001
1.40001
1.40001
1.40001
1.40001
1.40001
1.40001
1.40001
1.40001
1.40001
1.40001
1.40001
1.40001
1.40001
1.40001
1.40001
1.40001
1.40001
1.40001
1.40001
1.40001
1.40001
1.40001
1.40001
1.40001
1.40001
1.40001
1.40001
1.40001
1.40001
1.40001
1.40001
1.40001
1.40001
1.40001
1.40001
1.40001
1.40001
1.40001
1.40001
1.40001
1.40001
1.40001
1.40001
1.40001
1.40001
1.40001
1.40001
1.40001
1.40001
1.40001
1.40001
1.40001
1.40001
1.40001
1.40001
1.40001
1.40001
1.40001
1.40001
1.40001
1.40001
1.40001
1.40001
1.40001
1.40001
1.40001
1.40001
1.40001
1.40001
1.40001
1.40001
1.40001
1.40001
1.40001
1.40001
1.40001
1.40001
1.40001
1.40001
1.40001
1.40001
1.40001
1.40001
1.40001
1.40001
1.40001
1.40001
1.40001
1.40001
1.40001
1.40001
1.40001
1.40001
1.40001
1.40001
1.40001
1.40001
1.40001
1.40001
1.40001
1.40001
1.40001
1.40001
1.40001
1.40001
1.40001
1.40001
1.40001
1.40001
1.40001
1.40001
1.40001
1.40001
1.40001
1.40001
1.40001
1.40001
1.40001
1.40001
1.40001
1.40001
1.40001
1.40001
1.40001
1.40001
1.40001
1.40001
1.40001
1.40001
1.40001
1.40001
1.40001
1.40001
1.40001
1.40001
1.40001
1.40001
1.40001
1.40001
1.40001
1.40001
1.40001
1.40001
1.40001
1.40001
1.40001
1.40001
1.40001
1.40001
1.40001
1.40001
1.40001
1.40001
1.40001
1.40001
1.40001
1.40001
1.40001
1.40001
1.40001
1.40001
1.40001
1.40001
1.40001
1.40001
1.40001
1.40001
1.40001
1.40001
1.40001
1.40001
1.40001
1.40001
1.40001
1.40001
1.40001
1.40001
1.40001
1.40001
1.40001
1.40001
1.40001
1.40001
1.40001
1.40001
1.40001
1.40001
1.40001
1.40001
1.40001
1.40001
1.40001
1.40001
1.40001
1.40001
1.40001
1.40001
1.40001
1.40001
1.40001
1.40001
1.40001
1.40001
1.39996
1.40001
1.40001
1.40001
1.40001
1.40001
1.40001
1.40001
1.40001
1.40001
1.40001
1.40001
1.40001
1.40001
1.40001
1.39742
1.39982
1.4
1.40001
1.40001
1.40001
1.40001
1.40001
1.40001
1.40001
1.40001
1.40001
1.40001
1.40001
1.40001
1.54259
1.40077
1.4
1.4
1.40001
1.40001
1.40001
1.40001
1.40001
1.40001
1.40001
1.40001
1.40001
1.40001
1.40001
2.88127
1.50149
1.40068
1.4
1.4
1.40001
1.40001
1.40001
1.40001
1.40001
1.40001
1.40001
1.40001
1.40001
1.40001
4.61795
2.35173
1.46577
1.40069
1.40001
1.40001
1.40001
1.40001
1.40001
1.40001
1.40001
1.40001
1.40001
1.40001
1.40001
4.52401
3.56064
1.90753
1.42717
1.40028
1.40001
1.40001
1.40001
1.40001
1.40001
1.40001
1.40001
1.40001
1.40001
1.40001
4.0786
3.99157
2.76106
1.61148
1.4072
1.40007
1.40001
1.40001
1.40001
1.40001
1.40001
1.40001
1.40001
1.40001
1.40001
3.26347
3.91651
3.51929
2.15331
1.4675
1.40115
1.40001
1.4
1.40001
1.40001
1.40001
1.40001
1.40001
1.40001
1.40001
2.25283
3.42662
3.59392
2.90673
1.83189
1.45152
1.40262
1.40007
1.40001
1.40001
1.40001
1.40001
1.40001
1.40001
1.40001
1.77337
2.85515
3.47729
3.29618
2.34492
1.55158
1.40635
1.40014
1.40001
1.40001
1.40001
1.40001
1.40001
1.40001
1.40001
1.26641
2.10886
3.04081
3.26967
3.00264
2.01154
1.46124
1.40151
1.40002
1.40001
1.40001
1.40001
1.40001
1.40001
1.40001
1.0952
1.47852
2.3978
3.13121
3.10137
2.57954
1.68638
1.41482
1.40022
1.40001
1.40001
1.40001
1.40001
1.40001
1.40001
1.04878
1.30943
1.81067
2.68792
3.05572
2.94666
2.16694
1.51003
1.4035
1.40004
1.40001
1.40001
1.40001
1.40001
1.40001
0.979977
1.26833
1.53624
2.15139
2.84517
2.94296
2.60288
1.77718
1.42641
1.40046
1.40001
1.40001
1.40001
1.40001
1.40001
0.844444
1.14265
1.3465
1.78741
2.4846
2.88716
2.81672
2.19512
1.54108
1.40549
1.40007
1.40001
1.40001
1.40001
1.40001
0.769086
1.00377
1.15777
1.46314
2.0695
2.70503
2.80986
2.54952
1.80442
1.43411
1.40069
1.40001
1.40001
1.40001
1.40001
0.749196
0.906965
1.07158
1.34276
1.70795
2.34416
2.74864
2.70422
2.17785
1.5508
1.40646
1.40009
1.40001
1.40001
1.40001
0.727469
0.833774
0.978121
1.25928
1.52727
1.99958
2.55488
2.6936
2.46676
1.7994
1.43747
1.40083
1.40001
1.40001
1.40001
0.705636
0.775865
0.910724
1.13895
1.34429
1.72614
2.2794
2.63641
2.59688
2.12804
1.54746
1.40673
1.4001
1.40001
1.40001
0.701036
0.770296
0.911201
1.0561
1.19696
1.5032
1.95274
2.47171
2.58878
2.38384
1.76945
1.43493
1.40079
1.40001
1.40001
0.68768
0.767213
0.897928
0.993586
1.11169
1.37871
1.69231
2.20092
2.53703
2.49796
2.06105
1.53297
1.40617
1.40009
1.40001
0.662918
0.740626
0.859008
0.925575
1.01807
1.27221
1.51409
1.93666
2.39775
2.49177
2.29097
1.72558
1.43003
1.40069
1.40001
0.642122
0.721125
0.811034
0.861107
0.985887
1.19017
1.3565
1.69843
2.17493
2.45354
2.4123
1.99237
1.51255
1.40481
1.40007
0.661396
0.685842
0.771865
0.841563
0.984166
1.12141
1.23974
1.51869
1.92356
2.3436
2.40812
2.19511
1.67632
1.42532
1.40058
0.788443
0.684889
0.727903
0.818924
0.959138
1.04596
1.14874
1.41164
1.7098
2.14743
2.38015
2.33195
1.92134
1.48699
1.40348
1.04627
0.734202
0.729944
0.795402
0.909825
0.969551
1.07447
1.31304
1.54315
1.93308
2.29856
2.32971
2.10894
1.63069
1.41983
1.25087
0.892863
0.741496
0.772247
0.861352
0.913111
1.0295
1.23139
1.39961
1.72385
2.13785
2.31191
2.23736
1.83885
1.47202
1.31696
1.09936
0.802141
0.764265
0.799147
0.879183
1.02095
1.16405
1.28805
1.57176
1.95232
2.25997
2.25734
2.019
1.59025
1.32687
1.27173
1.04792
0.816822
0.801844
0.84769
0.979404
1.06359
1.16105
1.3948
1.67177
2.04793
2.22567
2.16522
1.94066
1.19849
1.05603
0.972578
0.883
0.761597
0.691392
0.674817
0.671497
0.652124
0.643364
0.634064
0.616185
0.603222
0.633567
0.838377
1.14433
1.2247
1.30938
1.36203
1.34083
0.934271
0.868988
0.80735
0.726925
0.638319
0.61941
0.624835
0.624766
0.613986
0.5996
0.596745
0.582112
0.628301
0.863326
1.12095
1.29715
1.28089
1.30487
1.35113
1.34573
0.722891
0.709428
0.683907
0.618789
0.559199
0.547686
0.567053
0.572568
0.565449
0.568189
0.567104
0.63203
0.892818
1.14221
1.26801
1.32345
1.31885
1.3116
1.3393
1.34641
0.558038
0.579503
0.566137
0.50488
0.491525
0.49655
0.515149
0.536994
0.541727
0.548242
0.649206
0.933351
1.1229
1.26953
1.34157
1.3438
1.32949
1.3139
1.32386
1.34376
0.431304
0.460882
0.46953