/*--------------------------------*- C++ -*----------------------------------*\
  =========                 |
  \\      /  F ield         | OpenFOAM: The Open Source CFD Toolbox
   \\    /   O peration     | Website:  https://openfoam.org
    \\  /    A nd           | Version:  7
     \\/     M anipulation  |
\*---------------------------------------------------------------------------*/
FoamFile
{
    version     2.0;
    format      ascii;
    class       volScalarField;
    location    "6.4";
    object      T;
}
// * * * * * * * * * * * * * * * * * * * * * * * * * * * * * * * * * * * * * //

dimensions      [0 0 0 1 0 0 0];

internalField   nonuniform List<scalar> 
3700
(
100.496
100.684
100.758
100.845
100.926
101.013
101.064
101.062
101.043
101.034
101.076
101.134
101.132
101.114
101.116
101.118
101.114
101.104
101.07
101.03
100.158
100.248
100.362
100.456
100.459
100.465
100.47
100.433
100.276
100.287
100.423
100.575
100.571
100.521
100.519
100.547
100.583
100.568
100.488
100.384
100.079
100.143
100.16
100.113
100.009
99.8902
99.8507
99.8732
99.8749
99.9053
99.9579
99.9953
100.019
100.036
100.039
100.031
100.022
100.012
100.011
100.028
100.055
100.115
100.102
100.049
99.957
99.8955
99.8718
99.8822
99.8685
99.8954
99.9425
99.9821
100.022
100.056
100.076
100.086
100.088
100.078
100.049
100.041
100.055
100.083
100.065
100.027
100.019
100.011
100.009
100.013
99.9821
99.9957
99.9611
99.9742
100.007
100.051
100.082
100.103
100.122
100.131
100.132
100.128
100.06
100.067
100.061
100.056
100.058
100.064
100.084
100.104
100.11
100.115
100.084
100.073
100.047
100.053
100.072
100.099
100.13
100.161
100.178
100.203
100.076
100.071
100.065
100.054
100.045
100.064
100.085
100.123
100.167
100.176
100.177
100.168
100.156
100.154
100.144
100.14
100.142
100.173
100.21
100.258
100.172
100.071
99.9993
99.9955
100.013
100.023
100.043
100.091
100.17
100.196
100.216
100.216
100.229
100.235
100.241
100.246
100.247
100.252
100.263
100.313
100.236
100.014
99.925
99.9763
99.9917
100.01
100.032
100.079
100.143
100.184
100.219
100.234
100.265
100.28
100.298
100.314
100.324
100.334
100.344
100.387
100.228
99.9445
99.8946
99.9821
100.017
100.055
100.084
100.135
100.163
100.199
100.22
100.249
100.284
100.308
100.333
100.361
100.385
100.402
100.422
100.454
100.181
99.8998
99.8756
99.9958
100.049
100.104
100.174
100.236
100.268
100.31
100.331
100.353
100.364
100.373
100.382
100.403
100.436
100.464
100.507
100.497
100.101
99.8407
99.8183
99.9234
100.023
100.111
100.216
100.28
100.335
100.39
100.413
100.434
100.449
100.459
100.47
100.485
100.507
100.532
100.576
100.571
100.009
99.7499
99.715
99.8605
99.9963
100.113
100.244
100.299
100.37
100.437
100.47
100.495
100.515
100.529
100.55
100.572
100.598
100.622
100.654
100.652
99.9053
99.6878
99.6747
99.8575
100.04
100.282
100.385
100.428
100.491
100.525
100.547
100.564
100.581
100.6
100.628
100.658
100.687
100.712
100.727
100.736
99.7957
99.6542
99.6868
100.003
100.275
100.478
100.529
100.58
100.62
100.641
100.651
100.663
100.678
100.699
100.725
100.748
100.769
100.783
100.78
100.775
99.5929
99.6714
99.884
100.258
100.508
100.586
100.624
100.669
100.702
100.72
100.733
100.75
100.772
100.796
100.815
100.824
100.822
100.815
100.79
100.745
99.3115
99.7004
100.213
100.484
100.632
100.686
100.727
100.76
100.786
100.8
100.814
100.832
100.85
100.856
100.855
100.843
100.791
100.679
100.519
100.281
99.5262
100.142
100.499
100.666
100.758
100.807
100.841
100.864
100.875
100.88
100.881
100.883
100.882
100.859
100.773
100.622
100.358
100.101
100.006
99.9978
100.121
100.527
100.729
100.829
100.886
100.909
100.925
100.924
100.918
100.906
100.892
100.84
100.729
100.475
100.15
100.011
99.9967
99.9985
99.9992
99.9998
100.694
100.834
100.911
100.947
100.963
100.956
100.956
100.932
100.841
100.758
100.571
100.23
100.029
99.9956
99.9977
99.9989
99.9998
100
100
100
100.996
100.993
100.99
100.987
100.981
100.955
100.89
100.466
99.84
100
100
100
100
100
100
100
100
100
100
100
100.995
100.992
100.986
100.973
100.95
100.861
100.513
100.023
100
100
100
100
100
100
100
100
100
100
100
100
100.991
100.991
100.987
100.966
100.908
100.62
100.03
99.9994
100
100
100
100
100
100
100
100
100
100
100
100
100.987
100.991
100.987
100.957
100.782
100.215
99.9968
100
100
100
100
100
100
100
100
100
100
100
100
100
100.983
100.991
100.987
100.921
100.569
99.9921
100
100
100
100
100
100
100
100
100
100
100
100
100
100
100.979
100.993
100.985
100.836
100.284
100
100
100
100
100
100
100
100
100
100
100
100
100
100
100
100.975
100.985
100.974
100.699
99.9925
100
100
100
100
100
100
100
100
100
100
100
100
100
100
100
100.977
100.971
100.914
100.468
100
100
100
100
100
100
100
100
100
100
100
100
100
100
100
100
101.001
100.965
100.817
100.147
100
100
100
100
100
100
100
100
100
100
100
100
100
100
100
100
101.016
100.942
100.672
99.9965
100
100
100
100
100
100
100
100
100
100
100
100
100
100
100
100
101.026
100.902
100.506
100
100
100
100
100
100
100
100
100
100
100
100
100
100
100
100
100
101.032
100.856
100.319
100
100
100
100
100
100
100
100
100
100
100
100
100
100
100
100
100
101.035
100.804
100.122
100
100
100
100
100
100
100
100
100
100
100
100
100
100
100
100
100
101.026
100.744
100.014
100
100
100
100
100
100
100
100
100
100
100
100
100
100
100
100
100
101.007
100.662
100
100
100
100
100
100
100
100
100
100
100
100
100
100
100
100
100
100
100.983
100.557
100
100
100
100
100
100
100
100
100
100
100
100
100
100
100
100
100
100
100.954
100.44
100
100
100
100
100
100
100
100
100
100
100
100
100
100
100
100
100
100
100.918
100.246
100
100
100
100
100
100
100
100
100
100
100
100
100
100
100
100
100
100
100.859
100.005
100
100
100
100
100
100
100
100
100
100
100
100
100
100
100
100
100
100
100.808
100
100
100
100
100
100
100
100
100
100
100
100
100
100
100
100
100
100
100
100.808
100
100
100
100
100
100
100
100
100
100
100
100
100
100
100
100
100
100
100
100.857
100.005
100
100
100
100
100
100
100
100
100
100
100
100
100
100
100
100
100
100
100.918
100.247
100
100
100
100
100
100
100
100
100
100
100
100
100
100
100
100
100
100
100.957
100.446
100
100
100
100
100
100
100
100
100
100
100
100
100
100
100
100
100
100
100.984
100.558
100
100
100
100
100
100
100
100
100
100
100
100
100
100
100
100
100
100
101.008
100.658
100
100
100
100
100
100
100
100
100
100
100
100
100
100
100
100
100
100
101.024
100.743
100.013
100
100
100
100
100
100
100
100
100
100
100
100
100
100
100
100
100
101.034
100.803
100.123
100
100
100
100
100
100
100
100
100
100
100
100
100
100
100
100
100
101.032
100.858
100.319
100
100
100
100
100
100
100
100
100
100
100
100
100
100
100
100
100
101.026
100.903
100.508
100
100
100
100
100
100
100
100
100
100
100
100
100
100
100
100
100
101.017
100.942
100.674
99.9965
100
100
100
100
100
100
100
100
100
100
100
100
100
100
100
100
101.002
100.966
100.817
100.141
100
100
100
100
100
100
100
100
100
100
100
100
100
100
100
100
100.976
100.971
100.913
100.47
100
100
100
100
100
100
100
100
100
100
100
100
100
100
100
100
100.974
100.982
100.973
100.7
99.9926
100
100
100
100
100
100
100
100
100
100
100
100
100
100
100
100.978
100.993
100.985
100.836
100.278
100
100
100
100
100
100
100
100
100
100
100
100
100
100
100
100.983
100.992
100.987
100.92
100.573
99.992
100
100
100
100
100
100
100
100
100
100
100
100
100
100
100.988
100.991
100.988
100.958
100.784
100.214
99.9968
100
100
100
100
100
100
100
100
100
100
100
100
100
100.991
100.992
100.988
100.967
100.91
100.617
100.028
99.9995
100
100
100
100
100
100
100
100
100
100
100
100
100.995
100.993
100.986
100.973
100.948
100.858
100.51
100.023
100
100
100
100
100
100
100
100
100
100
100
100
100.996
100.993
100.99
100.986
100.979
100.954
100.891
100.471
99.8368
100
100
100
100
100
100
100
100
100
100
100
100.694
100.834
100.912
100.946
100.961
100.955
100.956
100.934
100.842
100.757
100.569
100.228
100.029
99.9956
99.9977
99.9989
99.9998
100
100
100
100.123
100.525
100.728
100.832
100.889
100.908
100.924
100.924
100.918
100.907
100.892
100.839
100.728
100.475
100.15
100.011
99.9967
99.9985
99.9992
99.9998
99.5132
100.138
100.501
100.663
100.756
100.809
100.843
100.865
100.875
100.879
100.881
100.883
100.882
100.859
100.772
100.621
100.357
100.101
100.006
99.9978
99.3288
99.6694
100.189
100.482
100.64
100.689
100.726
100.761
100.787
100.8
100.814
100.832
100.85
100.856
100.855
100.843
100.791
100.678
100.519
100.281
99.5981
99.6342
99.8423
100.264
100.5
100.588
100.631
100.672
100.703
100.72
100.732
100.75
100.772
100.797
100.815
100.824
100.822
100.815
100.79
100.745
99.7582
99.6063
99.6502
99.9738
100.291
100.488
100.532
100.58
100.62
100.64
100.651
100.663
100.678
100.699
100.725
100.749
100.769
100.783
100.779
100.775
99.8319
99.6574
99.6783
99.8699
100.084
100.316
100.378
100.423
100.488
100.524
100.546
100.563
100.581
100.6
100.629
100.658
100.687
100.711
100.727
100.736
99.9317
99.7376
99.7445
99.8922
100.024
100.149
100.255
100.306
100.375
100.44
100.472
100.496
100.516
100.53
100.551
100.573
100.598
100.621
100.653
100.652
100.02
99.8274
99.8724
99.9733
100.043
100.133
100.227
100.281
100.339
100.393
100.416
100.436
100.452
100.461
100.472
100.486
100.507
100.531
100.576
100.571
100.091
99.8889
99.9028
99.9921
100.049
100.116
100.177
100.232
100.272
100.314
100.335
100.356
100.367
100.375
100.383
100.403
100.436
100.464
100.507
100.498
100.15
99.9332
99.8996
99.9545
100.014
100.05
100.083
100.138
100.168
100.205
100.225
100.254
100.288
100.31
100.334
100.362
100.386
100.403
100.422
100.454
100.187
99.9993
99.9156
99.941
99.9745
100.008
100.04
100.087
100.139
100.185
100.222
100.238
100.267
100.282
100.299
100.314
100.324
100.334
100.344
100.386
100.174
100.074
99.992
99.9647
99.9898
100.026
100.05
100.096
100.158
100.192
100.216
100.216
100.23
100.235
100.241
100.246
100.247
100.251
100.262
100.312
100.108
100.083
100.06
100.03
100.044
100.076
100.074
100.107
100.152
100.165
100.171
100.165
100.156
100.154
100.143
100.139
100.142
100.173
100.21
100.258
100.068
100.078
100.056
100.038
100.051
100.07
100.061
100.076
100.092
100.1
100.074
100.071
100.049
100.054
100.073
100.1
100.132
100.164
100.18
100.204
100.052
100.074
100.042
100.006
99.9935
99.9947
99.9687
99.9705
99.9673
99.9833
99.9621
99.9804
100.012
100.053
100.083
100.106
100.125
100.134
100.135
100.128
100.057
100.092
100.066
100.016
99.9354
99.8856
99.8592
99.8619
99.8739
99.9068
99.9535
99.99
100.026
100.058
100.079
100.09
100.091
100.081
100.049
100.037
100.068
100.109
100.116
100.079
99.9984
99.9036
99.8593
99.8671
99.8889
99.9242
99.97
100
100.021
100.038
100.042
100.033
100.021
100.008
100.006
100.023
100.179
100.257
100.369
100.389
100.424
100.598
100.696
100.719
100.725
100.69
100.557
100.426
100.447
100.542
100.594
100.567
100.482
100.451
100.485
100.474
100.531
100.715
100.79
100.844
100.927
101.056
101.101
101.101
101.114
101.112
101.09
101.065
101.091
101.129
101.133
101.123
101.095
101.077
101.07
101.063
101.04
101.032
101.006
100.985
100.959
100.942
100.919
100.89
100.872
100.871
100.873
100.871
100.86
100.842
100.829
100.825
100.824
100.818
100.81
100.8
100.54
100.658
100.72
100.732
100.76
100.794
100.806
100.808
100.804
100.803
100.808
100.81
100.806
100.798
100.791
100.789
100.788
100.785
100.782
100.779
100.033
100.08
100.2
100.286
100.404
100.507
100.574
100.634
100.656
100.664
100.673
100.682
100.688
100.694
100.701
100.704
100.703
100.705
100.71
100.719
100.081
100.086
100.088
100.084
100.096
100.188
100.35
100.458
100.508
100.54
100.55
100.557
100.569
100.582
100.594
100.601
100.604
100.609
100.617
100.633
100.124
100.141
100.142
100.129
100.117
100.121
100.151
100.254
100.398
100.459
100.468
100.477
100.495
100.513
100.522
100.526
100.528
100.531
100.539
100.553
100.185
100.188
100.185
100.161
100.145
100.147
100.163
100.172
100.22
100.316
100.394
100.425
100.449
100.476
100.482
100.483
100.484
100.485
100.488
100.498
100.239
100.241
100.228
100.193
100.182
100.183
100.191
100.2
100.201
100.204
100.252
100.351
100.403
100.45
100.457
100.46
100.459
100.456
100.459
100.466
100.297
100.29
100.277
100.25
100.228
100.216
100.219
100.217
100.213
100.205
100.193
100.218
100.317
100.394
100.427
100.442
100.439
100.436
100.443
100.446
100.358
100.343
100.325
100.296
100.267
100.245
100.235
100.231
100.224
100.212
100.202
100.185
100.2
100.29
100.384
100.421
100.413
100.418
100.43
100.43
100.427
100.397
100.374
100.345
100.308
100.276
100.249
100.244
100.236
100.226
100.215
100.198
100.182
100.188
100.272
100.364
100.383
100.406
100.416
100.412
100.536
100.44
100.392
100.376
100.361
100.323
100.286
100.271
100.255
100.239
100.231
100.218
100.198
100.179
100.179
100.225
100.313
100.364
100.372
100.378
100.62
100.55
100.461
100.413
100.404
100.377
100.333
100.298
100.268
100.243
100.237
100.228
100.208
100.186
100.166
100.157
100.173
100.226
100.278
100.319
100.608
100.588
100.544
100.469
100.422
100.39
100.349
100.32
100.289
100.267
100.259
100.244
100.22
100.196
100.174
100.154
100.144
100.134
100.148
100.223
100.488
100.547
100.542
100.518
100.466
100.42
100.377
100.346
100.321
100.291
100.266
100.24
100.21
100.185
100.17
100.152
100.132
100.116
100.101
100.108
100.25
100.377
100.447
100.482
100.472
100.447
100.41
100.362
100.327
100.29
100.259
100.237
100.209
100.186
100.176
100.161
100.141
100.116
100.091
100.073
100.043
100.145
100.253
100.336
100.388
100.414
100.406
100.38
100.344
100.305
100.267
100.246
100.223
100.197
100.172
100.146
100.12
100.1
100.084
100.062
100.002
100.015
100.065
100.155
100.234
100.29
100.33
100.348
100.339
100.318
100.281
100.245
100.216
100.186
100.16
100.137
100.112
100.097
100.089
100.068
100
100
100.003
100.025
100.078
100.149
100.208
100.25
100.279
100.291
100.282
100.259
100.227
100.196
100.167
100.148
100.127
100.106
100.086
100.055
100
100
100
100.001
100.006
100.031
100.08
100.139
100.187
100.217
100.241
100.243
100.236
100.216
100.186
100.157
100.13
100.103
100.079
100.048
100
100
100
100
100
100.001
100.008
100.032
100.078
100.129
100.17
100.192
100.21
100.209
100.202
100.183
100.156
100.126
100.101
100.069
100
100
100
100
100
100
100
100.001
100.008
100.032
100.073
100.118
100.154
100.174
100.186
100.184
100.178
100.161
100.137
100.097
100
100
100
100
100
100
100
100
100
100.002
100.008
100.029
100.065
100.108
100.14
100.16
100.168
100.167
100.162
100.139
100
100
100
100
100
100
100
100
100
100
100
100.001
100.007
100.024
100.057
100.097
100.127
100.145
100.154
100.151
100
100
100
100
100
100
100
100
100
100
100
100
100
100.001
100.006
100.019
100.048
100.085
100.113
100.137
100
100
100
100
100
100
100
100
100
100
100
100
100
100
100
100.001
100.004
100.016
100.04
100.105
100.598
100.654
100.61
100.416
100.142
100.017
100.001
100
100
100
100
100
100
100
100
100.672
100.663
100.518
100.218
100.022
100
100
100
100
100
100
100
100
100
100
100.704
100.635
100.373
100.073
100.002
100
100
100
100
100
100
100
100
100
100
100.719
100.518
100.168
100.009
100
100
100
100
100
100
100
100
100
100
100
100.651
100.285
100.025
100
100
100
100
100
100
100
100
100
100
100
100
100.393
100.038
100
100
100
100
100
100
100
100
100
100
100
100
100
100.043
100
100
100
100
100
100
100
100
100
100
100
100
100
100
99.9995
100
100
100
100
100
100
100
100
100
100
100
100
100
100
100
100
100
100
100
100
100
100
100
100
100
100
100
100
100
100
100
100
100
100
100
100
100
100
100
100
100
100
100
100
100
100
100
100
100
100
100
100
100
100
100
100
100
100
100
100
100
100
100
100
100
100
100
100
100
100
100
100
100
100
100
100
100
100
100
100
100
100
100
100
100
100
100
100
100
100
100
100
100
100
100
100
100
100
100
100
100
100
100
100
100
100
100
100
100
100
100
100
100
100
100
100
100
100
100
100
100
100
100
100
100
100
100
100
100
100
100
100
100
100
100
100
100
100
100
100
100
100
100
100
100
100
100
100
100
100
100
100
100
100
100
100
100
100
100
100
100
100
100
100
100
100
100
100
100
100
100
100
100
100
100
100
100
100
100
100
100
100
100
100
100
100
100
100
100
100
100
100
100
100
100
100
100
100
100
100
100
100
100
100
100
100
100
100
100
100
100
100
100
100
100
100
100
100
100
100
100
100
100
100
100
100
100
100
100
100
100
100
100
100
100
100
100
100
100
100
100
100
100
100
100
100
100
100
100
100
100
100
100
100
100
100
100
100
100
100
100
100
100
100
100
100
100
100
100
100
100
100
100
100
100
100
100
100
100
100
100
100
100
100
100
100
100
100
100
100
100
100
100
100
100
100
100
100
100
100
100
100
100
100
100
100
100
100
100
100
100
100
100
100
100
100
100
100
100
100
100
100
100
100
100
100
100
100
100
100
100
100
100
100
100
100
100
100
100
100
100
100
100
100
100
100
100
100
100
100
100
100
100
100
100
100
100
100
100
100
100
100
100
100
100
100
100
100
100
100
100
100
100
100
100
100
100
100
100
100
100
100
100
100
100
100
100
100
100
100
100
100
100
100
100
100
100
100
100
100
100
100
100
100
100
100
100
100
100
100
100
100
100
100
100
100
100
100
100
100
100
100
100
100
100
100
100
100
100
100
100
100
100
100
100
100
100
100
100
100
100
100
100
100
100
100
100
100
100
100
100
100
100
100
100
100
100
100
100
100
100
100
100
100
100
100
100
100
100
100
100
100
100
100
100
100
100
100
100
100
100
100
100
100
100
100
100
100
100
100
100
100
100
100
100
100
100
100
100
100
100
100
100
100
100
100
100
100
100
100
100
100
100
100
100
100
100
100
100
100
100
100
100
100
100
100
100
100
100
100
100
100
100
100
100
100
100
100
100
100
100
100
100
100
100
100
100
100
100
100
100
100
100
100
100
100
100
100
100
100
100
100
100
100
100
100
100
100
100
100
100
100
100
100
100
100
100
100
100
100
100
100
100
100
100
100
100
100
100
100
100
100
100
100
100
100
100
100
100
100
100
100
100
100
100
100
100
100
100
100
100
100
100
100
100
100
100
100
100
100
100
100
100
100
100
100
100
100
100
100
100
100
100
100
100
100
100
100
100
100
100
100
100
100
100
100
100
100
100
100
100
100
100
100
100
100
100
100
100
100
100
100
100
100
100
100
100
100
100
100
100
100
100
100
100
100
100
100
100
100
100
100
100
100
100
100
100
100
100
100
100
100
100
100
100
100
100
100
100
100
100
100
100
100
100
100
100
100
100
100
100
100
100
100
100
100
100
100
100
100
100
100
100
100
100
100
100
100
100
100
100
100
100
100
100
100
100
100
100
100
100
100
100
100
100
100
100
100
100
100
100
100
100
100
100
100
100
100
100
100
100
100
100
100
100
100
100
100
100
100
100
100
100
100
100
100
100
100
100
100
100
100
100
100
100
100
100
100
100
100
100
100
100
100
100
100
100
100
100
100
100
100
100
100
100
100
100
100
100
100
100
100
100
100
100
100
100
100
100
100
100
100
100
100
100
100
100
100
100
100
100
100
100
100
100
100
100
100
100
100
100
100
100
100
100
100
100
100
100
100
100
100
100
100
100
100
100
100
100
100
100
100
100
100
100
100
100
100
100
100
100
100
100
100
99.9995
100
100
100
100
100
100
100
100
100
100
100
100
100
100
100.043
100
100
100
100
100
100
100
100
100
100
100
100
100
100
100.393
100.038
100
100
100
100
100
100
100
100
100
100
100
100
100
100.651
100.285
100.025
100
100
100
100
100
100
100
100
100
100
100
100
100.719
100.518
100.168
100.009
100
100
100
100
100
100
100
100
100
100
100
100.704
100.635
100.373
100.073
100.002
100
100
100
100
100
100
100
100
100
100
100.672
100.663
100.518
100.218
100.022
100
100
100
100
100
100
100
100
100
100
100.598
100.654
100.61
100.416
100.142
100.017
100.001
100
100
100
100
100
100
100
100
100.535
100.62
100.608
100.488
100.25
100.043
100.002
100
100
100
100
100
100
100
100
100.438
100.55
100.589
100.547
100.377
100.145
100.015
100
100
100
100
100
100
100
100
100.394
100.459
100.543
100.542
100.447
100.253
100.065
100.003
100
100
100
100
100
100
100
100.378
100.416
100.47
100.517
100.482
100.336
100.155
100.025
100.001
100
100
100
100
100
100
100.36
100.403
100.423
100.468
100.472
100.388
100.234
100.079
100.006
100
100
100
100
100
100
100.322
100.375
100.387
100.421
100.448
100.415
100.29
100.149
100.031
100.001
100
100
100
100
100
100.286
100.338
100.348
100.371
100.409
100.406
100.33
100.208
100.08
100.008
100
100
100
100
100
100.267
100.301
100.323
100.345
100.36
100.379
100.348
100.25
100.139
100.032
100.001
100
100
100
100
100.249
100.268
100.291
100.323
100.329
100.342
100.338
100.279
100.187
100.078
100.008
100
100
100
100
100.235
100.242
100.267
100.291
100.293
100.305
100.317
100.291
100.217
100.129
100.032
100.002
100
100
100
100.228
100.235
100.258
100.264
100.259
100.27
100.282
100.282
100.241
100.17
100.073
100.008
100
100
100
100.217
100.228
100.245
100.239
100.234
100.245
100.246
100.259
100.244
100.192
100.117
100.029
100.001
100
100
100.199
100.209
100.223
100.212
100.206
100.22
100.216
100.228
100.236
100.21
100.154
100.065
100.007
100
100
100.176
100.188
100.197
100.186
100.19
100.196
100.185
100.196
100.216
100.209
100.174
100.107
100.024
100.001
100
100.178
100.168
100.174
100.171
100.181
100.173
100.159
100.168
100.187
100.202
100.186
100.14
100.057
100.006
100
100.224
100.154
100.151
100.153
100.164
100.148
100.135
100.147
100.157
100.183
100.184
100.16
100.097
100.019
100.001
100.31
100.168
100.14
100.134
100.14
100.121
100.112
100.126
100.13
100.156
100.178
100.168
100.127
100.048
100.004
100.365
100.222
100.13
100.115
100.115
100.099
100.097
100.105
100.103
100.126
100.161
100.167
100.145
100.085
100.016
100.375
100.276
100.144
100.099
100.091
100.083
100.089
100.086
100.079
100.101
100.137
100.162
100.154
100.113
100.04
100.379
100.32
100.221
100.108
100.072
100.061
100.068
100.056
100.048
100.068
100.097
100.139
100.151
100.137
100.105
100.429
100.397
100.374
100.347
100.311
100.279
100.258
100.247
100.231
100.223
100.213
100.198
100.183
100.187
100.267
100.362
100.385
100.408
100.419
100.413
100.36
100.343
100.324
100.298
100.269
100.249
100.24
100.233
100.223
100.211
100.204
100.188
100.204
100.293
100.37
100.418
100.416
100.422
100.432
100.431
100.298
100.289
100.276
100.251
100.228
100.214
100.218
100.214
100.208
100.204
100.196
100.224
100.324
100.394
100.427
100.442
100.441
100.438
100.444
100.447
100.239
100.241
100.228
100.192
100.186
100.186
100.194
100.202
100.201
100.203
100.251
100.357
100.405
100.444
100.463
100.464
100.46
100.457
100.459
100.465
100.184
100.187
100.182
100.158
100.143
100.145
100.162
100.172
100.215
100.314
100.398
100.429
100.449
100.477
100.487
100.487
100.485
100.483
100.486
100.496
100.124
100.137
100.139
100.127
100.119
100.123
100.151
100.255
100.392
100.458
100.468
100.476
100.495
100.516
100.526
100.529
100.529
100.53
100.537
100.55
100.077
100.097
100.094
100.084
100.094
100.18
100.343
100.46
100.509
100.538
100.544
100.555
100.57
100.588
100.599
100.605
100.607
100.61
100.618
100.631
100.033
100.054
100.187
100.29
100.404
100.496
100.564
100.634
100.662
100.665
100.669
100.677
100.687
100.698
100.706
100.708
100.708
100.709
100.712
100.718
100.589
100.629
100.701
100.734
100.766
100.785
100.796
100.806
100.807
100.807
100.808
100.81
100.807
100.801
100.795
100.792
100.79
100.788
100.784
100.78
101.053
101.022
100.997
100.985
100.962
100.945
100.921
100.89
100.873
100.873
100.877
100.876
100.866
100.845
100.83
100.826
100.825
100.822
100.814
100.801
)
;

boundaryField
{
    inlet
    {
        type            fixedValue;
        value           uniform 100;
    }
    outlet
    {
        type            inletOutlet;
        inletValue      uniform 100;
        value           nonuniform List<scalar> 
50
(
100.378
100.319
100.223
100.108
100.073
100.062
100.068
100.055
100.048
100.069
100.097
100.139
100.151
100.137
100.105
100.8
100.779
100.719
100.633
100.553
100.498
100.466
100.446
100.43
100.412
100.413
100.431
100.446
100.465
100.496
100.55
100.631
100.718
100.78
100.801
100.379
100.32
100.221
100.108
100.072
100.061
100.068
100.056
100.048
100.068
100.097
100.139
100.151
100.137
100.105
)
;
    }
    airfoil
    {
        type            zeroGradient;
    }
    top
    {
        type            symmetryPlane;
    }
    bottom
    {
        type            symmetryPlane;
    }
    defaultFaces
    {
        type            empty;
    }
}


// ************************************************************************* //
