/*--------------------------------*- C++ -*----------------------------------*\
  =========                 |
  \\      /  F ield         | OpenFOAM: The Open Source CFD Toolbox
   \\    /   O peration     | Website:  https://openfoam.org
    \\  /    A nd           | Version:  7
     \\/     M anipulation  |
\*---------------------------------------------------------------------------*/
FoamFile
{
    version     2.0;
    format      ascii;
    class       volScalarField;
    location    "7.8";
    object      p;
}
// * * * * * * * * * * * * * * * * * * * * * * * * * * * * * * * * * * * * * //

dimensions      [1 -1 -2 0 0 0 0];

internalField   nonuniform List<scalar> 
3700
(
0.110713
0.191904
0.256197
0.31346
0.364442
0.396844
0.393535
0.394517
0.403869
0.424634
0.438895
0.458817
0.473395
0.469797
0.48586
0.494892
0.501435
0.510174
0.504689
0.499937
0.0669885
0.0866298
0.118678
0.137043
0.131816
0.119944
0.107694
0.0899616
0.0860035
0.0999903
0.133805
0.173545
0.200427
0.206974
0.20974
0.213431
0.215999
0.20594
0.191846
0.172547
0.0593225
0.0720976
0.081497
0.0770306
0.0616645
0.0489135
0.0471267
0.049868
0.0563013
0.0643576
0.0748236
0.0837101
0.094721
0.106155
0.111164
0.112349
0.112462
0.112174
0.113074
0.121175
0.0597253
0.0743689
0.0748358
0.0667218
0.0512604
0.0483209
0.0479224
0.0510317
0.0571859
0.0664209
0.0778104
0.0881365
0.101853
0.121519
0.139167
0.154114
0.163231
0.164498
0.161968
0.164959
0.0562733
0.0693661
0.0673338
0.0611832
0.0557609
0.0592997
0.0637934
0.0712604
0.080299
0.0944233
0.0905351
0.0950579
0.103022
0.122743
0.146685
0.171257
0.193509
0.210411
0.222728
0.226393
0.0534563
0.0662937
0.0650051
0.0596191
0.0578622
0.0669851
0.0769481
0.0917986
0.110326
0.130928
0.131168
0.139641
0.135176
0.139604
0.151845
0.178608
0.212364
0.248743
0.279727
0.320097
0.0512727
0.0650356
0.0641774
0.0567215
0.0554565
0.0665832
0.0779748
0.0985136
0.128867
0.153827
0.176136
0.192998
0.201187
0.21231
0.21393
0.223582
0.241568
0.282823
0.331746
0.413962
0.0551094
0.061867
0.0586095
0.0518056
0.0531875
0.0631601
0.0744053
0.0961631
0.130862
0.167316
0.205496
0.231437
0.266622
0.295414
0.319206
0.341398
0.36064
0.38464
0.422503
0.534438
0.0650549
0.0560702
0.0513147
0.0512063
0.0597876
0.0728999
0.0814435
0.0997206
0.128209
0.168111
0.218996
0.259073
0.317502
0.364792
0.414265
0.46411
0.509618
0.552483
0.591094
0.721717
0.0701366
0.0498192
0.0489926
0.060469
0.0805076
0.102455
0.122752
0.15357
0.183348
0.211164
0.247984
0.299854
0.370912
0.436925
0.507365
0.590401
0.675701
0.75531
0.829848
0.953465
0.0707245
0.0435034
0.0497677
0.0675875
0.0872623
0.122783
0.171203
0.225174
0.282609
0.347894
0.40442
0.465396
0.52672
0.592396
0.656433
0.746245
0.871522
0.990315
1.17698
1.1459
0.0675409
0.0364694
0.0449653
0.058177
0.0777871
0.123809
0.195135
0.267248
0.361226
0.481105
0.579213
0.676191
0.771536
0.861431
0.9434
1.04404
1.17141
1.31033
1.55357
1.52487
0.0530264
0.0300569
0.0322518
0.0435511
0.0697533
0.117155
0.196217
0.28665
0.420043
0.598224
0.756141
0.905788
1.05253
1.18157
1.33197
1.49482
1.65547
1.82203
2.08655
2.08361
0.0361047
0.0245985
0.0271929
0.03911
0.0706874
0.15735
0.271237
0.428546
0.658783
0.886185
1.09553
1.27835
1.46133
1.63694
1.86564
2.1047
2.33969
2.5773
2.79128
3.00801
0.0243593
0.0210557
0.0258971
0.0420674
0.145972
0.404692
0.642275
0.907406
1.22698
1.52035
1.75867
1.97302
2.18638
2.40824
2.70011
2.98031
3.25385
3.495
3.64672
3.77915
0.0146666
0.0218547
0.034625
0.133135
0.415904
0.774255
1.13498
1.53141
1.96298
2.33742
2.61729
2.89325
3.16375
3.44923
3.76779
3.97913
4.10069
4.13554
4.04095
3.91288
0.0109358
0.0320165
0.145864
0.411444
0.907468
1.43809
1.96705
2.53257
3.13033
3.52291
3.77275
4.01358
4.22
4.37069
4.46311
4.39085
4.17682
3.64906
2.79757
1.89617
0.0274905
0.143541
0.497438
1.175
2.07662
2.89377
3.57101
4.24127
4.75076
4.84027
4.76844
4.76114
4.71601
4.54122
4.02192
3.05774
2.08488
1.33176
1.01878
0.992859
0.308166
0.868231
1.99472
3.21162
4.20525
4.83178
5.40782
5.88831
5.7436
5.2879
4.856
4.32127
3.40029
2.33171
1.42992
1.03099
0.989465
0.994951
0.99733
0.999437
2.31866
3.64557
4.90511
5.68887
6.17738
6.4121
6.55474
6.25715
4.55315
3.20748
2.3638
1.55285
1.07512
0.986902
0.992708
0.996219
0.999159
0.999976
1.00002
1.00001
6.96707
6.92136
6.88438
6.854
6.92365
6.76717
6.01925
2.40243
0.628803
1
1
1
1
1
1
1
1
1
1
1
6.95543
6.8965
6.83126
6.74831
6.7245
5.78563
2.65215
1.0269
1
1
1
1
1
1
1
1
1
1
1
1
6.81365
6.85268
6.83655
6.74758
6.4707
3.30673
1.02278
0.99963
1
1
1
1
1
1
1
1
1
1
1
1
6.69939
6.82584
6.81828
6.53574
4.67207
1.38557
0.995072
1.00009
0.999999
1
1
1
1
1
1
1
1
1
1
1
6.55503
6.82837
6.80951
6.00002
2.79903
0.974437
1.00035
0.999994
1
1
1
1
1
1
1
1
1
1
1
1
6.42588
6.79971
6.82491
5.05463
1.44861
1
1
1
1
1
1
1
1
1
1
1
1
1
1
1
6.35536
6.66775
6.67823
3.50299
0.973734
1
1
1
1
1
1
1
1
1
1
1
1
1
1
1
6.47339
6.60784
6.01264
2.06419
1
1
1
1
1
1
1
1
1
1
1
1
1
1
1
1
7.00376
6.70583
4.89894
1.1676
1
1
1
1
1
1
1
1
1
1
1
1
1
1
1
1
7.25292
6.38069
3.47741
0.988061
1
1
1
1
1
1
1
1
1
1
1
1
1
1
1
1
7.41186
5.98048
2.33408
1
1
1
1
1
1
1
1
1
1
1
1
1
1
1
1
1
7.47795
5.42495
1.60681
1
1
1
1
1
1
1
1
1
1
1
1
1
1
1
1
1
7.51925
4.73972
1.18057
1
1
1
1
1
1
1
1
1
1
1
1
1
1
1
1
1
7.39863
4.00409
1.01225
1
1
1
1
1
1
1
1
1
1
1
1
1
1
1
1
1
7.24856
3.15796
1
1
1
1
1
1
1
1
1
1
1
1
1
1
1
1
1
1
6.87426
2.52189
1
1
1
1
1
1
1
1
1
1
1
1
1
1
1
1
1
1
6.66234
1.94319
1
1
1
1
1
1
1
1
1
1
1
1
1
1
1
1
1
1
6.36131
1.37521
1
1
1
1
1
1
1
1
1
1
1
1
1
1
1
1
1
1
5.64837
1.00564
1
1
1
1
1
1
1
1
1
1
1
1
1
1
1
1
1
1
4.65505
1.00005
1
1
1
1
1
1
1
1
1
1
1
1
1
1
1
1
1
1
4.66163
1.00005
1
1
1
1
1
1
1
1
1
1
1
1
1
1
1
1
1
1
5.64208
1.00541
1
1
1
1
1
1
1
1
1
1
1
1
1
1
1
1
1
1
6.35071
1.36913
1
1
1
1
1
1
1
1
1
1
1
1
1
1
1
1
1
1
6.68408
1.94226
1
1
1
1
1
1
1
1
1
1
1
1
1
1
1
1
1
1
6.87413
2.54195
1
1
1
1
1
1
1
1
1
1
1
1
1
1
1
1
1
1
7.22058
3.15995
1
1
1
1
1
1
1
1
1
1
1
1
1
1
1
1
1
1
7.41394
3.99484
1.00754
1
1
1
1
1
1
1
1
1
1
1
1
1
1
1
1
1
7.53271
4.73131
1.17755
1
1
1
1
1
1
1
1
1
1
1
1
1
1
1
1
1
7.48334
5.42206
1.60099
1
1
1
1
1
1
1
1
1
1
1
1
1
1
1
1
1
7.40665
5.99123
2.33212
1
1
1
1
1
1
1
1
1
1
1
1
1
1
1
1
1
7.23474
6.37149
3.50288
0.987977
1
1
1
1
1
1
1
1
1
1
1
1
1
1
1
1
6.99258
6.71471
4.91338
1.1628
1
1
1
1
1
1
1
1
1
1
1
1
1
1
1
1
6.48101
6.6093
6.02457
2.06562
1
1
1
1
1
1
1
1
1
1
1
1
1
1
1
1
6.35293
6.66427
6.65318
3.47921
0.974058
1
1
1
1
1
1
1
1
1
1
1
1
1
1
1
6.41338
6.78879
6.83452
5.07611
1.43304
1
1
1
1
1
1
1
1
1
1
1
1
1
1
1
6.54229
6.83059
6.82141
6.02435
2.82049
0.974001
1.00035
0.999994
1
1
1
1
1
1
1
1
1
1
1
1
6.69649
6.82952
6.81757
6.47337
4.67048
1.40067
0.99515
1.00009
0.999999
1
1
1
1
1
1
1
1
1
1
1
6.81705
6.85567
6.83639
6.74988
6.48242
3.29797
1.0222
0.999678
1
1
1
1
1
1
1
1
1
1
1
1
6.96046
6.89924
6.83576
6.76815
6.76234
5.78605
2.63682
1.02491
1
1
1
1
1
1
1
1
1
1
1
1
6.97422
6.92541
6.88521
6.85494
6.91586
6.76778
6.02397
2.40286
0.626872
1
1
1
1
1
1
1
1
1
1
1
2.32063
3.65337
4.92471
5.69912
6.15894
6.39895
6.54828
6.25715
4.55804
3.21359
2.36999
1.55703
1.07616
0.986966
0.992712
0.996213
0.999154
0.999975
1.00002
1.00001
0.30308
0.841885
1.94453
3.19645
4.21329
4.83378
5.4015
5.88642
5.74267
5.2867
4.85393
4.32007
3.39953
2.33126
1.43003
1.03112
0.98949
0.994967
0.997338
0.999439
0.0413783
0.178053
0.547665
1.17726
2.05096
2.8811
3.56828
4.24391
4.74867
4.83644
4.75779
4.75788
4.71495
4.54292
4.02561
3.05954
2.0834
1.33
1.01838
0.992864
0.00616702
0.0296581
0.119852
0.425108
0.921324
1.43374
1.96078
2.53103
3.12655
3.51602
3.76252
4.00538
4.21796
4.37434
4.464
4.39068
4.17541
3.64609
2.79507
1.8952
0.0108107
0.0230646
0.0344855
0.138368
0.42105
0.777434
1.14072
1.53772
1.96606
2.33722
2.61233
2.88787
3.16232
3.4512
3.76981
3.97877
4.09928
4.13563
4.04115
3.91361
0.0189839
0.0219904
0.0348421
0.0491129
0.150033
0.41065
0.646305
0.91189
1.23247
1.5249
1.76004
1.9743
2.18896
2.41092
2.70195
2.98061
3.25288
3.49441
3.64762
3.78059
0.0301721
0.0229092
0.0369661
0.0454363
0.0730765
0.159466
0.272245
0.428653
0.65797
0.886442
1.09787
1.28255
1.46588
1.64062
1.868
2.10541
2.33918
2.57617
2.79045
3.00876
0.0442847
0.0291938
0.0379918
0.0471506
0.0710862
0.114794
0.196092
0.285041
0.417421
0.596345
0.756334
0.908126
1.05546
1.184
1.33314
1.49452
1.654
1.82007
2.08465
2.08426
0.0585976
0.0363095
0.0439676
0.0583484
0.0795916
0.120495
0.195353
0.266125
0.3604
0.481343
0.580017
0.677171
0.772202
0.861361
0.942903
1.04297
1.17005
1.30874
1.5521
1.52349
0.0629341
0.0415572
0.0471723
0.0672282
0.0891043
0.119454
0.170664
0.224431
0.282511
0.348668
0.405229
0.465162
0.525874
0.59132
0.655883
0.746072
0.871111
0.989526
1.17578
1.14423
0.0641181
0.0459365
0.0453094
0.0596253
0.0812811
0.0994934
0.122582
0.154638
0.18555
0.211758
0.247027
0.297982
0.369482
0.436612
0.507892
0.590744
0.675043
0.753867
0.828563
0.953322
0.0627044
0.0511679
0.04734
0.0494155
0.059935
0.071192
0.0838853
0.103306
0.129456
0.166406
0.216923
0.257624
0.317157
0.365006
0.414468
0.46355
0.508257
0.55058
0.590005
0.722585
0.0550423
0.0565899
0.0552264
0.0499332
0.0532612
0.0671315
0.0777742
0.0972659
0.12956
0.165592
0.204295
0.231245
0.267228
0.296237
0.31961
0.341463
0.360514
0.38496
0.423795
0.536351
0.0497368
0.0609082
0.0611377
0.0550099
0.0565942
0.0708689
0.0792203
0.0981428
0.126659
0.153006
0.176373
0.194222
0.202184
0.213259
0.214645
0.22434
0.243121
0.285023
0.333089
0.414829
0.0500224
0.0626611
0.0632091
0.0577819
0.0589252
0.0703717
0.0763297
0.0908953
0.109374
0.131911
0.132132
0.140753
0.135592
0.139793
0.153042
0.180496
0.213662
0.249274
0.279749
0.319748
0.0540779
0.0650143
0.0636822
0.0574407
0.0549134
0.0606093
0.062712
0.071679
0.0813073
0.0954496
0.0917547
0.0957285
0.104099
0.124685
0.148352
0.172135
0.193405
0.209791
0.221539
0.225401
0.0617112
0.071206
0.0706947
0.0623942
0.0501104
0.0481099
0.0486984
0.0520974
0.0577034
0.0669917
0.0786615
0.0892596
0.103355
0.122986
0.139982
0.15404
0.162015
0.163052
0.160758
0.1642
0.0594656
0.0682852
0.0782308
0.07606
0.0627691
0.0494027
0.0488249
0.0512684
0.0564897
0.0644451
0.0749254
0.0840834
0.0952771
0.106153
0.110675
0.111763
0.111652
0.111547
0.113024
0.120971
0.0654723
0.0797128
0.100491
0.12772
0.148004
0.145909
0.137954
0.146531
0.158781
0.164625
0.154389
0.148095
0.158434
0.180499
0.199256
0.196535
0.191423
0.194542
0.207761
0.230879
0.113338
0.200409
0.243056
0.299383
0.367906
0.410809
0.411773
0.426572
0.452906
0.462664
0.449996
0.439822
0.461156
0.47008
0.489386
0.494287
0.500651
0.52357
0.534192
0.545237
0.556977
0.641228
0.72003
0.821463
0.812435
0.82936
0.82704
0.855355
0.89882
0.923765
0.929769
0.930342
0.928824
0.940615
0.963037
0.967161
0.955284
0.950275
0.951617
0.957252
0.273339
0.426386
0.544319
0.702276
0.759988
0.817114
0.824636
0.853187
0.896503
0.921683
0.936727
0.939455
0.930921
0.931291
0.947416
0.960454
0.960898
0.957764
0.951865
0.95374
0.138437
0.164319
0.23303
0.342143
0.546816
0.687553
0.757381
0.838179
0.890083
0.908965
0.923986
0.930739
0.930916
0.93591
0.943649
0.954065
0.958068
0.9586
0.956969
0.955675
0.18614
0.213691
0.241179
0.244239
0.268956
0.350619
0.549014
0.735558
0.820337
0.876531
0.917996
0.925677
0.925472
0.935915
0.945129
0.951096
0.956757
0.957708
0.958762
0.958714
0.230603
0.257703
0.275076
0.293936
0.300856
0.296145
0.317853
0.413537
0.607478
0.783098
0.874785
0.916035
0.925802
0.943167
0.947647
0.950892
0.954675
0.954422
0.955097
0.958048
0.308805
0.316598
0.341159
0.339662
0.334622
0.340392
0.345769
0.337007
0.362322
0.484297
0.687327
0.864602
0.913626
0.946421
0.943847
0.950236
0.955945
0.954002
0.952481
0.959549
0.404841
0.399674
0.390616
0.380057
0.381072
0.387525
0.387509
0.38418
0.372397
0.37198
0.445718
0.648042
0.83444
0.943275
0.938945
0.948572
0.952116
0.94497
0.950151
0.961415
0.532011
0.503724
0.459489
0.416569
0.41155
0.42366
0.431769
0.426784
0.411848
0.391135
0.386257
0.435124
0.628176
0.838464
0.911196
0.951685
0.947648
0.940191
0.957097
0.964908
0.686889
0.623653
0.538583
0.478284
0.457986
0.466773
0.474649
0.466188
0.44971
0.429622
0.397795
0.399318
0.441144
0.616277
0.835385
0.941364
0.92156
0.934075
0.965604
0.966166
0.870901
0.776589
0.657799
0.559053
0.520132
0.513809
0.515474
0.499829
0.492225
0.468455
0.436893
0.418979
0.421246
0.454084
0.609067
0.834636
0.884075
0.937961
0.973286
0.963539
1.24801
0.967106
0.827913
0.714788
0.598251
0.558565
0.566114
0.567487
0.559436
0.545594
0.502575
0.473784
0.465442
0.455012
0.472749
0.565602
0.749958
0.890771
0.94223
0.954079
2.04291
1.45868
1.15588
1.0408
0.877647
0.718131
0.674631
0.643226
0.616521
0.598428
0.567512
0.543533
0.536168
0.520035
0.485218
0.485578
0.523541
0.637858
0.790021
0.911836
2.50493
2.18077
1.68775
1.35182
1.13635
0.941548
0.830972
0.742967
0.667408
0.662351
0.655798
0.634696
0.61739
0.585599
0.548402
0.519198
0.521776
0.533291
0.575836
0.74667
2.36602
2.3485
2.2444
1.9132
1.56084
1.27826
1.09912
0.976921
0.853036
0.808526
0.761497
0.705797
0.661236
0.621698
0.599033
0.586418
0.570354
0.554844
0.543129
0.578678
1.68334
2.13877
2.22187
2.19014
2.06209
1.79929
1.47524
1.25179
1.07327
0.957438
0.871747
0.785461
0.729784
0.710978
0.700548
0.683211
0.655104
0.619603
0.570598
0.571665
1.10884
1.43669
1.84274
2.11096
2.11315
2.08084
1.93158
1.68515
1.43195
1.21579
1.09631
0.987296
0.903264
0.845991
0.794078
0.746596
0.705342
0.662151
0.627794
0.605856
1.00452
1.04428
1.20433
1.54666
1.86533
2.02138
2.0134
1.96696
1.83876
1.61331
1.40191
1.23046
1.07891
0.975607
0.880506
0.801252
0.773135
0.748886
0.733585
0.694668
1.00009
1.00109
1.01069
1.07692
1.26983
1.57111
1.82593
1.93495
1.9288
1.88777
1.76732
1.58296
1.38264
1.2267
1.09753
0.985198
0.92579
0.890686
0.842569
0.760199
1
1.00001
1.00015
1.00241
1.01887
1.10213
1.29118
1.55425
1.76715
1.85975
1.85385
1.81838
1.71934
1.55207
1.38302
1.22534
1.09328
0.998846
0.929196
0.835063
1
1
1
1.00003
1.00032
1.00406
1.02423
1.10858
1.28564
1.5238
1.70047
1.78972
1.78571
1.75691
1.67762
1.5419
1.38417
1.22726
1.12429
1.00212
1
1
1
1
1
1.00005
1.00047
1.00483
1.02607
1.10617
1.26455
1.47991
1.63567
1.72247
1.72168
1.70374
1.64445
1.52891
1.39702
1.19747
1
1
1
1
1
1
1
1.00006
1.00056
1.00486
1.02588
1.09365
1.23395
1.42138
1.58146
1.66231
1.66234
1.65083
1.61531
1.46324
1
1
1
1
1
1
1
1
1.00001
1.00007
1.00061
1.00404
1.02271
1.07982
1.19742
1.36601
1.51481
1.61208
1.61044
1.58744
1
1
1
1
1
1
1
1
1
1
1.00001
1.00005
1.00054
1.0034
1.01707
1.06619
1.16247
1.31257
1.4453
1.55228
1
1
1
1
1
1
1
1
1
1
1
1
1.00001
1.00004
1.0004
1.00265
1.01389
1.05103
1.13643
1.38993
1.62336
2.46366
2.58272
2.08523
1.31039
1.03701
1.00187
1.00005
1
1
1
1
1
1
1
2.34748
2.8164
2.52762
1.54145
1.04847
1.00082
1
1
1
1
1
1
1
1
1
2.93412
2.87178
1.98068
1.15228
1.0052
1.00005
1
1
1
1
1
1
1
1
1
3.25617
2.55808
1.36427
1.01915
1.00018
1
1
1
1
1
1
1
1
1
1
3.32084
1.68401
1.04734
1.00052
1
1
1
1
1
1
1
1
1
1
1
2.06753
1.07314
1.00047
0.999999
1
1
1
1
1
1
1
1
1
1
1
1.10275
1.00056
0.999997
1
1
1
1
1
1
1
1
1
1
1
1
0.998138
0.999865
0.999996
1
1
1
1
1
1
1
1
1
1
1
1
0.999966
1
1
1
1
1
1
1
1
1
1
1
1
1
1
1
1
1
1
1
1
1
1
1
1
1
1
1
1
1
1
1
1
1
1
1
1
1
1
1
1
1
1
1
1
1
1
1
1
1
1
1
1
1
1
1
1
1
1
1
1
1
1
1
1
1
1
1
1
1
1
1
1
1
1
1
1
1
1
1
1
1
1
1
1
1
1
1
1
1
1
1
1
1
1
1
1
1
1
1
1
1
1
1
1
1
1
1
1
1
1
1
1
1
1
1
1
1
1
1
1
1
1
1
1
1
1
1
1
1
1
1
1
1
1
1
1
1
1
1
1
1
1
1
1
1
1
1
1
1
1
1
1
1
1
1
1
1
1
1
1
1
1
1
1
1
1
1
1
1
1
1
1
1
1
1
1
1
1
1
1
1
1
1
1
1
1
1
1
1
1
1
1
1
1
1
1
1
1
1
1
1
1
1
1
1
1
1
1
1
1
1
1
1
1
1
1
1
1
1
1
1
1
1
1
1
1
1
1
1
1
1
1
1
1
1
1
1
1
1
1
1
1
1
1
1
1
1
1
1
1
1
1
1
1
1
1
1
1
1
1
1
1
1
1
1
1
1
1
1
1
1
1
1
1
1
1
1
1
1
1
1
1
1
1
1
1
1
1
1
1
1
1
1
1
1
1
1
1
1
1
1
1
1
1
1
1
1
1
1
1
1
1
1
1
1
1
1
1
1
1
1
1
1
1
1
1
1
1
1
1
1
1
1
1
1
1
1
1
1
1
1
1
1
1
1
1
1
1
1
1
1
1
1
1
1
1
1
1
1
1
1
1
1
1
1
1
1
1
1
1
1
1
1
1
1
1
1
1
1
1
1
1
1
1
1
1
1
1
1
1
1
1
1
1
1
1
1
1
1
1
1
1
1
1
1
1
1
1
1
1
1
1
1
1
1
1
1
1
1
1
1
1
1
1
1
1
1
1
1
1
1
1
1
1
1
1
1
1
1
1
1
1
1
1
1
1
1
1
1
1
1
1
1
1
1
1
1
1
1
1
1
1
1
1
1
1
1
1
1
1
1
1
1
1
1
1
1
1
1
1
1
1
1
1
1
1
1
1
1
1
1
1
1
1
1
1
1
1
1
1
1
1
1
1
1
1
1
1
1
1
1
1
1
1
1
1
1
1
1
1
1
1
1
1
1
1
1
1
1
1
1
1
1
1
1
1
1
1
1
1
1
1
1
1
1
1
1
1
1
1
1
1
1
1
1
1
1
1
1
1
1
1
1
1
1
1
1
1
1
1
1
1
1
1
1
1
1
1
1
1
1
1
1
1
1
1
1
1
1
1
1
1
1
1
1
1
1
1
1
1
1
1
1
1
1
1
1
1
1
1
1
1
1
1
1
1
1
1
1
1
1
1
1
1
1
1
1
1
1
1
1
1
1
1
1
1
1
1
1
1
1
1
1
1
1
1
1
1
1
1
1
1
1
1
1
1
1
1
1
1
1
1
1
1
1
1
1
1
1
1
1
1
1
1
1
1
1
1
1
1
1
1
1
1
1
1
1
1
1
1
1
1
1
1
1
1
1
1
1
1
1
1
1
1
1
1
1
1
1
1
1
1
1
1
1
1
1
1
1
1
1
1
1
1
1
1
1
1
1
1
1
1
1
1
1
1
1
1
1
1
1
1
1
1
1
1
1
1
1
1
1
1
1
1
1
1
1
1
1
1
1
1
1
1
1
1
1
1
1
1
1
1
1
1
1
1
1
1
1
1
1
1
1
1
1
1
1
1
1
1
1
1
1
1
1
1
1
1
1
1
1
1
1
1
1
1
1
1
1
1
1
1
1
1
1
1
1
1
1
1
1
1
1
1
1
1
1
1
1
1
1
1
1
1
1
1
1
1
1
1
1
1
1
1
0.999966
1
1
1
1
1
1
1
1
1
1
1
1
1
1
0.99814
0.999865
0.999996
1
1
1
1
1
1
1
1
1
1
1
1
1.10267
1.00056
0.999997
1
1
1
1
1
1
1
1
1
1
1
1
2.06788
1.07318
1.00048
0.999999
1
1
1
1
1
1
1
1
1
1
1
3.32185
1.68389
1.04725
1.00052
1
1
1
1
1
1
1
1
1
1
1
3.25707
2.55869
1.36424
1.01914
1.00018
1
1
1
1
1
1
1
1
1
1
2.93411
2.87228
1.98067
1.1523
1.00521
1.00005
1
1
1
1
1
1
1
1
1
2.34889
2.81644
2.52766
1.54129
1.04846
1.00082
1
1
1
1
1
1
1
1
1
1.62214
2.46478
2.5828
2.08511
1.31039
1.03699
1.00187
1.00005
1
1
1
1
1
1
1
1.25416
2.0343
2.50448
2.36632
1.6822
1.10903
1.00453
1.00009
1
1
1
1
1
1
1
0.970401
1.47252
2.18236
2.34852
2.14324
1.43762
1.0443
1.00109
1.00001
1
1
1
1
1
1
0.816999
1.16667
1.69242
2.2452
2.22252
1.84344
1.20433
1.01066
1.00015
1
1
1
1
1
1
0.705419
1.03467
1.34305
1.9172
2.1905
2.11098
1.54692
1.077
1.00241
1.00003
1
1
1
1
1
0.597883
0.874669
1.13326
1.55282
2.05937
2.11266
1.86496
1.26989
1.0189
1.00032
1
1
1
1
1
0.558624
0.720062
0.955969
1.27759
1.79124
2.07891
2.02058
1.57124
1.10203
1.00404
1.00005
1
1
1
1
0.565966
0.669354
0.83318
1.10928
1.48428
1.93036
2.01322
1.82591
1.2911
1.02421
1.00047
1
1
1
1
0.574036
0.643339
0.729839
0.955236
1.25026
1.69208
1.96847
1.93582
1.55473
1.10855
1.0048
1.00006
1
1
1
0.567529
0.622259
0.681619
0.85999
1.06173
1.43048
1.8394
1.92956
1.76729
1.28555
1.02615
1.00057
1.00001
1
1
0.544481
0.593391
0.670929
0.822919
0.955841
1.21274
1.61581
1.8882
1.85984
1.52358
1.10588
1.00483
1.00006
1
1
0.500972
0.550969
0.644983
0.767062
0.878049
1.09581
1.40243
1.76852
1.85421
1.70093
1.26456
1.02579
1.0006
1.00001
1
0.479958
0.538725
0.625843
0.699176
0.782997
0.992678
1.23102
1.58394
1.81854
1.7896
1.47935
1.09393
1.00407
1.00005
1
0.468095
0.532893
0.611691
0.658048
0.73669
0.906268
1.08055
1.38549
1.71851
1.78547
1.63592
1.23361
1.02265
1.00054
1.00001
0.461459
0.516598
0.586105
0.623717
0.71118
0.848421
0.971839
1.225
1.55388
1.75685
1.72307
1.42217
1.07955
1.00338
1.00004
0.478497
0.486009
0.548268
0.600055
0.701129
0.796417
0.876902
1.09196
1.38331
1.67793
1.72183
1.58068
1.19802
1.01718
1.0004
0.569679
0.487988
0.512843
0.584702
0.684376
0.747817
0.808989
0.988477
1.22218
1.54098
1.70338
1.66115
1.36666
1.06627
1.00265
0.752324
0.524346
0.516843
0.567832
0.654634
0.701659
0.776498
0.930735
1.09398
1.38265
1.64461
1.66215
1.51361
1.16204
1.01384
0.890268
0.639849
0.53139
0.554541
0.617496
0.656589
0.745702
0.889329
1.00059
1.22875
1.52908
1.65116
1.61107
1.31216
1.05096
0.939307
0.789471
0.575717
0.543718
0.567248
0.626666
0.730964
0.839345
0.928022
1.12414
1.39711
1.61598
1.61057
1.44512
1.13642
0.95263
0.911374
0.746816
0.578009
0.570891
0.608042
0.694929
0.760704
0.834118
1.0002
1.19719
1.46334
1.58764
1.55204
1.38982
0.873749
0.772174
0.64594
0.556611
0.524715
0.518502
0.512103
0.500071
0.493401
0.467472
0.436114
0.424515
0.426488
0.457684
0.613601
0.839637
0.883421
0.936023
0.97227
0.962732
0.686591
0.616384
0.531679
0.483031
0.46581
0.467154
0.470577
0.46403
0.446695
0.422199
0.392887
0.398506
0.44188
0.618459
0.837261
0.941662
0.920255
0.932209
0.965609
0.965756
0.532545
0.490149
0.45696
0.434331
0.42514
0.430508
0.433462
0.426078
0.409109
0.381721
0.382627
0.438758
0.626983
0.851132
0.925268
0.949439
0.941723
0.934867
0.955449
0.965326
0.404003
0.393123
0.392069
0.38508
0.379594
0.383719
0.383891
0.381239
0.36732
0.365043
0.439176
0.649412
0.846156
0.94667
0.937018
0.944593
0.944541
0.937856
0.945905
0.96228
0.308572
0.313348
0.341312
0.344435
0.337653
0.340278
0.346874
0.33758
0.359201
0.465488
0.683047
0.856686
0.918583
0.947645
0.93887
0.942258
0.949396
0.949188
0.950577
0.959314
0.23143
0.255131
0.276041
0.298102
0.300434
0.295866
0.32489
0.428913
0.603957
0.768074
0.882429
0.915499
0.931965
0.937667
0.93505
0.940714
0.950564
0.952596
0.953901
0.958577
0.186116
0.213941
0.241684
0.244437
0.261867
0.350835
0.564639
0.734779
0.81548
0.889621
0.93228
0.92904
0.928531
0.932711
0.935969
0.943364
0.957392
0.962031
0.962404
0.960237
0.138619
0.157853
0.228719
0.326106
0.522537
0.695133
0.760812
0.828664
0.884299
0.928515
0.933056
0.93758
0.934606
0.933288
0.937803
0.94981
0.963417
0.966558
0.966506
0.961466
0.310317
0.411588
0.546776
0.686547
0.749493
0.822736
0.825541
0.840511
0.883859
0.928641
0.938903
0.943018
0.937508
0.938822
0.95103
0.962337
0.96761
0.967821
0.964677
0.95933
0.559843
0.631491
0.724609
0.816763
0.80853
0.821457
0.829359
0.853869
0.897934
0.938834
0.946427
0.945931
0.938551
0.945845
0.963702
0.96206
0.96322
0.960581
0.954833
0.956319
)
;

boundaryField
{
    inlet
    {
        type            fixedValue;
        value           uniform 1;
    }
    outlet
    {
        type            zeroGradient;
    }
    airfoil
    {
        type            zeroGradient;
    }
    top
    {
        type            symmetryPlane;
    }
    bottom
    {
        type            symmetryPlane;
    }
    defaultFaces
    {
        type            empty;
    }
}


// ************************************************************************* //
