/*--------------------------------*- C++ -*----------------------------------*\
  =========                 |
  \\      /  F ield         | OpenFOAM: The Open Source CFD Toolbox
   \\    /   O peration     | Website:  https://openfoam.org
    \\  /    A nd           | Version:  7
     \\/     M anipulation  |
\*---------------------------------------------------------------------------*/
FoamFile
{
    version     2.0;
    format      ascii;
    class       volScalarField;
    location    "7.8";
    object      rho;
}
// * * * * * * * * * * * * * * * * * * * * * * * * * * * * * * * * * * * * * //

dimensions      [1 -3 0 0 0 0 0];

internalField   nonuniform List<scalar> 
3700
(
0.154239
0.266859
0.355843
0.434991
0.505342
0.549771
0.545064
0.5465
0.559702
0.588544
0.60798
0.635025
0.655135
0.650244
0.672537
0.685102
0.694242
0.706439
0.699084
0.693003
0.09364
0.120975
0.165462
0.19098
0.183725
0.167106
0.150034
0.125486
0.120177
0.139616
0.18649
0.241462
0.278829
0.288014
0.291951
0.297065
0.300614
0.286687
0.267301
0.240808
0.0829875
0.100808
0.11394
0.107748
0.0863482
0.0685626
0.0660718
0.0699044
0.0789017
0.0901525
0.104766
0.117176
0.132564
0.148546
0.15555
0.157219
0.157398
0.157021
0.15829
0.169606
0.0835677
0.103997
0.104678
0.0933908
0.0718275
0.0677368
0.0671902
0.0715413
0.0801501
0.0930564
0.108967
0.12339
0.142545
0.170018
0.194668
0.21555
0.228293
0.230088
0.226622
0.230843
0.0787467
0.0970144
0.09421
0.08565
0.0780852
0.0830452
0.0893486
0.0998067
0.112464
0.13222
0.126788
0.133092
0.144202
0.171745
0.205183
0.239498
0.270554
0.294156
0.311377
0.316532
0.0747952
0.0927171
0.0909392
0.08343
0.0809855
0.093733
0.107667
0.128428
0.154329
0.183135
0.183515
0.195372
0.189157
0.195338
0.212425
0.249795
0.29691
0.347652
0.390893
0.447204
0.071722
0.0909245
0.0897603
0.0793739
0.0776194
0.0931625
0.109084
0.13777
0.180148
0.215015
0.246185
0.269771
0.281239
0.296795
0.299096
0.312598
0.337729
0.395266
0.463458
0.578038
0.0770251
0.0864812
0.0819867
0.0725305
0.0744688
0.0884039
0.104116
0.134495
0.18292
0.233798
0.287081
0.323321
0.372425
0.412627
0.445841
0.476818
0.503685
0.537173
0.589971
0.745875
0.0908635
0.0784193
0.0718507
0.0717187
0.0837181
0.102045
0.113975
0.139487
0.17925
0.234924
0.305918
0.361842
0.443316
0.509279
0.578261
0.647742
0.711183
0.770912
0.8247
1.00653
0.0979694
0.06976
0.06864
0.0846944
0.11269
0.143341
0.171691
0.214688
0.256253
0.295032
0.346406
0.418731
0.517778
0.609798
0.707948
0.823601
0.942371
1.05321
1.15691
1.32881
0.0988675
0.0609734
0.0697453
0.0946457
0.122121
0.17168
0.239243
0.314497
0.39457
0.485531
0.564312
0.649252
0.734706
0.826244
0.915486
1.04055
1.21486
1.38008
1.63948
1.59631
0.0944983
0.0511652
0.0630457
0.081495
0.108889
0.173094
0.272569
0.373091
0.503993
0.670906
0.807549
0.942572
1.07529
1.20045
1.31453
1.45459
1.63172
1.82483
2.1626
2.1227
0.0742719
0.0422068
0.0452775
0.0610624
0.0976683
0.16379
0.274033
0.400097
0.585852
0.833838
1.05364
1.26186
1.46598
1.64547
1.85451
2.08079
2.3039
2.53515
2.90229
2.89814
0.0506395
0.0345692
0.038198
0.0548498
0.0988916
0.219632
0.378377
0.597509
0.917862
1.23422
1.52545
1.77971
2.03409
2.27807
2.59556
2.92729
3.25324
3.58278
3.87965
4.18048
0.0342118
0.029605
0.0363802
0.0589446
0.203763
0.563828
0.894459
1.2631
1.70723
2.11499
2.44628
2.7441
3.04038
3.34818
3.75293
4.14141
4.52062
4.85504
5.06597
5.25018
0.0206267
0.0307153
0.0485622
0.185985
0.579419
1.07762
1.57898
2.12963
2.72896
3.249
3.63761
4.02045
4.39536
4.79078
5.23224
5.52525
5.69417
5.743
5.61305
5.43754
0.0153981
0.0449385
0.203812
0.57331
1.26245
1.99957
2.73402
3.51876
4.34812
4.89284
5.23922
5.5727
5.85821
6.06703
6.19539
6.09577
5.80168
5.07432
3.89642
2.64722
0.0386897
0.200756
0.693144
1.63421
2.88532
4.01874
4.95764
5.88679
6.59322
6.71722
6.61757
6.60734
6.54473
6.30357
5.58751
4.25442
2.90848
1.8626
1.42622
1.39004
0.430921
1.20921
2.77213
4.45894
5.83568
6.70394
7.50184
8.16795
7.96768
7.33643
6.7383
5.99961
4.7262
3.24905
1.9989
1.44324
1.3853
1.39296
1.39628
1.39922
3.22377
5.06159
6.80513
7.88997
8.56637
8.89227
9.08989
8.67889
6.32109
4.45668
3.29061
2.16907
1.50475
1.38173
1.38983
1.39473
1.39883
1.39997
1.40003
1.40002
9.65771
9.59457
9.54365
9.50216
9.5996
9.38476
8.35256
3.34745
0.881796
1.40001
1.40001
1.40001
1.40001
1.40001
1.40001
1.40001
1.40001
1.40001
1.40001
1.40001
9.64149
9.56008
9.4702
9.35655
9.32593
8.0314
3.69478
1.4374
1.40001
1.40001
1.40001
1.40001
1.40001
1.40001
1.40001
1.40001
1.40001
1.40001
1.40001
1.40001
9.44535
9.49939
9.47744
9.35588
8.97657
4.60107
1.43154
1.39949
1.40001
1.40001
1.40001
1.40001
1.40001
1.40001
1.40001
1.40001
1.40001
1.40001
1.40001
1.40001
9.28737
9.46226
9.45214
9.06341
6.48966
1.9355
1.39315
1.40013
1.4
1.40001
1.40001
1.40001
1.40001
1.40001
1.40001
1.40001
1.40001
1.40001
1.40001
1.40001
9.08786
9.46576
9.44014
8.32366
3.89589
1.36433
1.40049
1.4
1.40001
1.40001
1.40001
1.40001
1.40001
1.40001
1.40001
1.40001
1.40001
1.40001
1.40001
1.40001
8.9094
9.42642
9.46179
7.01767
2.02278
1.40001
1.40001
1.40001
1.40001
1.40001
1.40001
1.40001
1.40001
1.40001
1.40001
1.40001
1.40001
1.40001
1.40001
1.40001
8.81197
9.24452
9.26003
4.87034
1.36333
1.40001
1.40001
1.40001
1.40001
1.40001
1.40001
1.40001
1.40001
1.40001
1.40001
1.40001
1.40001
1.40001
1.40001
1.40001
8.97499
9.16207
8.34161
2.87629
1.4
1.40001
1.40001
1.40001
1.40001
1.40001
1.40001
1.40001
1.40001
1.40001
1.40001
1.40001
1.40001
1.40001
1.40001
1.40001
9.70776
9.29788
6.80294
1.63261
1.40001
1.40001
1.40001
1.40001
1.40001
1.40001
1.40001
1.40001
1.40001
1.40001
1.40001
1.40001
1.40001
1.40001
1.40001
1.40001
10.0519
8.84956
4.8353
1.38334
1.40001
1.40001
1.40001
1.40001
1.40001
1.40001
1.40001
1.40001
1.40001
1.40001
1.40001
1.40001
1.40001
1.40001
1.40001
1.40001
10.2713
8.29745
3.25108
1.40001
1.40001
1.40001
1.40001
1.40001
1.40001
1.40001
1.40001
1.40001
1.40001
1.40001
1.40001
1.40001
1.40001
1.40001
1.40001
1.40001
10.3624
7.53028
2.2424
1.40001
1.40001
1.40001
1.40001
1.40001
1.40001
1.40001
1.40001
1.40001
1.40001
1.40001
1.40001
1.40001
1.40001
1.40001
1.40001
1.40001
10.4194
6.58298
1.6508
1.40001
1.40001
1.40001
1.40001
1.40001
1.40001
1.40001
1.40001
1.40001
1.40001
1.40001
1.40001
1.40001
1.40001
1.40001
1.40001
1.40001
10.2534
5.56485
1.41705
1.40001
1.40001
1.40001
1.40001
1.40001
1.40001
1.40001
1.40001
1.40001
1.40001
1.40001
1.40001
1.40001
1.40001
1.40001
1.40001
1.40001
10.0466
4.39241
1.40001
1.40001
1.40001
1.40001
1.40001
1.40001
1.40001
1.40001
1.40001
1.40001
1.40001
1.40001
1.40001
1.40001
1.40001
1.40001
1.40001
1.40001
9.52991
3.51069
1.40001
1.40001
1.40001
1.40001
1.40001
1.40001
1.40001
1.40001
1.40001
1.40001
1.40001
1.40001
1.40001
1.40001
1.40001
1.40001
1.40001
1.40001
9.2384
2.70815
1.40001
1.40001
1.40001
1.40001
1.40001
1.40001
1.40001
1.40001
1.40001
1.40001
1.40001
1.40001
1.40001
1.40001
1.40001
1.40001
1.40001
1.40001
8.82534
1.9207
1.40001
1.40001
1.40001
1.40001
1.40001
1.40001
1.40001
1.40001
1.40001
1.40001
1.40001
1.40001
1.40001
1.40001
1.40001
1.40001
1.40001
1.40001
7.84097
1.40783
1.40001
1.40001
1.40001
1.40001
1.40001
1.40001
1.40001
1.40001
1.40001
1.40001
1.40001
1.40001
1.40001
1.40001
1.40001
1.40001
1.40001
1.40001
6.4647
1.40007
1.40001
1.40001
1.40001
1.40001
1.40001
1.40001
1.40001
1.40001
1.40001
1.40001
1.40001
1.40001
1.40001
1.40001
1.40001
1.40001
1.40001
1.40001
6.47376
1.40007
1.40001
1.40001
1.40001
1.40001
1.40001
1.40001
1.40001
1.40001
1.40001
1.40001
1.40001
1.40001
1.40001
1.40001
1.40001
1.40001
1.40001
1.40001
7.83231
1.40752
1.40001
1.40001
1.40001
1.40001
1.40001
1.40001
1.40001
1.40001
1.40001
1.40001
1.40001
1.40001
1.40001
1.40001
1.40001
1.40001
1.40001
1.40001
8.81089
1.91229
1.40001
1.40001
1.40001
1.40001
1.40001
1.40001
1.40001
1.40001
1.40001
1.40001
1.40001
1.40001
1.40001
1.40001
1.40001
1.40001
1.40001
1.40001
9.26843
2.70686
1.40001
1.40001
1.40001
1.40001
1.40001
1.40001
1.40001
1.40001
1.40001
1.40001
1.40001
1.40001
1.40001
1.40001
1.40001
1.40001
1.40001
1.40001
9.52958
3.53842
1.40001
1.40001
1.40001
1.40001
1.40001
1.40001
1.40001
1.40001
1.40001
1.40001
1.40001
1.40001
1.40001
1.40001
1.40001
1.40001
1.40001
1.40001
10.0077
4.39516
1.40001
1.40001
1.40001
1.40001
1.40001
1.40001
1.40001
1.40001
1.40001
1.40001
1.40001
1.40001
1.40001
1.40001
1.40001
1.40001
1.40001
1.40001
10.2746
5.55216
1.41052
1.40001
1.40001
1.40001
1.40001
1.40001
1.40001
1.40001
1.40001
1.40001
1.40001
1.40001
1.40001
1.40001
1.40001
1.40001
1.40001
1.40001
10.4382
6.57141
1.6466
1.40001
1.40001
1.40001
1.40001
1.40001
1.40001
1.40001
1.40001
1.40001
1.40001
1.40001
1.40001
1.40001
1.40001
1.40001
1.40001
1.40001
10.37
7.52634
2.23434
1.40001
1.40001
1.40001
1.40001
1.40001
1.40001
1.40001
1.40001
1.40001
1.40001
1.40001
1.40001
1.40001
1.40001
1.40001
1.40001
1.40001
10.2641
8.31228
3.24838
1.40001
1.40001
1.40001
1.40001
1.40001
1.40001
1.40001
1.40001
1.40001
1.40001
1.40001
1.40001
1.40001
1.40001
1.40001
1.40001
1.40001
10.0267
8.83676
4.87053
1.38322
1.40001
1.40001
1.40001
1.40001
1.40001
1.40001
1.40001
1.40001
1.40001
1.40001
1.40001
1.40001
1.40001
1.40001
1.40001
1.40001
9.69221
9.31
6.82286
1.62593
1.40001
1.40001
1.40001
1.40001
1.40001
1.40001
1.40001
1.40001
1.40001
1.40001
1.40001
1.40001
1.40001
1.40001
1.40001
1.40001
8.98541
9.164
8.35809
2.87826
1.4
1.40001
1.40001
1.40001
1.40001
1.40001
1.40001
1.40001
1.40001
1.40001
1.40001
1.40001
1.40001
1.40001
1.40001
1.40001
8.80866
9.23975
9.22546
4.83741
1.36378
1.40001
1.40001
1.40001
1.40001
1.40001
1.40001
1.40001
1.40001
1.40001
1.40001
1.40001
1.40001
1.40001
1.40001
1.40001
8.89219
9.41146
9.4752
7.04746
2.00118
1.40001
1.40001
1.40001
1.40001
1.40001
1.40001
1.40001
1.40001
1.40001
1.40001
1.40001
1.40001
1.40001
1.40001
1.40001
9.07029
9.46887
9.45663
8.35735
3.92566
1.36372
1.40049
1.4
1.40001
1.40001
1.40001
1.40001
1.40001
1.40001
1.40001
1.40001
1.40001
1.40001
1.40001
1.40001
9.28339
9.46734
9.45115
8.97714
6.48734
1.95643
1.39326
1.40012
1.4
1.40001
1.40001
1.40001
1.40001
1.40001
1.40001
1.40001
1.40001
1.40001
1.40001
1.40001
9.45004
9.5035
9.47717
9.35897
8.9926
4.58885
1.43073
1.39956
1.40001
1.40001
1.40001
1.40001
1.40001
1.40001
1.40001
1.40001
1.40001
1.40001
1.40001
1.40001
9.64838
9.56381
9.47636
9.38391
9.37822
8.0321
3.6736
1.43463
1.40001
1.40001
1.40001
1.40001
1.40001
1.40001
1.40001
1.40001
1.40001
1.40001
1.40001
1.40001
9.66755
9.60013
9.54476
9.50346
9.58887
9.38572
8.35917
3.34803
0.87909
1.40001
1.40001
1.40001
1.40001
1.40001
1.40001
1.40001
1.40001
1.40001
1.40001
1.40001
3.2265
5.0724
6.83223
7.90412
8.54092
8.87416
9.08102
8.67892
6.32783
4.4651
3.29915
2.17485
1.50619
1.38182
1.38983
1.39472
1.39882
1.39997
1.40003
1.40002
0.423771
1.17256
2.70261
4.43798
5.84682
6.70674
7.49319
8.16533
7.96636
7.33473
6.73541
5.99795
4.72517
3.24845
1.99905
1.44341
1.38534
1.39298
1.39629
1.39922
0.0581739
0.248909
0.762935
1.63734
2.84982
4.00124
4.95393
5.89044
6.5903
6.71187
6.6028
6.60285
6.54328
6.30594
5.59261
4.25691
2.90642
1.86016
1.42565
1.39004
0.00869499
0.0416695
0.167554
0.592321
1.2817
1.99357
2.72535
3.51663
4.34284
4.88325
5.22504
5.56138
5.85542
6.0721
6.19661
6.09554
5.79972
5.0702
3.89297
2.64588
0.0151923
0.0323922
0.0483438
0.193242
0.586566
1.08207
1.58697
2.13842
2.73323
3.24872
3.63074
4.01301
4.39341
4.79353
5.23503
5.52474
5.6922
5.74312
5.61334
5.43857
0.0266181
0.0308745
0.0488641
0.0687599
0.209397
0.57211
0.900071
1.26935
1.71487
2.12131
2.44819
2.74589
3.04398
3.35191
3.75549
4.14181
4.51927
4.85421
5.06723
5.2522
0.0422543
0.0321531
0.0518353
0.063669
0.102195
0.222552
0.37977
0.597663
0.916751
1.23459
1.52871
1.78557
2.04043
2.28319
2.59883
2.92825
3.25252
3.58121
3.87851
4.18153
0.0619768
0.0409439
0.0532699
0.0660716
0.0995086
0.160471
0.273847
0.397856
0.582214
0.831236
1.05392
1.26512
1.47007
1.64885
1.85613
2.08036
2.30185
2.53243
2.89968
2.89905
0.0819732
0.0509006
0.0616248
0.0817127
0.111392
0.168455
0.272863
0.371525
0.502845
0.671239
0.808672
0.943941
1.07622
1.20034
1.31383
1.45307
1.62981
1.82261
2.16057
2.1208
0.0880217
0.0582316
0.0661003
0.094124
0.124682
0.167026
0.238484
0.313458
0.394429
0.486605
0.565438
0.648927
0.733524
0.824734
0.914703
1.04029
1.21427
1.37898
1.63782
1.59399
0.0896642
0.0643398
0.0634835
0.0835018
0.113761
0.139202
0.171448
0.216168
0.259315
0.295852
0.345064
0.416118
0.515777
0.609346
0.708664
0.824062
0.94145
1.05121
1.15513
1.32861
0.0877047
0.0716233
0.0662982
0.0692068
0.0839135
0.0996441
0.117377
0.144488
0.180981
0.232536
0.303018
0.359812
0.442819
0.509561
0.578528
0.646953
0.709287
0.768265
0.823187
1.00774
0.0770555
0.0791954
0.077283
0.0699116
0.0745627
0.0939449
0.108812
0.136029
0.181098
0.231385
0.285396
0.323041
0.373251
0.413759
0.446391
0.476901
0.503505
0.53762
0.59177
0.748538
0.0696834
0.0852485
0.0855453
0.0769833
0.0791967
0.0991372
0.110823
0.137253
0.17706
0.21386
0.246503
0.271463
0.282614
0.298106
0.300087
0.313656
0.339897
0.398337
0.465332
0.579246
0.0700892
0.0877191
0.0884587
0.0808661
0.0824596
0.0984547
0.106805
0.127165
0.152993
0.184495
0.184847
0.196911
0.189727
0.195595
0.214096
0.252436
0.298727
0.348397
0.390927
0.44672
0.075754
0.0910122
0.0891456
0.0804294
0.0768985
0.0848723
0.0878378
0.100388
0.113867
0.133645
0.128485
0.134024
0.145703
0.174456
0.207511
0.240726
0.270414
0.293298
0.309724
0.315153
0.0864008
0.0996514
0.0989348
0.0873567
0.0702209
0.0674393
0.0682711
0.0730273
0.0808681
0.0938491
0.110151
0.124954
0.144641
0.172067
0.195808
0.21545
0.226601
0.228078
0.224943
0.229791
0.0832362
0.0955422
0.10942
0.106408
0.0878919
0.0692436
0.0684413
0.0718558
0.0791538
0.0902649
0.104902
0.117696
0.133342
0.148543
0.154868
0.156405
0.156274
0.156152
0.158225
0.169323
0.0915554
0.111391
0.14031
0.178132
0.206151
0.203044
0.191948
0.203778
0.220736
0.228924
0.214989
0.206544
0.220918
0.251433
0.277376
0.273637
0.266684
0.271052
0.289397
0.321502
0.157863
0.278599
0.337731
0.415606
0.510047
0.569033
0.570325
0.590731
0.627054
0.640597
0.623241
0.609389
0.638787
0.650806
0.677464
0.684319
0.693281
0.72507
0.739788
0.75509
0.77182
0.888528
0.997954
1.13872
1.12646
1.15023
1.14748
1.18695
1.24728
1.28194
1.29042
1.29138
1.28943
1.30588
1.33703
1.34283
1.32651
1.31966
1.32159
1.32949
0.380639
0.592993
0.756762
0.975996
1.05561
1.13484
1.14544
1.18514
1.24517
1.27994
1.30081
1.30468
1.29297
1.29354
1.31593
1.33405
1.33473
1.33044
1.32229
1.32491
0.193753
0.229867
0.325686
0.477654
0.762077
0.957548
1.0543
1.16635
1.23825
1.26414
1.28477
1.29417
1.2944
1.30129
1.31199
1.32639
1.33189
1.33258
1.33026
1.3284
0.260401
0.29891
0.337313
0.341603
0.376035
0.489773
0.765789
1.02516
1.14293
1.22073
1.27804
1.28866
1.28832
1.30276
1.31547
1.32364
1.33138
1.3326
1.33396
1.33376
0.322456
0.360305
0.384598
0.410941
0.42064
0.414044
0.44425
0.577481
0.847397
1.09162
1.21898
1.27613
1.28965
1.31376
1.31993
1.32435
1.32951
1.32907
1.32993
1.3339
0.431525
0.44246
0.476762
0.474693
0.467676
0.475711
0.483195
0.470984
0.506257
0.676149
0.958696
1.20505
1.27313
1.3187
1.31512
1.32398
1.33187
1.32914
1.32698
1.33673
0.565382
0.558271
0.545691
0.530999
0.532411
0.541394
0.541357
0.536721
0.520355
0.519814
0.622559
0.90415
1.16326
1.31457
1.30858
1.32197
1.32688
1.31695
1.32413
1.33975
0.742537
0.703206
0.641627
0.581851
0.574866
0.591737
0.603039
0.596106
0.575333
0.546554
0.539811
0.607902
0.876608
1.16911
1.27024
1.32651
1.3209
1.31053
1.33402
1.34487
0.958109
0.870128
0.751718
0.667764
0.639539
0.651802
0.662803
0.651041
0.628114
0.600186
0.555922
0.558078
0.616381
0.860264
1.16507
1.31239
1.28484
1.30222
1.34604
1.34682
1.21399
1.08283
0.917594
0.780198
0.726077
0.717344
0.719706
0.697949
0.687385
0.654319
0.610407
0.585534
0.588712
0.634542
0.850376
1.16423
1.23295
1.3078
1.35692
1.34339
1.73803
1.34781
1.15433
0.997002
0.834895
0.77976
0.790308
0.792258
0.781096
0.761863
0.701984
0.661942
0.650385
0.635914
0.660677
0.790062
1.0467
1.24257
1.31418
1.33066
2.84248
2.03124
1.61059
1.45068
1.22379
1.00192
0.941516
0.897889
0.860759
0.835605
0.792582
0.759241
0.749068
0.726671
0.678184
0.678771
0.731733
0.891043
1.10298
1.2725
3.4857
3.03523
2.35031
1.88357
1.58402
1.31309
1.15931
1.03693
0.931804
0.924816
0.915753
0.886449
0.86243
0.81822
0.766438
0.725786
0.729459
0.74563
0.805016
1.04305
3.29636
3.27002
3.12522
2.66478
2.17497
1.78208
1.53292
1.36294
1.19057
1.12869
1.06328
0.985788
0.923791
0.868752
0.837226
0.819723
0.797414
0.77588
0.75964
0.809303
2.3508
2.98307
3.09682
3.05151
2.87333
2.50773
2.05699
1.74615
1.49772
1.33653
1.21726
1.09712
1.01961
0.993479
0.979027
0.954946
0.915845
0.866428
0.798109
0.799766
1.55171
2.00846
2.57333
2.94549
2.94699
2.90111
2.69331
2.3503
1.9979
1.69699
1.53065
1.37884
1.26182
1.18209
1.10983
1.04372
0.98626
0.926058
0.878172
0.847688
1.40631
1.46178
1.68497
2.16199
2.6054
2.82174
2.80951
2.7442
2.56556
2.25156
1.95717
1.71836
1.50723
1.36329
1.23078
1.12033
1.08117
1.04738
1.02609
0.97189
1.40013
1.40153
1.41493
1.50733
1.77638
2.19628
2.55098
2.70219
2.69281
2.63522
2.46731
2.2104
1.93129
1.71398
1.53394
1.37734
1.29453
1.24562
1.17854
1.06368
1.40001
1.40002
1.40022
1.40337
1.42635
1.5425
1.8062
2.17295
2.46942
2.59803
2.58915
2.53953
2.40141
2.16824
1.93261
1.71279
1.52864
1.39696
1.29982
1.16851
1.40001
1.40001
1.40001
1.40004
1.40046
1.40567
1.43383
1.55152
1.79849
2.13059
2.37665
2.50081
2.49475
2.45455
2.34396
2.15472
1.93482
1.71603
1.57244
1.40201
1.40001
1.40001
1.40001
1.40001
1.40001
1.40007
1.40066
1.40675
1.43638
1.54815
1.76908
2.06943
2.28644
2.40731
2.40588
2.38085
2.29816
2.13705
1.95316
1.67483
1.40001
1.40001
1.40001
1.40001
1.40001
1.40001
1.40001
1.40009
1.40079
1.40679
1.43612
1.53069
1.72641
1.98782
2.21091
2.32356
2.32339
2.30733
2.25779
2.04571
1.40001
1.40001
1.40001
1.40001
1.40001
1.40001
1.40001
1.40001
1.40001
1.4001
1.40085
1.40565
1.43169
1.51139
1.67545
1.91059
2.11801
2.25359
2.25116
2.21908
1.40001
1.40001
1.40001
1.40001
1.40001
1.40001
1.40001
1.40001
1.40001
1.40001
1.40001
1.40008
1.40076
1.40475
1.42383
1.49237
1.62669
1.83606
2.02114
2.1702
1.40001
1.40001
1.40001
1.40001
1.40001
1.40001
1.40001
1.40001
1.40001
1.40001
1.40001
1.40001
1.40001
1.40007
1.40057
1.40371
1.41939
1.47121
1.59036
1.94385
2.25919
3.42675
3.59392
2.90724
1.83194
1.45156
1.40262
1.40007
1.40001
1.40001
1.40001
1.40001
1.40001
1.40001
1.40001
3.26454
3.917
3.52045
2.15335
1.46754
1.40115
1.40001
1.4
1.40001
1.40001
1.40001
1.40001
1.40001
1.40001
1.40001
4.07905
3.99512
2.76266
1.61202
1.40726
1.40007
1.40001
1.40001
1.40001
1.40001
1.40001
1.40001
1.40001
1.40001
1.40001
4.52608
3.56286
1.9068
1.42669
1.40026
1.40001
1.40001
1.40001
1.40001
1.40001
1.40001
1.40001
1.40001
1.40001
1.40001
4.61909
2.35092
1.46593
1.40073
1.40001
1.40001
1.40001
1.40001
1.40001
1.40001
1.40001
1.40001
1.40001
1.40001
1.40001
2.88319
1.50183
1.40067
1.4
1.4
1.4
1.40001
1.40001
1.40001
1.40001
1.40001
1.40001
1.40001
1.40001
1.40001
1.54319
1.40079
1.4
1.4
1.40001
1.40001
1.40001
1.40001
1.40001
1.40001
1.40001
1.40001
1.40001
1.40001
1.40001
1.39741
1.39982
1.4
1.40001
1.40001
1.40001
1.40001
1.40001
1.40001
1.40001
1.40001
1.40001
1.40001
1.40001
1.40001
1.39996
1.40001
1.40001
1.40001
1.40001
1.40001
1.40001
1.40001
1.40001
1.40001
1.40001
1.40001
1.40001
1.40001
1.40001
1.40001
1.40001
1.40001
1.40001
1.40001
1.40001
1.40001
1.40001
1.40001
1.40001
1.40001
1.40001
1.40001
1.40001
1.40001
1.40001
1.40001
1.40001
1.40001
1.40001
1.40001
1.40001
1.40001
1.40001
1.40001
1.40001
1.40001
1.40001
1.40001
1.40001
1.40001
1.40001
1.40001
1.40001
1.40001
1.40001
1.40001
1.40001
1.40001
1.40001
1.40001
1.40001
1.40001
1.40001
1.40001
1.40001
1.40001
1.40001
1.40001
1.40001
1.40001
1.40001
1.40001
1.40001
1.40001
1.40001
1.40001
1.40001
1.40001
1.40001
1.40001
1.40001
1.40001
1.40001
1.40001
1.40001
1.40001
1.40001
1.40001
1.40001
1.40001
1.40001
1.40001
1.40001
1.40001
1.40001
1.40001
1.40001
1.40001
1.40001
1.40001
1.40001
1.40001
1.40001
1.40001
1.40001
1.40001
1.40001
1.40001
1.40001
1.40001
1.40001
1.40001
1.40001
1.40001
1.40001
1.40001
1.40001
1.40001
1.40001
1.40001
1.40001
1.40001
1.40001
1.40001
1.40001
1.40001
1.40001
1.40001
1.40001
1.40001
1.40001
1.40001
1.40001
1.40001
1.40001
1.40001
1.40001
1.40001
1.40001
1.40001
1.40001
1.40001
1.40001
1.40001
1.40001
1.40001
1.40001
1.40001
1.40001
1.40001
1.40001
1.40001
1.40001
1.40001
1.40001
1.40001
1.40001
1.40001
1.40001
1.40001
1.40001
1.40001
1.40001
1.40001
1.40001
1.40001
1.40001
1.40001
1.40001
1.40001
1.40001
1.40001
1.40001
1.40001
1.40001
1.40001
1.40001
1.40001
1.40001
1.40001
1.40001
1.40001
1.40001
1.40001
1.40001
1.40001
1.40001
1.40001
1.40001
1.40001
1.40001
1.40001
1.40001
1.40001
1.40001
1.40001
1.40001
1.40001
1.40001
1.40001
1.40001
1.40001
1.40001
1.40001
1.40001
1.40001
1.40001
1.40001
1.40001
1.40001
1.40001
1.40001
1.40001
1.40001
1.40001
1.40001
1.40001
1.40001
1.40001
1.40001
1.40001
1.40001
1.40001
1.40001
1.40001
1.40001
1.40001
1.40001
1.40001
1.40001
1.40001
1.40001
1.40001
1.40001
1.40001
1.40001
1.40001
1.40001
1.40001
1.40001
1.40001
1.40001
1.40001
1.40001
1.40001
1.40001
1.40001
1.40001
1.40001
1.40001
1.40001
1.40001
1.40001
1.40001
1.40001
1.40001
1.40001
1.40001
1.40001
1.40001
1.40001
1.40001
1.40001
1.40001
1.40001
1.40001
1.40001
1.40001
1.40001
1.40001
1.40001
1.40001
1.40001
1.40001
1.40001
1.40001
1.40001
1.40001
1.40001
1.40001
1.40001
1.40001
1.40001
1.40001
1.40001
1.40001
1.40001
1.40001
1.40001
1.40001
1.40001
1.40001
1.40001
1.40001
1.40001
1.40001
1.40001
1.40001
1.40001
1.40001
1.40001
1.40001
1.40001
1.40001
1.40001
1.40001
1.40001
1.40001
1.40001
1.40001
1.40001
1.40001
1.40001
1.40001
1.40001
1.40001
1.40001
1.40001
1.40001
1.40001
1.40001
1.40001
1.40001
1.40001
1.40001
1.40001
1.40001
1.40001
1.40001
1.40001
1.40001
1.40001
1.40001
1.40001
1.40001
1.40001
1.40001
1.40001
1.40001
1.40001
1.40001
1.40001
1.40001
1.40001
1.40001
1.40001
1.40001
1.40001
1.40001
1.40001
1.40001
1.40001
1.40001
1.40001
1.40001
1.40001
1.40001
1.40001
1.40001
1.40001
1.40001
1.40001
1.40001
1.40001
1.40001
1.40001
1.40001
1.40001
1.40001
1.40001
1.40001
1.40001
1.40001
1.40001
1.40001
1.40001
1.40001
1.40001
1.40001
1.40001
1.40001
1.40001
1.40001
1.40001
1.40001
1.40001
1.40001
1.40001
1.40001
1.40001
1.40001
1.40001
1.40001
1.40001
1.40001
1.40001
1.40001
1.40001
1.40001
1.40001
1.40001
1.40001
1.40001
1.40001
1.40001
1.40001
1.40001
1.40001
1.40001
1.40001
1.40001
1.40001
1.40001
1.40001
1.40001
1.40001
1.40001
1.40001
1.40001
1.40001
1.40001
1.40001
1.40001
1.40001
1.40001
1.40001
1.40001
1.40001
1.40001
1.40001
1.40001
1.40001
1.40001
1.40001
1.40001
1.40001
1.40001
1.40001
1.40001
1.40001
1.40001
1.40001
1.40001
1.40001
1.40001
1.40001
1.40001
1.40001
1.40001
1.40001
1.40001
1.40001
1.40001
1.40001
1.40001
1.40001
1.40001
1.40001
1.40001
1.40001
1.40001
1.40001
1.40001
1.40001
1.40001
1.40001
1.40001
1.40001
1.40001
1.40001
1.40001
1.40001
1.40001
1.40001
1.40001
1.40001
1.40001
1.40001
1.40001
1.40001
1.40001
1.40001
1.40001
1.40001
1.40001
1.40001
1.40001
1.40001
1.40001
1.40001
1.40001
1.40001
1.40001
1.40001
1.40001
1.40001
1.40001
1.40001
1.40001
1.40001
1.40001
1.40001
1.40001
1.40001
1.40001
1.40001
1.40001
1.40001
1.40001
1.40001
1.40001
1.40001
1.40001
1.40001
1.40001
1.40001
1.40001
1.40001
1.40001
1.40001
1.40001
1.40001
1.40001
1.40001
1.40001
1.40001
1.40001
1.40001
1.40001
1.40001
1.40001
1.40001
1.40001
1.40001
1.40001
1.40001
1.40001
1.40001
1.40001
1.40001
1.40001
1.40001
1.40001
1.40001
1.40001
1.40001
1.40001
1.40001
1.40001
1.40001
1.40001
1.40001
1.40001
1.40001
1.40001
1.40001
1.40001
1.40001
1.40001
1.40001
1.40001
1.40001
1.40001
1.40001
1.40001
1.40001
1.40001
1.40001
1.40001
1.40001
1.40001
1.40001
1.40001
1.40001
1.40001
1.40001
1.40001
1.40001
1.40001
1.40001
1.40001
1.40001
1.40001
1.40001
1.40001
1.40001
1.40001
1.40001
1.40001
1.40001
1.40001
1.40001
1.40001
1.40001
1.40001
1.40001
1.40001
1.40001
1.40001
1.40001
1.40001
1.40001
1.40001
1.40001
1.40001
1.40001
1.40001
1.40001
1.40001
1.40001
1.40001
1.40001
1.40001
1.40001
1.40001
1.40001
1.40001
1.40001
1.40001
1.40001
1.40001
1.40001
1.40001
1.40001
1.40001
1.40001
1.40001
1.40001
1.40001
1.40001
1.40001
1.40001
1.40001
1.40001
1.40001
1.40001
1.40001
1.40001
1.40001
1.40001
1.40001
1.40001
1.40001
1.40001
1.40001
1.40001
1.40001
1.40001
1.40001
1.40001
1.40001
1.40001
1.40001
1.40001
1.40001
1.40001
1.40001
1.40001
1.40001
1.40001
1.40001
1.40001
1.40001
1.40001
1.40001
1.40001
1.40001
1.40001
1.40001
1.40001
1.40001
1.40001
1.40001
1.40001
1.40001
1.40001
1.40001
1.40001
1.40001
1.40001
1.40001
1.40001
1.40001
1.40001
1.40001
1.40001
1.40001
1.40001
1.40001
1.40001
1.40001
1.40001
1.40001
1.40001
1.40001
1.40001
1.40001
1.40001
1.40001
1.40001
1.40001
1.40001
1.40001
1.40001
1.40001
1.40001
1.40001
1.40001
1.40001
1.40001
1.40001
1.40001
1.40001
1.40001
1.40001
1.40001
1.40001
1.40001
1.40001
1.40001
1.40001
1.40001
1.40001
1.40001
1.40001
1.40001
1.40001
1.40001
1.40001
1.40001
1.40001
1.40001
1.40001
1.40001
1.40001
1.40001
1.40001
1.40001
1.40001
1.40001
1.40001
1.40001
1.40001
1.40001
1.40001
1.40001
1.40001
1.40001
1.40001
1.40001
1.40001
1.40001
1.40001
1.40001
1.40001
1.40001
1.40001
1.40001
1.40001
1.40001
1.40001
1.40001
1.40001
1.40001
1.40001
1.40001
1.40001
1.40001
1.40001
1.40001
1.40001
1.40001
1.40001
1.40001
1.40001
1.40001
1.40001
1.40001
1.40001
1.40001
1.40001
1.40001
1.40001
1.40001
1.40001
1.40001
1.40001
1.40001
1.40001
1.40001
1.40001
1.40001
1.40001
1.40001
1.40001
1.40001
1.40001
1.40001
1.40001
1.40001
1.40001
1.40001
1.40001
1.40001
1.40001
1.40001
1.40001
1.40001
1.40001
1.40001
1.40001
1.40001
1.40001
1.40001
1.40001
1.40001
1.40001
1.40001
1.40001
1.40001
1.40001
1.40001
1.40001
1.40001
1.40001
1.40001
1.40001
1.40001
1.40001
1.40001
1.40001
1.40001
1.40001
1.40001
1.40001
1.40001
1.40001
1.40001
1.40001
1.40001
1.40001
1.40001
1.40001
1.40001
1.40001
1.40001
1.40001
1.40001
1.40001
1.39996
1.40001
1.40001
1.40001
1.40001
1.40001
1.40001
1.40001
1.40001
1.40001
1.40001
1.40001
1.40001
1.40001
1.40001
1.39741
1.39982
1.4
1.40001
1.40001
1.40001
1.40001
1.40001
1.40001
1.40001
1.40001
1.40001
1.40001
1.40001
1.40001
1.54308
1.40079
1.4
1.4
1.40001
1.40001
1.40001
1.40001
1.40001
1.40001
1.40001
1.40001
1.40001
1.40001
1.40001
2.88367
1.50188
1.40067
1.4
1.4
1.40001
1.40001
1.40001
1.40001
1.40001
1.40001
1.40001
1.40001
1.40001
1.40001
4.62049
2.35075
1.46579
1.40072
1.40001
1.40001
1.40001
1.40001
1.40001
1.40001
1.40001
1.40001
1.40001
1.40001
1.40001
4.52733
3.56371
1.90676
1.42667
1.40026
1.40001
1.40001
1.40001
1.40001
1.40001
1.40001
1.40001
1.40001
1.40001
1.40001
4.07903
3.99581
2.76265
1.61204
1.40726
1.40007
1.40001
1.40001
1.40001
1.40001
1.40001
1.40001
1.40001
1.40001
1.40001
3.2665
3.91705
3.52051
2.15313
1.46752
1.40115
1.40001
1.4
1.40001
1.40001
1.40001
1.40001
1.40001
1.40001
1.40001
2.25748
3.42829
3.59402
2.90708
1.83195
1.45154
1.40261
1.40007
1.40001
1.40001
1.40001
1.40001
1.40001
1.40001
1.40001
1.74654
2.83052
3.48508
3.29677
2.34921
1.55197
1.40632
1.40013
1.40001
1.40001
1.40001
1.40001
1.40001
1.40001
1.40001
1.35238
2.05047
3.03745
3.27005
2.98929
2.00976
1.46181
1.40153
1.40002
1.40001
1.40001
1.40001
1.40001
1.40001
1.40001
1.13913
1.6256
2.3568
3.12634
3.0977
2.5743
1.68497
1.41489
1.40022
1.40001
1.40001
1.40001
1.40001
1.40001
1.40001
0.983978
1.44215
1.87137
2.67034
3.05202
2.94551
2.16237
1.50743
1.40337
1.40004
1.40001
1.40001
1.40001
1.40001
1.40001
0.834402
1.21965
1.57974
2.16382
2.86954
2.94631
2.60488
1.77647
1.42638
1.40046
1.40001
1.40001
1.40001
1.40001
1.40001
0.779843
1.00462
1.33317
1.78116
2.49654
2.89843
2.82062
2.19646
1.54237
1.40565
1.40007
1.40001
1.40001
1.40001
1.40001
0.790097
0.934168
1.16239
1.54705
2.06958
2.69161
2.80926
2.55095
1.80609
1.43379
1.40067
1.40001
1.40001
1.40001
1.40001
0.801378
0.898043
1.01866
1.33276
1.74401
2.35993
2.7463
2.7034
2.17362
1.55147
1.40671
1.40009
1.40001
1.40001
1.40001
0.792361
0.868749
0.951612
1.20027
1.48166
1.99583
2.56645
2.69386
2.4696
1.79837
1.4365
1.40079
1.40001
1.40001
1.40001
0.760314
0.828592
0.936757
1.14874
1.33432
1.69276
2.25504
2.63582
2.59815
2.13027
1.54774
1.40675
1.40009
1.40001
1.40001
0.69976
0.769528
0.900669
1.07103
1.22604
1.52995
1.9579
2.46898
2.58965
2.3773
1.7691
1.436
1.40085
1.40001
1.40001
0.670559
0.752548
0.874104
0.976554
1.09368
1.38634
1.71914
2.21175
2.53975
2.50064
2.06865
1.53107
1.40569
1.40008
1.40001
0.654088
0.744511
0.854488
0.919337
1.02923
1.266
1.50951
1.93527
2.40026
2.49441
2.28678
1.72594
1.43161
1.40076
1.40001
0.644907
0.721889
0.818928
0.871566
0.993756
1.18548
1.35804
1.7116
2.17077
2.45446
2.40813
1.98891
1.51102
1.40472
1.40007
0.668693
0.679288
0.766254
0.838649
0.979832
1.11309
1.22576
1.52617
1.93301
2.34439
2.4061
2.20983
1.67629
1.42398
1.40057
0.795742
0.682145
0.716928
0.817323
0.956563
1.04542
1.13112
1.38192
1.70838
2.15343
2.38036
2.32194
1.91149
1.49248
1.4037
1.05
0.732865
0.722582
0.793896
0.915187
0.981117
1.08586
1.30144
1.52963
1.9327
2.29838
2.32312
2.11635
1.6261
1.41931
1.24187
0.893813
0.742977
0.775467
0.863496
0.918296
1.04293
1.24373
1.3994
1.7181
2.13729
2.30779
2.25218
1.83548
1.47111
1.31013
1.1022
0.804849
0.760472
0.793447
0.876604
1.02243
1.17405
1.29819
1.57223
1.95329
2.25873
2.25134
2.02089
1.59034
1.32865
1.27185
1.04325
0.808372
0.798685
0.850742
0.972261
1.06439
1.16719
1.39931
1.67443
2.04586
2.21936
2.16987
1.9437
1.21794
1.07669
0.901093
0.776812
0.732467
0.72388
0.715013
0.698283
0.689022
0.65295
0.609333
0.593253
0.596019
0.639551
0.856675
1.17117
1.23204
1.30512
1.35552
1.34228
0.957692
0.860016
0.74211
0.674391
0.650432
0.652339
0.657136
0.648039
0.623918
0.589846
0.549091
0.556946
0.617412
0.863285
1.16767
1.3128
1.28303
1.29963
1.34605
1.34626
0.74328
0.684313
0.638107
0.606595
0.593797
0.60128
0.605402
0.59513
0.571525
0.533447
0.534751
0.612967
0.874977
1.1867
1.2898
1.32339
1.31267
1.30314
1.33173
1.34545
0.56422
0.549144
0.547714
0.537999
0.530357
0.536095
0.53632
0.53263
0.513289
0.510158
0.613446
0.906046
1.17956
1.3193
1.3059
1.31644
1.31636
1.30706
1.31824