/*--------------------------------*- C++ -*----------------------------------*\
  =========                 |
  \\      /  F ield         | OpenFOAM: The Open Source CFD Toolbox
   \\    /   O peration     | Website:  https://openfoam.org
    \\  /    A nd           | Version:  7
     \\/     M anipulation  |
\*---------------------------------------------------------------------------*/
FoamFile
{
    version     2.0;
    format      ascii;
    class       volScalarField;
    location    "4.3";
    object      rho;
}
// * * * * * * * * * * * * * * * * * * * * * * * * * * * * * * * * * * * * * //

dimensions      [1 -3 0 0 0 0 0];

internalField   nonuniform List<scalar> 
3700
(
0.178613
0.283711
0.369446
0.426089
0.51153
0.572634
0.583294
0.586655
0.5898
0.614299
0.639794
0.65637
0.674008
0.674019
0.673803
0.686186
0.690943
0.701502
0.709018
0.696866
0.10103
0.117197
0.1516
0.16647
0.198937
0.20898
0.202042
0.173571
0.147014
0.164523
0.204375
0.251587
0.298272
0.328141
0.31762
0.308642
0.309374
0.301913
0.287445
0.258476
0.0861307
0.0969026
0.109571
0.10641
0.0919697
0.0729123
0.0695688
0.0720685
0.0778285
0.0888599
0.104251
0.116506
0.131818
0.14662
0.153839
0.157039
0.158874
0.159603
0.160729
0.16952
0.0870108
0.097608
0.100207
0.0889864
0.0725583
0.0697051
0.0721792
0.0731149
0.0786652
0.0900496
0.105412
0.120737
0.140217
0.167371
0.190929
0.212422
0.228282
0.233396
0.231091
0.235305
0.0778152
0.0855812
0.0818544
0.0740323
0.0744243
0.0819817
0.0888867
0.0978924
0.10961
0.13101
0.125216
0.130423
0.140917
0.167985
0.200969
0.235269
0.267469
0.293417
0.31385
0.322347
0.0667362
0.0781483
0.0794545
0.0759561
0.0820858
0.0971914
0.106213
0.125254
0.153932
0.1836
0.184213
0.196172
0.188929
0.194063
0.209477
0.244892
0.291513
0.344222
0.388858
0.44939
0.0639803
0.0774497
0.0793561
0.076806
0.0841768
0.104767
0.110739
0.135099
0.181283
0.216151
0.247647
0.272116
0.284582
0.301761
0.302353
0.31419
0.336088
0.39059
0.458538
0.577234
0.067113
0.0764642
0.0757741
0.0717227
0.0790271
0.103907
0.109516
0.13395
0.185183
0.235876
0.28828
0.32519
0.374989
0.41532
0.448391
0.479058
0.505275
0.537858
0.590054
0.74724
0.0758017
0.0706744
0.0672413
0.0680296
0.0794472
0.105958
0.117517
0.143294
0.182322
0.238233
0.308096
0.363717
0.4456
0.511055
0.579058
0.647187
0.709456
0.768525
0.824493
1.01021
0.083067
0.0626157
0.0601443
0.0772006
0.111749
0.134807
0.164069
0.216769
0.257275
0.297128
0.35208
0.424277
0.5218
0.613139
0.711711
0.824966
0.940608
1.05006
1.15582
1.32874
0.0823243
0.0568801
0.0632553
0.0996964
0.139934
0.172026
0.231173
0.314145
0.394477
0.485555
0.565533
0.651456
0.739534
0.832247
0.923068
1.04627
1.21577
1.3789
1.63679
1.59231
0.0818474
0.0542901
0.0696654
0.103437
0.142456
0.182528
0.273841
0.370695
0.499159
0.665748
0.800149
0.937685
1.07391
1.20232
1.31911
1.46005
1.63606
1.82504
2.15594
2.11598
0.0729633
0.0481091
0.0616923
0.0792432
0.119232
0.175197
0.293443
0.399984
0.573523
0.815973
1.03345
1.24713
1.45837
1.64657
1.85968
2.08533
2.305
2.53015
2.89112
2.88646
0.0498106
0.0363516
0.0537612
0.0692327
0.110952
0.207752
0.380161
0.606711
0.922238
1.2251
1.50808
1.76228
2.02269
2.27517
2.60119
2.93588
3.2592
3.58164
3.87019
4.1674
0.029521
0.0303545
0.0481998
0.0722401
0.164207
0.513446
0.874055
1.28005
1.73897
2.14017
2.45326
2.73701
3.03131
3.3452
3.76294
4.15888
4.53179
4.85168
5.05455
5.23887
0.0162535
0.0314017
0.0445169
0.169842
0.527358
1.06938
1.5939
2.1559
2.75873
3.27365
3.65002
4.01672
4.38978
4.79765
5.25167
5.54994
5.70381
5.73739
5.60401
5.42492
0.00951224
0.0388574
0.156518
0.580538
1.29361
1.99756
2.73289
3.53018
4.36684
4.88921
5.22372
5.56175
5.85592
6.09208
6.22169
6.11971
5.81896
5.07949
3.89004
2.63851
0.0524035
0.236487
0.767685
1.66132
2.86474
3.97898
4.91468
5.8609
6.58476
6.71187
6.58815
6.59863
6.54323
6.31757
5.62029
4.29092
2.92719
1.86519
1.42573
1.3901
0.429075
1.18654
2.71577
4.45959
5.83389
6.67498
7.46303
8.13747
7.94708
7.32767
6.72729
5.98513
4.72198
3.2519
2.00134
1.44363
1.38517
1.39292
1.39627
1.39923
3.23474
5.08215
6.83558
7.95226
8.61592
8.85992
9.0619
8.63361
6.30351
4.45103
3.28821
2.17565
1.50913
1.38207
1.38986
1.3947
1.3988
1.39997
1.40003
1.40002
9.68796
9.60484
9.56918
9.6337
9.72818
9.34613
8.33449
3.23494
0.907405
1.40001
1.40001
1.40001
1.40001
1.40001
1.40001
1.40001
1.40001
1.40001
1.40001
1.40001
9.63385
9.54674
9.4653
9.43341
9.62208
7.95776
3.59948
1.42346
1.40001
1.40001
1.40001
1.40001
1.40001
1.40001
1.40001
1.40001
1.40001
1.40001
1.40001
1.40001
9.40127
9.48578
9.39857
9.11257
8.76723
4.62533
1.43949
1.39935
1.40001
1.40001
1.40001
1.40001
1.40001
1.40001
1.40001
1.40001
1.40001
1.40001
1.40001
1.40001
9.21913
9.47027
9.4665
8.86835
6.53743
2.065
1.39204
1.40014
1.4
1.40001
1.40001
1.40001
1.40001
1.40001
1.40001
1.40001
1.40001
1.40001
1.40001
1.40001
9.02416
9.46757
9.51389
8.71755
3.8182
1.36403
1.40051
1.4
1.40001
1.40001
1.40001
1.40001
1.40001
1.40001
1.40001
1.40001
1.40001
1.40001
1.40001
1.40001
8.88165
9.35709
9.46237
6.91597
1.91634
1.40001
1.40001
1.40001
1.40001
1.40001
1.40001
1.40001
1.40001
1.40001
1.40001
1.40001
1.40001
1.40001
1.40001
1.40001
8.83401
9.24343
9.13319
4.88979
1.3806
1.40001
1.40001
1.40001
1.40001
1.40001
1.40001
1.40001
1.40001
1.40001
1.40001
1.40001
1.40001
1.40001
1.40001
1.40001
9.01219
9.25172
8.49729
2.90674
1.40001
1.40001
1.40001
1.40001
1.40001
1.40001
1.40001
1.40001
1.40001
1.40001
1.40001
1.40001
1.40001
1.40001
1.40001
1.40001
9.65618
9.31582
6.82918
1.64483
1.40001
1.40001
1.40001
1.40001
1.40001
1.40001
1.40001
1.40001
1.40001
1.40001
1.40001
1.40001
1.40001
1.40001
1.40001
1.40001
10.0173
8.7933
4.87174
1.38268
1.40001
1.40001
1.40001
1.40001
1.40001
1.40001
1.40001
1.40001
1.40001
1.40001
1.40001
1.40001
1.40001
1.40001
1.40001
1.40001
10.3141
8.34663
3.17025
1.40001
1.40001
1.40001
1.40001
1.40001
1.40001
1.40001
1.40001
1.40001
1.40001
1.40001
1.40001
1.40001
1.40001
1.40001
1.40001
1.40001
10.4084
7.47379
2.23856
1.40001
1.40001
1.40001
1.40001
1.40001
1.40001
1.40001
1.40001
1.40001
1.40001
1.40001
1.40001
1.40001
1.40001
1.40001
1.40001
1.40001
10.4655
6.60346
1.62581
1.40001
1.40001
1.40001
1.40001
1.40001
1.40001
1.40001
1.40001
1.40001
1.40001
1.40001
1.40001
1.40001
1.40001
1.40001
1.40001
1.40001
10.2386
5.52336
1.40107
1.40001
1.40001
1.40001
1.40001
1.40001
1.40001
1.40001
1.40001
1.40001
1.40001
1.40001
1.40001
1.40001
1.40001
1.40001
1.40001
1.40001
9.88792
4.48258
1.40001
1.40001
1.40001
1.40001
1.40001
1.40001
1.40001
1.40001
1.40001
1.40001
1.40001
1.40001
1.40001
1.40001
1.40001
1.40001
1.40001
1.40001
9.58811
3.61452
1.40001
1.40001
1.40001
1.40001
1.40001
1.40001
1.40001
1.40001
1.40001
1.40001
1.40001
1.40001
1.40001
1.40001
1.40001
1.40001
1.40001
1.40001
9.39086
2.62879
1.40001
1.40001
1.40001
1.40001
1.40001
1.40001
1.40001
1.40001
1.40001
1.40001
1.40001
1.40001
1.40001
1.40001
1.40001
1.40001
1.40001
1.40001
8.69512
1.85354
1.40001
1.40001
1.40001
1.40001
1.40001
1.40001
1.40001
1.40001
1.40001
1.40001
1.40001
1.40001
1.40001
1.40001
1.40001
1.40001
1.40001
1.40001
7.89385
1.40614
1.40001
1.40001
1.40001
1.40001
1.40001
1.40001
1.40001
1.40001
1.40001
1.40001
1.40001
1.40001
1.40001
1.40001
1.40001
1.40001
1.40001
1.40001
6.48831
1.40013
1.40001
1.40001
1.40001
1.40001
1.40001
1.40001
1.40001
1.40001
1.40001
1.40001
1.40001
1.40001
1.40001
1.40001
1.40001
1.40001
1.40001
1.40001
6.48754
1.40015
1.40001
1.40001
1.40001
1.40001
1.40001
1.40001
1.40001
1.40001
1.40001
1.40001
1.40001
1.40001
1.40001
1.40001
1.40001
1.40001
1.40001
1.40001
7.90304
1.40605
1.40001
1.40001
1.40001
1.40001
1.40001
1.40001
1.40001
1.40001
1.40001
1.40001
1.40001
1.40001
1.40001
1.40001
1.40001
1.40001
1.40001
1.40001
8.68879
1.84971
1.40001
1.40001
1.40001
1.40001
1.40001
1.40001
1.40001
1.40001
1.40001
1.40001
1.40001
1.40001
1.40001
1.40001
1.40001
1.40001
1.40001
1.40001
9.39144
2.62034
1.40001
1.40001
1.40001
1.40001
1.40001
1.40001
1.40001
1.40001
1.40001
1.40001
1.40001
1.40001
1.40001
1.40001
1.40001
1.40001
1.40001
1.40001
9.59812
3.61207
1.40001
1.40001
1.40001
1.40001
1.40001
1.40001
1.40001
1.40001
1.40001
1.40001
1.40001
1.40001
1.40001
1.40001
1.40001
1.40001
1.40001
1.40001
9.88716
4.49331
1.40001
1.40001
1.40001
1.40001
1.40001
1.40001
1.40001
1.40001
1.40001
1.40001
1.40001
1.40001
1.40001
1.40001
1.40001
1.40001
1.40001
1.40001
10.2337
5.52595
1.40126
1.40001
1.40001
1.40001
1.40001
1.40001
1.40001
1.40001
1.40001
1.40001
1.40001
1.40001
1.40001
1.40001
1.40001
1.40001
1.40001
1.40001
10.4666
6.60028
1.62623
1.40001
1.40001
1.40001
1.40001
1.40001
1.40001
1.40001
1.40001
1.40001
1.40001
1.40001
1.40001
1.40001
1.40001
1.40001
1.40001
1.40001
10.4108
7.47597
2.23741
1.40001
1.40001
1.40001
1.40001
1.40001
1.40001
1.40001
1.40001
1.40001
1.40001
1.40001
1.40001
1.40001
1.40001
1.40001
1.40001
1.40001
10.3211
8.34785
3.16364
1.40001
1.40001
1.40001
1.40001
1.40001
1.40001
1.40001
1.40001
1.40001
1.40001
1.40001
1.40001
1.40001
1.40001
1.40001
1.40001
1.40001
10.0235
8.79142
4.86072
1.38273
1.40001
1.40001
1.40001
1.40001
1.40001
1.40001
1.40001
1.40001
1.40001
1.40001
1.40001
1.40001
1.40001
1.40001
1.40001
1.40001
9.65788
9.31333
6.81984
1.64325
1.40001
1.40001
1.40001
1.40001
1.40001
1.40001
1.40001
1.40001
1.40001
1.40001
1.40001
1.40001
1.40001
1.40001
1.40001
1.40001
9.01363
9.25414
8.50305
2.90535
1.40001
1.40001
1.40001
1.40001
1.40001
1.40001
1.40001
1.40001
1.40001
1.40001
1.40001
1.40001
1.40001
1.40001
1.40001
1.40001
8.82829
9.23753
9.12906
4.89722
1.3826
1.40001
1.40001
1.40001
1.40001
1.40001
1.40001
1.40001
1.40001
1.40001
1.40001
1.40001
1.40001
1.40001
1.40001
1.40001
8.87637
9.35107
9.45714
6.91322
1.91364
1.40001
1.40001
1.40001
1.40001
1.40001
1.40001
1.40001
1.40001
1.40001
1.40001
1.40001
1.40001
1.40001
1.40001
1.40001
9.02406
9.46914
9.51626
8.7212
3.8122
1.36411
1.40051
1.4
1.40001
1.40001
1.40001
1.40001
1.40001
1.40001
1.40001
1.40001
1.40001
1.40001
1.40001
1.40001
9.22455
9.47463
9.47353
8.87395
6.54438
2.06544
1.39185
1.40014
1.4
1.40001
1.40001
1.40001
1.40001
1.40001
1.40001
1.40001
1.40001
1.40001
1.40001
1.40001
9.40238
9.48867
9.39883
9.10875
8.76529
4.62992
1.44246
1.39929
1.40001
1.40001
1.40001
1.40001
1.40001
1.40001
1.40001
1.40001
1.40001
1.40001
1.40001
1.40001
9.63056
9.54755
9.45929
9.41647
9.61907
7.96743
3.59634
1.42248
1.40001
1.40001
1.40001
1.40001
1.40001
1.40001
1.40001
1.40001
1.40001
1.40001
1.40001
1.40001
9.68683
9.60551
9.56735
9.63586
9.72993
9.36021
8.33663
3.22546
0.908146
1.40001
1.40001
1.40001
1.40001
1.40001
1.40001
1.40001
1.40001
1.40001
1.40001
1.40001
3.23429
5.06114
6.8003
7.9404
8.62238
8.87626
9.07341
8.64178
6.30673
4.45252
3.28927
2.17615
1.50924
1.38213
1.3899
1.39472
1.39881
1.39997
1.40003
1.40002
0.442163
1.25878
2.79361
4.468
5.81979
6.6717
7.46218
8.14026
7.94997
7.32951
6.72745
5.9838
4.71907
3.24793
1.99855
1.44295
1.38518
1.39293
1.39627
1.39923
0.0289783
0.173278
0.74163
1.69484
2.87724
3.97104
4.91064
5.8666
6.58693
6.7105
6.58613
6.59661
6.54129
6.31562
5.61759
4.28847
2.9251
1.86403
1.42548
1.39008
0.0171512
0.0279418
0.169543
0.591673
1.31034
2.01131
2.73225
3.52142
4.36116
4.89057
5.22444
5.56067
5.85461
6.09256
6.22321
6.12093
5.81947
5.07936
3.88989
2.63933
0.0257381
0.0239688
0.0337966
0.15462
0.541858
1.07175
1.58843
2.1501
2.7527
3.26719
3.64286
4.00985
4.38426
4.79521
5.25127
5.55221
5.70635
5.73903
5.60534
5.42566
0.0390476
0.0274289
0.0304329
0.0612704
0.157428
0.523258
0.889956
1.2947
1.75235
2.15286
2.46106
2.74121
3.03439
3.34947
3.76763
4.16508
4.53871
4.85535
5.05463
5.23707
0.0548431
0.0337008
0.0348643
0.0627439
0.0952533
0.201433
0.380509
0.61619
0.93963
1.24109
1.51952
1.76727
2.02275
2.27367
2.60051
2.93745
3.26253
3.58536
3.86918
4.16425
0.0684868
0.0413392
0.0468284
0.0729865
0.100085
0.163376
0.27638
0.38338
0.558742
0.802307
1.02323
1.23868
1.4526
1.64258
1.86032
2.08881
2.30904
2.53186
2.88992
2.88379
0.0763107
0.0480461
0.0668884
0.095847
0.124489
0.173239
0.268449
0.362996
0.488807
0.65646
0.792852
0.932743
1.07202
1.20246
1.32194
1.46419
1.63715
1.822
2.15263
2.11373
0.0810755
0.0512421
0.0707347
0.0974804
0.132626
0.172149
0.234951
0.316441
0.395944
0.489029
0.569542
0.655458
0.742637
0.834853
0.922629
1.04145
1.20998
1.37484
1.6361
1.59624
0.0901034
0.05942
0.0672891
0.0826177
0.115463
0.143394
0.172926
0.224523
0.264251
0.303291
0.354668
0.424438
0.519006
0.609855
0.70674
0.819575
0.937199
1.051
1.15847
1.32871
0.0957487
0.0776947
0.0718988
0.0728607
0.0841466
0.111515
0.120119
0.145003
0.181597
0.234365
0.304495
0.361
0.443075
0.508903
0.57729
0.646936
0.711073
0.772486
0.828726
1.01074
0.0838999
0.0868545
0.0849106
0.0779878
0.0781313
0.101713
0.108551
0.133056
0.182894
0.233989
0.287406
0.32491
0.375807
0.416244
0.45089
0.482904
0.511249
0.542549
0.59228
0.745906
0.0698456
0.0896558
0.0909985
0.0839265
0.0822326
0.102867
0.110483
0.135556
0.182111
0.217255
0.249754
0.273639
0.288665
0.307065
0.307753
0.318985
0.338547
0.387093
0.453322
0.574436
0.0675416
0.0860855
0.09065
0.0835111
0.0836309
0.0975861
0.108207
0.127493
0.15788
0.185532
0.18877
0.200984
0.193039
0.197866
0.208765
0.239624
0.285791
0.340117
0.385487
0.448622
0.0707108
0.0877286
0.0932008
0.08471
0.0775063
0.0849686
0.0920264
0.101441
0.114571
0.136275
0.127034
0.131479
0.138918
0.162528
0.195174
0.230591
0.264273
0.292423
0.314371
0.323981
0.0760739
0.0956347
0.109706
0.100025
0.0787331
0.0716336
0.0717619
0.0731948
0.0781805
0.0889647
0.102452
0.116689
0.135279
0.161821
0.186663
0.210431
0.228477
0.235038
0.232444
0.235683
0.0857867
0.0980436
0.114897
0.112668
0.0961766
0.0771349
0.0706462
0.0707641
0.0764309
0.084534
0.0991087
0.111015
0.126693
0.143764
0.15364
0.158579
0.160945
0.161152
0.16174
0.168988
0.10781
0.137969
0.173157
0.211226
0.203582
0.178939
0.165209
0.178444
0.19823
0.200509
0.193671
0.186084
0.194938
0.219019
0.247147
0.254773
0.250193
0.252344
0.265289
0.288143
0.170324
0.325482
0.376022
0.466819
0.52228
0.550846
0.56661
0.575919
0.608102
0.620151
0.619575
0.596223
0.610521
0.633631
0.658401
0.677429
0.67984
0.697666
0.73016
0.745186
0.765981
0.900904
0.997934
1.0998
1.11485
1.15603
1.18987
1.23708
1.26831
1.26636
1.25974
1.26644
1.30459
1.3488
1.35463
1.32945
1.30546
1.30811
1.32766
1.31321
0.374547
0.579769
0.767513
0.939395
1.04103
1.13395
1.16646
1.21447
1.26136
1.27324
1.27138
1.27044
1.28484
1.31765
1.33618
1.33603
1.32971
1.32808
1.32835
1.30864
0.190811
0.223926
0.332389
0.473781
0.748101
0.966837
1.05471
1.15204
1.26135
1.29844
1.29401
1.28895
1.28184
1.28881
1.31181
1.33576
1.34621
1.34716
1.33558
1.3053
0.260694
0.299997
0.334665
0.338839
0.36798
0.487369
0.741249
0.970262
1.1685
1.26811
1.31613
1.3012
1.27334
1.26668
1.2891
1.32876
1.35158
1.35203
1.33525
1.30496
0.326921
0.357812
0.388288
0.419505
0.416552
0.401746
0.422906
0.526551
0.785832
1.10158
1.26624
1.28273
1.27882
1.2589
1.27725
1.32545
1.35449
1.34866
1.33205
1.30611
0.431574
0.440373
0.479648
0.490625
0.475997
0.463259
0.462227
0.454585
0.480617
0.672847
1.00282
1.24594
1.27027
1.27053
1.2768
1.32272
1.35033
1.34122
1.32523
1.30811
0.558243
0.557265
0.547398
0.552923
0.548795
0.531455
0.515259
0.502432
0.491011
0.509171
0.629961
0.937825
1.20593
1.28152
1.27657
1.31912
1.32932
1.31634
1.31669
1.31548
0.737036
0.687054
0.626692
0.629623
0.631809
0.614225
0.58177
0.558535
0.543926
0.528855
0.538537
0.618053
0.89038
1.20538
1.27548
1.32979
1.31136
1.30422
1.31984
1.3221
0.954306
0.848494
0.723612
0.685319
0.692985
0.683475
0.657259
0.624417
0.584821
0.568335
0.557373
0.565828
0.625621
0.878905
1.19597
1.31746
1.27679
1.29498
1.33397
1.3257
1.22095
1.05902
0.867614
0.784975
0.778367
0.769928
0.745951
0.701748
0.64548
0.597776
0.603734
0.595987
0.60003
0.644568
0.872132
1.16759
1.22148
1.29944
1.33806
1.32178
1.75352
1.39023
1.1216
0.892995
0.829964
0.85111
0.875093
0.848681
0.784691
0.716607
0.675033
0.661551
0.655237
0.656105
0.673082
0.78597
1.03603
1.23428
1.30472
1.30372
2.80884
2.08365
1.70408
1.37709
1.06846
0.980439
0.99632
0.969903
0.881563
0.808909
0.757846
0.757307
0.752155
0.72251
0.679699
0.683707
0.738285
0.90048
1.11785
1.2528
3.49008
3.00915
2.3764
1.92625
1.56857
1.22313
1.13057
1.06945
0.990774
0.934794
0.902158
0.894674
0.869376
0.820155
0.772801
0.734434
0.739347
0.753559
0.81766
1.03137
3.29703
3.27158
3.1113
2.65922
2.21726
1.77666
1.47333
1.31674
1.24022
1.16064
1.05293
0.982627
0.927121
0.877918
0.840174
0.816382
0.788205
0.77637
0.770677
0.809412
2.34749
2.9924
3.09845
3.05452
2.8695
2.51534
2.05626
1.71978
1.50102
1.35971
1.20832
1.08538
1.02684
0.994835
0.982643
0.956632
0.908147
0.866596
0.821928
0.801823
1.55144
2.00958
2.58167
2.95083
2.94811
2.89856
2.69059
2.35575
1.98518
1.70959
1.53465
1.37424
1.26036
1.18409
1.12308
1.04862
0.972379
0.915529
0.879272
0.849731
1.40627
1.4622
1.68756
2.16687
2.60092
2.8206
2.81009
2.74981
2.56464
2.24472
1.96492
1.70991
1.50598
1.35759
1.23011
1.14646
1.09376
1.01841
1.0101
0.97609
1.40013
1.40157
1.41491
1.50815
1.77625
2.19509
2.54886
2.70449
2.69346
2.63209
2.4678
2.20503
1.93246
1.71619
1.50611
1.39335
1.32803
1.23789
1.15671
1.05907
1.40001
1.40002
1.40022
1.40339
1.42645
1.5415
1.80276
2.17801
2.46678
2.59444
2.58674
2.53858
2.39811
2.17172
1.92662
1.69659
1.54108
1.40981
1.29361
1.16088
1.40001
1.40001
1.40001
1.40004
1.40046
1.40558
1.43396
1.54989
1.80035
2.12821
2.38206
2.49988
2.4932
2.45177
2.34589
2.14955
1.92267
1.7218
1.57699
1.39726
1.40001
1.40001
1.40001
1.40001
1.40001
1.40007
1.40069
1.40644
1.43751
1.54806
1.76763
2.06427
2.2907
2.41053
2.4074
2.38023
2.29412
2.13649
1.95536
1.67148
1.40001
1.40001
1.40001
1.40001
1.40001
1.40001
1.40001
1.40009
1.40083
1.40678
1.43505
1.53167
1.72705
1.99247
2.19876
2.33053
2.32762
2.31014
2.25968
2.04581
1.40001
1.40001
1.40001
1.40001
1.40001
1.40001
1.40001
1.40001
1.40001
1.4001
1.4008
1.40595
1.43074
1.51272
1.67557
1.91922
2.10711
2.24608
2.25739
2.22214
1.40001
1.40001
1.40001
1.40001
1.40001
1.40001
1.40001
1.40001
1.40001
1.40001
1.40001
1.40009
1.40071
1.40482
1.42483
1.48772
1.63034
1.83813
2.02076
2.16492
1.40001
1.40001
1.40001
1.40001
1.40001
1.40001
1.40001
1.40001
1.40001
1.40001
1.40001
1.40001
1.40001
1.40007
1.40057
1.40352
1.41974
1.47179
1.59058
1.93967
2.25434
3.43242
3.59627
2.90651
1.83072
1.45128
1.4026
1.40007
1.40001
1.40001
1.40001
1.40001
1.40001
1.40001
1.40001
3.26392
3.91663
3.52159
2.15256
1.46722
1.40114
1.40001
1.4
1.40001
1.40001
1.40001
1.40001
1.40001
1.40001
1.40001
4.07185
3.9942
2.76481
1.61291
1.4073
1.40008
1.40001
1.40001
1.40001
1.40001
1.40001
1.40001
1.40001
1.40001
1.40001
4.52131
3.56377
1.90836
1.42662
1.40025
1.40001
1.40001
1.40001
1.40001
1.40001
1.40001
1.40001
1.40001
1.40001
1.40001
4.61317
2.35204
1.46621
1.40075
1.40001
1.40001
1.40001
1.40001
1.40001
1.40001
1.40001
1.40001
1.40001
1.40001
1.40001
2.87944
1.50202
1.40069
1.4
1.4
1.4
1.40001
1.40001
1.40001
1.40001
1.40001
1.40001
1.40001
1.40001
1.40001
1.54172
1.40076
1.4
1.4
1.40001
1.40001
1.40001
1.40001
1.40001
1.40001
1.40001
1.40001
1.40001
1.40001
1.40001
1.39742
1.39982
1.4
1.40001
1.40001
1.40001
1.40001
1.40001
1.40001
1.40001
1.40001
1.40001
1.40001
1.40001
1.40001
1.39996
1.40001
1.40001
1.40001
1.40001
1.40001
1.40001
1.40001
1.40001
1.40001
1.40001
1.40001
1.40001
1.40001
1.40001
1.40001
1.40001
1.40001
1.40001
1.40001
1.40001
1.40001
1.40001
1.40001
1.40001
1.40001
1.40001
1.40001
1.40001
1.40001
1.40001
1.40001
1.40001
1.40001
1.40001
1.40001
1.40001
1.40001
1.40001
1.40001
1.40001
1.40001
1.40001
1.40001
1.40001
1.40001
1.40001
1.40001
1.40001
1.40001
1.40001
1.40001
1.40001
1.40001
1.40001
1.40001
1.40001
1.40001
1.40001
1.40001
1.40001
1.40001
1.40001
1.40001
1.40001
1.40001
1.40001
1.40001
1.40001
1.40001
1.40001
1.40001
1.40001
1.40001
1.40001
1.40001
1.40001
1.40001
1.40001
1.40001
1.40001
1.40001
1.40001
1.40001
1.40001
1.40001
1.40001
1.40001
1.40001
1.40001
1.40001
1.40001
1.40001
1.40001
1.40001
1.40001
1.40001
1.40001
1.40001
1.40001
1.40001
1.40001
1.40001
1.40001
1.40001
1.40001
1.40001
1.40001
1.40001
1.40001
1.40001
1.40001
1.40001
1.40001
1.40001
1.40001
1.40001
1.40001
1.40001
1.40001
1.40001
1.40001
1.40001
1.40001
1.40001
1.40001
1.40001
1.40001
1.40001
1.40001
1.40001
1.40001
1.40001
1.40001
1.40001
1.40001
1.40001
1.40001
1.40001
1.40001
1.40001
1.40001
1.40001
1.40001
1.40001
1.40001
1.40001
1.40001
1.40001
1.40001
1.40001
1.40001
1.40001
1.40001
1.40001
1.40001
1.40001
1.40001
1.40001
1.40001
1.40001
1.40001
1.40001
1.40001
1.40001
1.40001
1.40001
1.40001
1.40001
1.40001
1.40001
1.40001
1.40001
1.40001
1.40001
1.40001
1.40001
1.40001
1.40001
1.40001
1.40001
1.40001
1.40001
1.40001
1.40001
1.40001
1.40001
1.40001
1.40001
1.40001
1.40001
1.40001
1.40001
1.40001
1.40001
1.40001
1.40001
1.40001
1.40001
1.40001
1.40001
1.40001
1.40001
1.40001
1.40001
1.40001
1.40001
1.40001
1.40001
1.40001
1.40001
1.40001
1.40001
1.40001
1.40001
1.40001
1.40001
1.40001
1.40001
1.40001
1.40001
1.40001
1.40001
1.40001
1.40001
1.40001
1.40001
1.40001
1.40001
1.40001
1.40001
1.40001
1.40001
1.40001
1.40001
1.40001
1.40001
1.40001
1.40001
1.40001
1.40001
1.40001
1.40001
1.40001
1.40001
1.40001
1.40001
1.40001
1.40001
1.40001
1.40001
1.40001
1.40001
1.40001
1.40001
1.40001
1.40001
1.40001
1.40001
1.40001
1.40001
1.40001
1.40001
1.40001
1.40001
1.40001
1.40001
1.40001
1.40001
1.40001
1.40001
1.40001
1.40001
1.40001
1.40001
1.40001
1.40001
1.40001
1.40001
1.40001
1.40001
1.40001
1.40001
1.40001
1.40001
1.40001
1.40001
1.40001
1.40001
1.40001
1.40001
1.40001
1.40001
1.40001
1.40001
1.40001
1.40001
1.40001
1.40001
1.40001
1.40001
1.40001
1.40001
1.40001
1.40001
1.40001
1.40001
1.40001
1.40001
1.40001
1.40001
1.40001
1.40001
1.40001
1.40001
1.40001
1.40001
1.40001
1.40001
1.40001
1.40001
1.40001
1.40001
1.40001
1.40001
1.40001
1.40001
1.40001
1.40001
1.40001
1.40001
1.40001
1.40001
1.40001
1.40001
1.40001
1.40001
1.40001
1.40001
1.40001
1.40001
1.40001
1.40001
1.40001
1.40001
1.40001
1.40001
1.40001
1.40001
1.40001
1.40001
1.40001
1.40001
1.40001
1.40001
1.40001
1.40001
1.40001
1.40001
1.40001
1.40001
1.40001
1.40001
1.40001
1.40001
1.40001
1.40001
1.40001
1.40001
1.40001
1.40001
1.40001
1.40001
1.40001
1.40001
1.40001
1.40001
1.40001
1.40001
1.40001
1.40001
1.40001
1.40001
1.40001
1.40001
1.40001
1.40001
1.40001
1.40001
1.40001
1.40001
1.40001
1.40001
1.40001
1.40001
1.40001
1.40001
1.40001
1.40001
1.40001
1.40001
1.40001
1.40001
1.40001
1.40001
1.40001
1.40001
1.40001
1.40001
1.40001
1.40001
1.40001
1.40001
1.40001
1.40001
1.40001
1.40001
1.40001
1.40001
1.40001
1.40001
1.40001
1.40001
1.40001
1.40001
1.40001
1.40001
1.40001
1.40001
1.40001
1.40001
1.40001
1.40001
1.40001
1.40001
1.40001
1.40001
1.40001
1.40001
1.40001
1.40001
1.40001
1.40001
1.40001
1.40001
1.40001
1.40001
1.40001
1.40001
1.40001
1.40001
1.40001
1.40001
1.40001
1.40001
1.40001
1.40001
1.40001
1.40001
1.40001
1.40001
1.40001
1.40001
1.40001
1.40001
1.40001
1.40001
1.40001
1.40001
1.40001
1.40001
1.40001
1.40001
1.40001
1.40001
1.40001
1.40001
1.40001
1.40001
1.40001
1.40001
1.40001
1.40001
1.40001
1.40001
1.40001
1.40001
1.40001
1.40001
1.40001
1.40001
1.40001
1.40001
1.40001
1.40001
1.40001
1.40001
1.40001
1.40001
1.40001
1.40001
1.40001
1.40001
1.40001
1.40001
1.40001
1.40001
1.40001
1.40001
1.40001
1.40001
1.40001
1.40001
1.40001
1.40001
1.40001
1.40001
1.40001
1.40001
1.40001
1.40001
1.40001
1.40001
1.40001
1.40001
1.40001
1.40001
1.40001
1.40001
1.40001
1.40001
1.40001
1.40001
1.40001
1.40001
1.40001
1.40001
1.40001
1.40001
1.40001
1.40001
1.40001
1.40001
1.40001
1.40001
1.40001
1.40001
1.40001
1.40001
1.40001
1.40001
1.40001
1.40001
1.40001
1.40001
1.40001
1.40001
1.40001
1.40001
1.40001
1.40001
1.40001
1.40001
1.40001
1.40001
1.40001
1.40001
1.40001
1.40001
1.40001
1.40001
1.40001
1.40001
1.40001
1.40001
1.40001
1.40001
1.40001
1.40001
1.40001
1.40001
1.40001
1.40001
1.40001
1.40001
1.40001
1.40001
1.40001
1.40001
1.40001
1.40001
1.40001
1.40001
1.40001
1.40001
1.40001
1.40001
1.40001
1.40001
1.40001
1.40001
1.40001
1.40001
1.40001
1.40001
1.40001
1.40001
1.40001
1.40001
1.40001
1.40001
1.40001
1.40001
1.40001
1.40001
1.40001
1.40001
1.40001
1.40001
1.40001
1.40001
1.40001
1.40001
1.40001
1.40001
1.40001
1.40001
1.40001
1.40001
1.40001
1.40001
1.40001
1.40001
1.40001
1.40001
1.40001
1.40001
1.40001
1.40001
1.40001
1.40001
1.40001
1.40001
1.40001
1.40001
1.40001
1.40001
1.40001
1.40001
1.40001
1.40001
1.40001
1.40001
1.40001
1.40001
1.40001
1.40001
1.40001
1.40001
1.40001
1.40001
1.40001
1.40001
1.40001
1.40001
1.40001
1.40001
1.40001
1.40001
1.40001
1.40001
1.40001
1.40001
1.40001
1.40001
1.40001
1.40001
1.40001
1.40001
1.40001
1.40001
1.40001
1.40001
1.40001
1.40001
1.40001
1.40001
1.40001
1.40001
1.40001
1.40001
1.40001
1.40001
1.40001
1.40001
1.40001
1.40001
1.40001
1.40001
1.40001
1.40001
1.40001
1.40001
1.40001
1.40001
1.40001
1.40001
1.40001
1.40001
1.40001
1.40001
1.40001
1.40001
1.40001
1.40001
1.40001
1.40001
1.40001
1.40001
1.40001
1.40001
1.40001
1.40001
1.40001
1.40001
1.40001
1.40001
1.40001
1.40001
1.40001
1.40001
1.40001
1.40001
1.40001
1.40001
1.40001
1.40001
1.40001
1.40001
1.40001
1.40001
1.40001
1.40001
1.40001
1.40001
1.40001
1.40001
1.40001
1.40001
1.40001
1.40001
1.40001
1.40001
1.40001
1.40001
1.40001
1.40001
1.40001
1.40001
1.40001
1.40001
1.40001
1.40001
1.40001
1.40001
1.40001
1.40001
1.40001
1.40001
1.40001
1.40001
1.40001
1.40001
1.40001
1.40001
1.40001
1.40001
1.40001
1.40001
1.40001
1.40001
1.40001
1.40001
1.40001
1.40001
1.40001
1.40001
1.40001
1.40001
1.40001
1.40001
1.40001
1.40001
1.40001
1.40001
1.40001
1.40001
1.40001
1.40001
1.40001
1.40001
1.40001
1.40001
1.40001
1.40001
1.40001
1.40001
1.40001
1.40001
1.40001
1.40001
1.40001
1.40001
1.40001
1.40001
1.40001
1.40001
1.40001
1.40001
1.40001
1.40001
1.40001
1.40001
1.40001
1.40001
1.40001
1.40001
1.40001
1.40001
1.40001
1.40001
1.40001
1.40001
1.40001
1.40001
1.40001
1.40001
1.40001
1.40001
1.40001
1.40001
1.40001
1.40001
1.40001
1.40001
1.39996
1.40001
1.40001
1.40001
1.40001
1.40001
1.40001
1.40001
1.40001
1.40001
1.40001
1.40001
1.40001
1.40001
1.40001
1.39741
1.39982
1.4
1.40001
1.40001
1.40001
1.40001
1.40001
1.40001
1.40001
1.40001
1.40001
1.40001
1.40001
1.40001
1.54204
1.40077
1.4
1.4
1.40001
1.40001
1.40001
1.40001
1.40001
1.40001
1.40001
1.40001
1.40001
1.40001
1.40001
2.88093
1.50226
1.40068
1.4
1.4
1.4
1.40001
1.40001
1.40001
1.40001
1.40001
1.40001
1.40001
1.40001
1.40001
4.61255
2.3531
1.46652
1.40076
1.40001
1.40001
1.40001
1.40001
1.40001
1.40001
1.40001
1.40001
1.40001
1.40001
1.40001
4.52055
3.56356
1.9085
1.42663
1.40025
1.40001
1.40001
1.40001
1.40001
1.40001
1.40001
1.40001
1.40001
1.40001
1.40001
4.07136
3.99436
2.76578
1.61302
1.4073
1.40008
1.40001
1.40001
1.40001
1.40001
1.40001
1.40001
1.40001
1.40001
1.40001
3.26197
3.91699
3.52184
2.15297
1.46728
1.40114
1.40001
1.4
1.40001
1.40001
1.40001
1.40001
1.40001
1.40001
1.40001
2.25707
3.43223
3.59655
2.90642
1.83064
1.45126
1.4026
1.40007
1.40001
1.40001
1.40001
1.40001
1.40001
1.40001
1.40001
1.74624
2.81666
3.48982
3.29737
2.34735
1.55152
1.40628
1.40013
1.40001
1.40001
1.40001
1.40001
1.40001
1.40001
1.40001
1.39141
2.06978
3.00814
3.27205
2.99364
2.00982
1.46218
1.40157
1.40002
1.40001
1.40001
1.40001
1.40001
1.40001
1.40001
1.13065
1.69584
2.38289
3.10998
3.09905
2.58204
1.68741
1.41488
1.40021
1.40001
1.40001
1.40001
1.40001
1.40001
1.40001
0.897367
1.3729
1.92271
2.66346
3.05504
2.95094
2.16667
1.50811
1.40339
1.40004
1.40001
1.40001
1.40001
1.40001
1.40001
0.831262
1.07646
1.55528
2.22203
2.86931
2.94811
2.60089
1.77631
1.42646
1.40046
1.40001
1.40001
1.40001
1.40001
1.40001
0.84665
1.0145
1.2146
1.76361
2.51487
2.89849
2.8206
2.19537
1.54158
1.40558
1.40007
1.40001
1.40001
1.40001
1.40001
0.869463
1.01925
1.13181
1.46074
2.05973
2.69079
2.81034
2.54903
1.80296
1.43399
1.40069
1.40001
1.40001
1.40001
1.40001
0.838724
0.972511
1.07497
1.32077
1.72062
2.35844
2.75041
2.70496
2.17822
1.54992
1.40644
1.40009
1.40001
1.40001
1.40001
0.768722
0.868251
1.00393
1.25238
1.49734
1.98828
2.56536
2.69387
2.4671
1.80032
1.43749
1.40083
1.40001
1.40001
1.40001
0.703281
0.796392
0.953598
1.17437
1.35599
1.70942
2.24436
2.63231
2.59459
2.12818
1.54802
1.40677
1.4001
1.40001
1.40001
0.675193
0.747098
0.905553
1.06187
1.20454
1.53222
1.96403
2.46759
2.58675
2.38201
1.76762
1.43505
1.4008
1.40001
1.40001
0.663692
0.747835
0.890459
0.985723
1.08201
1.37126
1.70954
2.20518
2.53849
2.49975
2.06419
1.53169
1.40595
1.40009
1.40001
0.662078
0.744074
0.861529
0.927387
1.02505
1.25819
1.5059
1.93247
2.39812
2.49305
2.29061
1.72703
1.43074
1.40071
1.40001
0.66291
0.716743
0.810969
0.878101
0.998729
1.18391
1.35852
1.7161
2.17092
2.45155
2.41039
1.99243
1.51272
1.40482
1.40007
0.67613
0.678462
0.766057
0.841036
0.986885
1.12364
1.23064
1.50569
1.92614
2.3456
2.40729
2.19872
1.67558
1.42483
1.40057
0.784405
0.684419
0.733074
0.816843
0.958919
1.04876
1.14579
1.3919
1.69669
2.1496
2.38019
2.33051
1.91924
1.48773
1.40352
1.03381
0.739803
0.739575
0.78784
0.908566
0.972203
1.09337
1.3271
1.54087
1.92269
2.29416
2.32761
2.1071
1.63034
1.41974
1.23546
0.901403
0.754313
0.775293
0.866221
0.915042
1.01916
1.23816
1.40982
1.72162
2.13648
2.31014
2.24609
1.83812
1.47179
1.3044
1.11698
0.816947
0.770337
0.820953
0.878151
1.01128
1.15683
1.29395
1.57725
1.9554
2.25969
2.25742
2.02078
1.59058
1.30315
1.25196
1.02988
0.809136
0.801863
0.848827
0.976806
1.05861
1.16089
1.39759
1.67157
2.04587
2.22218
2.16496
1.9397
1.22902
1.06766
0.869577
0.776173
0.766333
0.770221
0.747025
0.704661
0.6493
0.616833
0.613975
0.603547
0.606815
0.647332
0.869357
1.1737
1.22438
1.30029
1.3394
1.32186
0.957936
0.844662
0.726799
0.676174
0.691172
0.691562
0.666401
0.62867
0.583292
0.575592
0.567343
0.572262
0.62955
0.880221
1.1862
1.31276
1.27527
1.29115
1.33364
1.3258
0.726748
0.685561
0.633615
0.61952
0.618231
0.60306
0.573839
0.549175
0.533134
0.523259
0.538201
0.626041
0.901568
1.21609
1.27446
1.31894
1.3026
1.30118
1.31856
1.32223
0.556205
0.551189
0.553341
0.559543
0.553457
0.534205
0.515393
0.501383
0.492365
0.508561
0.637258
0.952707
1.22716
1.28128
1.27347
1.30735
1.32184
1.31206
1.3153
1.31587