/*--------------------------------*- C++ -*----------------------------------*\
  =========                 |
  \\      /  F ield         | OpenFOAM: The Open Source CFD Toolbox
   \\    /   O peration     | Website:  https://openfoam.org
    \\  /    A nd           | Version:  7
     \\/     M anipulation  |
\*---------------------------------------------------------------------------*/
FoamFile
{
    version     2.0;
    format      ascii;
    class       volScalarField;
    location    "4.3";
    object      T;
}
// * * * * * * * * * * * * * * * * * * * * * * * * * * * * * * * * * * * * * //

dimensions      [0 0 0 1 0 0 0];

internalField   nonuniform List<scalar> 
3700
(
100.504
100.677
100.788
100.848
100.968
101.05
101.057
101.042
101.006
101.013
101.082
101.147
101.15
101.142
101.13
101.119
101.105
101.088
101.066
101.014
100.149
100.198
100.326
100.343
100.475
100.657
100.66
100.536
100.335
100.382
100.5
100.616
100.68
100.681
100.649
100.609
100.593
100.575
100.522
100.376
100.044
100.08
100.109
100.09
100.005
99.8992
99.8802
99.8867
99.9038
99.9443
99.9875
100.015
100.033
100.045
100.046
100.039
100.031
100.019
100.011
100.021
100.001
100.035
100.045
99.9987
99.9102
99.8722
99.8663
99.8709
99.8894
99.9285
99.9674
99.9976
100.031
100.06
100.076
100.088
100.097
100.093
100.07
100.054
99.9435
99.9852
99.9852
99.9405
99.9329
99.9409
99.937
99.9364
99.9435
99.9764
99.9678
99.9881
100.015
100.048
100.077
100.099
100.123
100.141
100.145
100.142
99.9004
99.9681
99.991
100.01
100.041
100.062
100.044
100.056
100.076
100.087
100.065
100.065
100.048
100.053
100.067
100.091
100.123
100.162
100.183
100.212
99.8981
99.9901
100.035
100.044
100.072
100.106
100.084
100.109
100.156
100.163
100.167
100.162
100.157
100.155
100.141
100.133
100.133
100.163
100.205
100.261
99.9607
100.029
100.041
100.025
100.044
100.096
100.085
100.115
100.173
100.201
100.218
100.218
100.233
100.238
100.241
100.241
100.24
100.243
100.256
100.313
100.063
100.028
99.992
99.9792
100.017
100.063
100.072
100.11
100.156
100.199
100.229
100.242
100.272
100.286
100.301
100.314
100.321
100.33
100.341
100.385
100.115
99.9667
99.916
99.9706
100.036
100.062
100.097
100.157
100.177
100.212
100.232
100.259
100.291
100.314
100.339
100.365
100.385
100.4
100.419
100.453
100.095
99.9019
99.9018
100.003
100.075
100.123
100.178
100.238
100.274
100.313
100.331
100.352
100.366
100.377
100.389
100.409
100.439
100.463
100.504
100.496
100.066
99.8593
99.9137
100.024
100.077
100.144
100.226
100.279
100.337
100.39
100.41
100.429
100.447
100.46
100.474
100.49
100.511
100.532
100.572
100.569
100.036
99.812
99.861
99.9633
100.044
100.139
100.253
100.3
100.369
100.434
100.465
100.489
100.51
100.527
100.552
100.576
100.601
100.622
100.649
100.651
99.9721
99.7338
99.8091
99.9145
100.05
100.259
100.344
100.412
100.487
100.523
100.542
100.557
100.574
100.595
100.628
100.661
100.689
100.712
100.725
100.734
99.8283
99.6827
99.8016
99.9646
100.244
100.471
100.526
100.58
100.625
100.645
100.652
100.661
100.674
100.694
100.724
100.75
100.771
100.783
100.778
100.773
99.6249
99.6816
99.8372
100.204
100.48
100.591
100.636
100.677
100.71
100.726
100.736
100.75
100.77
100.795
100.816
100.826
100.823
100.815
100.788
100.743
99.3373
99.6463
100.155
100.483
100.638
100.686
100.724
100.762
100.792
100.806
100.817
100.833
100.85
100.857
100.856
100.845
100.793
100.678
100.517
100.278
99.545
100.131
100.494
100.665
100.758
100.806
100.836
100.862
100.876
100.883
100.883
100.883
100.882
100.86
100.775
100.626
100.361
100.101
100.006
99.9978
100.128
100.523
100.733
100.839
100.885
100.9
100.915
100.923
100.919
100.909
100.895
100.84
100.727
100.473
100.15
100.011
99.9967
99.9985
99.9992
99.9998
100.697
100.837
100.915
100.949
100.958
100.949
100.95
100.929
100.843
100.762
100.574
100.232
100.029
99.9957
99.9977
99.9989
99.9998
100
100
100
101
100.997
100.994
100.989
100.978
100.943
100.88
100.457
99.8454
100
100
100
100
100
100
100
100
100
100
100
101
100.998
100.992
100.979
100.959
100.846
100.476
100.013
100
100
100
100
100
100
100
100
100
100
100
100
100.992
100.995
100.989
100.966
100.921
100.627
100.029
99.9995
100
100
100
100
100
100
100
100
100
100
100
100
100.985
100.992
100.988
100.948
100.799
100.267
99.9964
100
100
100
100
100
100
100
100
100
100
100
100
100
100.977
100.988
100.985
100.925
100.566
99.992
100
100
100
100
100
100
100
100
100
100
100
100
100
100
100.973
100.983
100.979
100.828
100.228
100
100
100
100
100
100
100
100
100
100
100
100
100
100
100
100.972
100.979
100.966
100.702
100.003
100
100
100
100
100
100
100
100
100
100
100
100
100
100
100
100.985
100.979
100.925
100.484
99.9998
100
100
100
100
100
100
100
100
100
100
100
100
100
100
100
101.005
100.976
100.824
100.134
100
100
100
100
100
100
100
100
100
100
100
100
100
100
100
100
101.015
100.941
100.685
99.9964
100
100
100
100
100
100
100
100
100
100
100
100
100
100
100
100
101.023
100.906
100.498
100
100
100
100
100
100
100
100
100
100
100
100
100
100
100
100
100
101.027
100.852
100.318
100
100
100
100
100
100
100
100
100
100
100
100
100
100
100
100
100
101.03
100.796
100.111
100
100
100
100
100
100
100
100
100
100
100
100
100
100
100
100
100
101.027
100.729
100
100
100
100
100
100
100
100
100
100
100
100
100
100
100
100
100
100
101.017
100.667
100
100
100
100
100
100
100
100
100
100
100
100
100
100
100
100
100
100
100.992
100.592
100
100
100
100
100
100
100
100
100
100
100
100
100
100
100
100
100
100
100.955
100.435
100
100
100
100
100
100
100
100
100
100
100
100
100
100
100
100
100
100
100.896
100.209
100
100
100
100
100
100
100
100
100
100
100
100
100
100
100
100
100
100
100.859
100.004
100
100
100
100
100
100
100
100
100
100
100
100
100
100
100
100
100
100
100.817
100
100
100
100
100
100
100
100
100
100
100
100
100
100
100
100
100
100
100
100.817
100
100
100
100
100
100
100
100
100
100
100
100
100
100
100
100
100
100
100
100.86
100.004
100
100
100
100
100
100
100
100
100
100
100
100
100
100
100
100
100
100
100.896
100.207
100
100
100
100
100
100
100
100
100
100
100
100
100
100
100
100
100
100
100.954
100.433
100
100
100
100
100
100
100
100
100
100
100
100
100
100
100
100
100
100
100.991
100.592
100
100
100
100
100
100
100
100
100
100
100
100
100
100
100
100
100
100
101.017
100.669
100
100
100
100
100
100
100
100
100
100
100
100
100
100
100
100
100
100
101.028
100.729
100.001
100
100
100
100
100
100
100
100
100
100
100
100
100
100
100
100
100
101.03
100.796
100.112
100
100
100
100
100
100
100
100
100
100
100
100
100
100
100
100
100
101.027
100.852
100.318
100
100
100
100
100
100
100
100
100
100
100
100
100
100
100
100
100
101.023
100.906
100.497
100
100
100
100
100
100
100
100
100
100
100
100
100
100
100
100
100
101.015
100.94
100.683
99.9964
100
100
100
100
100
100
100
100
100
100
100
100
100
100
100
100
101.005
100.976
100.823
100.133
100
100
100
100
100
100
100
100
100
100
100
100
100
100
100
100
100.985
100.979
100.926
100.483
99.9996
100
100
100
100
100
100
100
100
100
100
100
100
100
100
100
100.972
100.979
100.967
100.704
100.004
100
100
100
100
100
100
100
100
100
100
100
100
100
100
100
100.973
100.983
100.978
100.829
100.227
100
100
100
100
100
100
100
100
100
100
100
100
100
100
100
100.977
100.988
100.984
100.924
100.565
99.992
100
100
100
100
100
100
100
100
100
100
100
100
100
100
100.985
100.991
100.987
100.947
100.798
100.267
99.9963
100
100
100
100
100
100
100
100
100
100
100
100
100
100.992
100.994
100.988
100.966
100.922
100.628
100.03
99.9995
100
100
100
100
100
100
100
100
100
100
100
100
101
100.998
100.991
100.979
100.959
100.847
100.476
100.012
100
100
100
100
100
100
100
100
100
100
100
100
101
100.997
100.994
100.99
100.979
100.944
100.879
100.455
99.8465
100
100
100
100
100
100
100
100
100
100
100
100.697
100.837
100.914
100.949
100.958
100.95
100.95
100.929
100.844
100.762
100.574
100.232
100.03
99.9957
99.9977
99.9989
99.9998
100
100
100
100.115
100.53
100.737
100.838
100.884
100.9
100.915
100.922
100.919
100.909
100.895
100.84
100.726
100.472
100.149
100.011
99.9967
99.9985
99.9992
99.9998
99.5329
100.114
100.5
100.673
100.758
100.805
100.835
100.862
100.876
100.883
100.883
100.883
100.882
100.859
100.774
100.625
100.36
100.101
100.005
99.9978
99.4182
99.7098
100.211
100.493
100.638
100.685
100.722
100.761
100.792
100.806
100.817
100.833
100.85
100.857
100.856
100.845
100.793
100.678
100.517
100.278
99.5584
99.5524
99.8305
100.208
100.485
100.588
100.634
100.675
100.709
100.725
100.735
100.75
100.77
100.795
100.816
100.826
100.823
100.815
100.789
100.743
99.7036
99.5775
99.671
99.9417
100.25
100.481
100.532
100.584
100.627
100.647
100.654
100.662
100.675
100.695
100.725
100.751
100.771
100.783
100.778
100.773
99.7819
99.6167
99.6978
99.8982
100.036
100.28
100.359
100.424
100.496
100.529
100.547
100.559
100.575
100.595
100.627
100.66
100.689
100.712
100.725
100.734
99.8477
99.6947
99.7866
99.9306
100.001
100.131
100.245
100.293
100.367
100.433
100.465
100.488
100.509
100.527
100.552
100.577
100.601
100.622
100.649
100.651
99.9092
99.7862
99.9006
99.9891
100.041
100.135
100.225
100.277
100.336
100.39
100.41
100.429
100.447
100.46
100.475
100.491
100.512
100.532
100.572
100.568
99.9718
99.8439
99.9206
99.9831
100.058
100.125
100.185
100.243
100.278
100.317
100.333
100.353
100.367
100.378
100.389
100.407
100.437
100.462
100.504
100.497
100.078
99.9319
99.9298
99.9584
100.029
100.072
100.11
100.167
100.183
100.213
100.23
100.256
100.288
100.311
100.336
100.362
100.384
100.4
100.419
100.453
100.156
100.064
99.9884
99.9707
100.009
100.067
100.075
100.112
100.155
100.195
100.226
100.24
100.27
100.284
100.3
100.313
100.321
100.33
100.342
100.385
100.133
100.112
100.079
100.034
100.03
100.092
100.086
100.117
100.174
100.202
100.22
100.22
100.235
100.238
100.242
100.243
100.243
100.246
100.257
100.312
100.066
100.109
100.087
100.063
100.065
100.11
100.091
100.118
100.164
100.17
100.173
100.166
100.161
100.158
100.144
100.136
100.135
100.158
100.2
100.259
100.023
100.071
100.058
100.034
100.053
100.077
100.064
100.072
100.09
100.094
100.074
100.071
100.049
100.051
100.061
100.083
100.116
100.157
100.18
100.21
100.018
100.065
100.048
99.9909
99.9567
99.9665
99.959
99.9529
99.9552
99.9801
99.9591
99.976
100.001
100.037
100.067
100.092
100.118
100.139
100.144
100.143
100.034
100.087
100.095
100.035
99.9384
99.876
99.8614
99.86
99.8727
99.9067
99.9475
99.9798
100.015
100.048
100.068
100.083
100.096
100.094
100.071
100.053
100.085
100.116
100.139
100.1
100.007
99.9065
99.8688
99.8708
99.8903
99.9218
99.9639
99.9934
100.018
100.036
100.042
100.039
100.033
100.021
100.011
100.019
100.201
100.322
100.444
100.558
100.526
100.476
100.498
100.605
100.662
100.622
100.487
100.336
100.329
100.387
100.471
100.482
100.446
100.422
100.444
100.475
100.553
100.769
100.829
100.939
101.009
101.032
101.053
101.069
101.092
101.084
101.067
101.029
101.034
101.073
101.091
101.089
101.073
101.06
101.061
101.061
101.02
101.025
101.013
100.991
100.96
100.938
100.918
100.905
100.895
100.881
100.869
100.859
100.855
100.853
100.845
100.827
100.814
100.81
100.809
100.8
100.533
100.641
100.709
100.729
100.768
100.808
100.806
100.799
100.802
100.809
100.81
100.806
100.802
100.801
100.798
100.792
100.787
100.784
100.781
100.772
100.026
100.058
100.174
100.278
100.437
100.539
100.58
100.602
100.634
100.673
100.687
100.687
100.686
100.688
100.696
100.706
100.711
100.712
100.711
100.706
100.075
100.09
100.103
100.097
100.13
100.227
100.359
100.425
100.481
100.543
100.572
100.569
100.567
100.57
100.585
100.603
100.613
100.616
100.617
100.617
100.125
100.13
100.134
100.143
100.131
100.126
100.149
100.219
100.331
100.441
100.489
100.499
100.499
100.498
100.509
100.525
100.535
100.536
100.538
100.54
100.186
100.173
100.184
100.185
100.175
100.172
100.17
100.16
100.173
100.274
100.394
100.463
100.467
100.467
100.47
100.482
100.488
100.487
100.488
100.488
100.243
100.227
100.215
100.216
100.213
100.208
100.202
100.189
100.168
100.175
100.238
100.361
100.437
100.452
100.449
100.457
100.459
100.457
100.458
100.459
100.305
100.278
100.251
100.252
100.253
100.246
100.234
100.218
100.198
100.175
100.178
100.216
100.329
100.419
100.431
100.442
100.438
100.437
100.441
100.441
100.369
100.337
100.295
100.278
100.277
100.27
100.261
100.246
100.218
100.194
100.176
100.179
100.204
100.305
100.395
100.422
100.414
100.42
100.43
100.427
100.437
100.401
100.348
100.316
100.304
100.296
100.287
100.271
100.243
100.205
100.195
100.184
100.183
100.196
100.284
100.366
100.383
100.408
100.415
100.409
100.533
100.466
100.408
100.343
100.309
100.312
100.314
100.304
100.28
100.246
100.217
100.201
100.193
100.186
100.182
100.224
100.308
100.364
100.375
100.373
100.615
100.543
100.491
100.44
100.371
100.331
100.328
100.315
100.288
100.261
100.233
100.221
100.21
100.19
100.167
100.157
100.171
100.225
100.284
100.314
100.608
100.586
100.535
100.485
100.437
100.37
100.336
100.313
100.294
100.278
100.258
100.242
100.223
100.199
100.176
100.154
100.143
100.133
100.149
100.215
100.489
100.547
100.541
100.513
100.476
100.422
100.372
100.337
100.319
100.298
100.265
100.236
100.211
100.19
100.172
100.154
100.132
100.115
100.102
100.105
100.25
100.377
100.447
100.482
100.474
100.452
100.408
100.361
100.324
100.295
100.262
100.229
100.206
100.191
100.18
100.164
100.141
100.118
100.094
100.073
100.043
100.145
100.254
100.337
100.388
100.416
100.405
100.38
100.34
100.302
100.275
100.246
100.218
100.195
100.173
100.148
100.123
100.1
100.082
100.06
100.002
100.015
100.066
100.155
100.233
100.29
100.329
100.349
100.339
100.313
100.283
100.249
100.215
100.186
100.157
100.134
100.118
100.096
100.087
100.067
100
100
100.003
100.024
100.078
100.149
100.209
100.25
100.28
100.29
100.282
100.26
100.228
100.199
100.165
100.143
100.129
100.108
100.086
100.055
100
100
100
100.001
100.006
100.031
100.08
100.139
100.186
100.216
100.241
100.244
100.236
100.215
100.186
100.155
100.129
100.105
100.08
100.048
100
100
100
100
100
100.001
100.008
100.032
100.079
100.129
100.169
100.192
100.21
100.209
100.202
100.183
100.155
100.126
100.101
100.068
100
100
100
100
100
100
100
100.001
100.008
100.032
100.072
100.118
100.154
100.174
100.186
100.185
100.177
100.161
100.137
100.097
100
100
100
100
100
100
100
100
100
100.002
100.008
100.028
100.066
100.108
100.14
100.16
100.168
100.167
100.162
100.138
100
100
100
100
100
100
100
100
100
100
100
100.001
100.007
100.025
100.056
100.097
100.127
100.146
100.154
100.151
100
100
100
100
100
100
100
100
100
100
100
100
100
100.001
100.006
100.019
100.048
100.084
100.113
100.137
100
100
100
100
100
100
100
100
100
100
100
100
100
100
100
100.001
100.004
100.016
100.041
100.105
100.598
100.654
100.609
100.415
100.142
100.017
100.001
100
100
100
100
100
100
100
100
100.672
100.663
100.518
100.217
100.022
100
100
100
100
100
100
100
100
100
100
100.704
100.636
100.374
100.074
100.002
100
100
100
100
100
100
100
100
100
100
100.719
100.519
100.168
100.009
100
100
100
100
100
100
100
100
100
100
100
100.651
100.286
100.025
100
100
100
100
100
100
100
100
100
100
100
100
100.392
100.038
100
100
100
100
100
100
100
100
100
100
100
100
100
100.042
100
100
100
100
100
100
100
100
100
100
100
100
100
100
99.9995
100
100
100
100
100
100
100
100
100
100
100
100
100
100
100
100
100
100
100
100
100
100
100
100
100
100
100
100
100
100
100
100
100
100
100
100
100
100
100
100
100
100
100
100
100
100
100
100
100
100
100
100
100
100
100
100
100
100
100
100
100
100
100
100
100
100
100
100
100
100
100
100
100
100
100
100
100
100
100
100
100
100
100
100
100
100
100
100
100
100
100
100
100
100
100
100
100
100
100
100
100
100
100
100
100
100
100
100
100
100
100
100
100
100
100
100
100
100
100
100
100
100
100
100
100
100
100
100
100
100
100
100
100
100
100
100
100
100
100
100
100
100
100
100
100
100
100
100
100
100
100
100
100
100
100
100
100
100
100
100
100
100
100
100
100
100
100
100
100
100
100
100
100
100
100
100
100
100
100
100
100
100
100
100
100
100
100
100
100
100
100
100
100
100
100
100
100
100
100
100
100
100
100
100
100
100
100
100
100
100
100
100
100
100
100
100
100
100
100
100
100
100
100
100
100
100
100
100
100
100
100
100
100
100
100
100
100
100
100
100
100
100
100
100
100
100
100
100
100
100
100
100
100
100
100
100
100
100
100
100
100
100
100
100
100
100
100
100
100
100
100
100
100
100
100
100
100
100
100
100
100
100
100
100
100
100
100
100
100
100
100
100
100
100
100
100
100
100
100
100
100
100
100
100
100
100
100
100
100
100
100
100
100
100
100
100
100
100
100
100
100
100
100
100
100
100
100
100
100
100
100
100
100
100
100
100
100
100
100
100
100
100
100
100
100
100
100
100
100
100
100
100
100
100
100
100
100
100
100
100
100
100
100
100
100
100
100
100
100
100
100
100
100
100
100
100
100
100
100
100
100
100
100
100
100
100
100
100
100
100
100
100
100
100
100
100
100
100
100
100
100
100
100
100
100
100
100
100
100
100
100
100
100
100
100
100
100
100
100
100
100
100
100
100
100
100
100
100
100
100
100
100
100
100
100
100
100
100
100
100
100
100
100
100
100
100
100
100
100
100
100
100
100
100
100
100
100
100
100
100
100
100
100
100
100
100
100
100
100
100
100
100
100
100
100
100
100
100
100
100
100
100
100
100
100
100
100
100
100
100
100
100
100
100
100
100
100
100
100
100
100
100
100
100
100
100
100
100
100
100
100
100
100
100
100
100
100
100
100
100
100
100
100
100
100
100
100
100
100
100
100
100
100
100
100
100
100
100
100
100
100
100
100
100
100
100
100
100
100
100
100
100
100
100
100
100
100
100
100
100
100
100
100
100
100
100
100
100
100
100
100
100
100
100
100
100
100
100
100
100
100
100
100
100
100
100
100
100
100
100
100
100
100
100
100
100
100
100
100
100
100
100
100
100
100
100
100
100
100
100
100
100
100
100
100
100
100
100
100
100
100
100
100
100
100
100
100
100
100
100
100
100
100
100
100
100
100
100
100
100
100
100
100
100
100
100
100
100
100
100
100
100
100
100
100
100
100
100
100
100
100
100
100
100
100
100
100
100
100
100
100
100
100
100
100
100
100
100
100
100
100
100
100
100
100
100
100
100
100
100
100
100
100
100
100
100
100
100
100
100
100
100
100
100
100
100
100
100
100
100
100
100
100
100
100
100
100
100
100
100
100
100
100
100
100
100
100
100
100
100
100
100
100
100
100
100
100
100
100
100
100
100
100
100
100
100
100
100
100
100
100
100
100
100
100
100
100
100
100
100
100
100
100
100
100
100
100
100
100
100
100
100
100
100
100
100
100
100
100
100
100
100
100
100
100
100
100
100
100
100
100
100
100
100
100
100
100
100
100
100
100
100
100
100
100
100
100
100
100
100
100
100
100
100
100
100
100
100
100
100
100
100
100
100
100
100
100
100
100
100
100
100
100
100
100
100
100
100
100
100
100
100
100
100
100
100
100
100
100
100
100
100
100
100
100
100
100
100
100
100
100
100
100
100
100
100
100
100
100
100
100
100
100
100
99.9995
100
100
100
100
100
100
100
100
100
100
100
100
100
100
100.042
100
100
100
100
100
100
100
100
100
100
100
100
100
100
100.393
100.038
100
100
100
100
100
100
100
100
100
100
100
100
100
100.651
100.286
100.025
100
100
100
100
100
100
100
100
100
100
100
100
100.719
100.52
100.168
100.009
100
100
100
100
100
100
100
100
100
100
100
100.704
100.636
100.374
100.074
100.002
100
100
100
100
100
100
100
100
100
100
100.672
100.663
100.518
100.217
100.022
100
100
100
100
100
100
100
100
100
100
100.598
100.654
100.609
100.415
100.142
100.017
100.001
100
100
100
100
100
100
100
100
100.531
100.616
100.608
100.488
100.25
100.043
100.002
100
100
100
100
100
100
100
100
100.465
100.541
100.586
100.547
100.377
100.145
100.015
100
100
100
100
100
100
100
100
100.409
100.49
100.536
100.541
100.447
100.254
100.066
100.003
100
100
100
100
100
100
100
100.343
100.438
100.485
100.513
100.482
100.336
100.155
100.024
100.001
100
100
100
100
100
100
100.309
100.371
100.435
100.477
100.474
100.388
100.233
100.078
100.006
100
100
100
100
100
100
100.311
100.34
100.366
100.42
100.452
100.416
100.29
100.149
100.031
100.001
100
100
100
100
100
100.314
100.334
100.334
100.37
100.409
100.405
100.329
100.209
100.08
100.008
100
100
100
100
100
100.302
100.315
100.315
100.337
100.362
100.381
100.349
100.25
100.139
100.032
100.001
100
100
100
100
100.274
100.285
100.3
100.321
100.323
100.341
100.339
100.28
100.186
100.079
100.008
100
100
100
100
100.24
100.258
100.285
100.301
100.294
100.302
100.313
100.29
100.216
100.129
100.032
100.002
100
100
100
100.216
100.229
100.26
100.267
100.261
100.275
100.283
100.282
100.241
100.169
100.072
100.008
100
100
100
100.201
100.217
100.241
100.237
100.228
100.245
100.248
100.26
100.244
100.192
100.118
100.028
100.001
100
100
100.195
100.207
100.221
100.211
100.206
100.218
100.215
100.228
100.236
100.21
100.154
100.066
100.007
100
100
100.189
100.188
100.197
100.19
100.192
100.195
100.186
100.199
100.215
100.209
100.174
100.108
100.025
100.001
100
100.182
100.166
100.174
100.172
100.181
100.174
100.157
100.165
100.186
100.202
100.186
100.14
100.056
100.006
100
100.223
100.156
100.154
100.154
100.165
100.148
100.134
100.143
100.155
100.183
100.184
100.16
100.097
100.019
100.001
100.308
100.171
100.143
100.132
100.141
100.123
100.118
100.129
100.129
100.155
100.177
100.168
100.127
100.048
100.004
100.364
100.225
100.133
100.115
100.118
100.1
100.096
100.108
100.105
100.126
100.161
100.167
100.146
100.084
100.016
100.375
100.284
100.149
100.101
100.094
100.082
100.088
100.086
100.08
100.101
100.137
100.162
100.154
100.113
100.041
100.373
100.314
100.215
100.105
100.072
100.06
100.067
100.055
100.048
100.069
100.097
100.138
100.151
100.137
100.105
100.438
100.403
100.349
100.313
100.3
100.298
100.288
100.272
100.242
100.212
100.199
100.187
100.186
100.199
100.283
100.368
100.384
100.408
100.415
100.409
100.37
100.335
100.296
100.274
100.277
100.276
100.265
100.248
100.216
100.196
100.181
100.183
100.206
100.307
100.392
100.421
100.414
100.419
100.43
100.427
100.302
100.278
100.254
100.247
100.247
100.242
100.231
100.213
100.191
100.172
100.179
100.222
100.334
100.422
100.43
100.439
100.436
100.436
100.441
100.441
100.243
100.224
100.218
100.219
100.216
100.21
100.202
100.187
100.169
100.175
100.243
100.368
100.442
100.45
100.447
100.454
100.457
100.455
100.457
100.459
100.185
100.175
100.181
100.183
100.17
100.168
100.163
100.156
100.175
100.278
100.4
100.461
100.465
100.463
100.465
100.479
100.488
100.487
100.488
100.488
100.121
100.134
100.134
100.142
100.131
100.125
100.151
100.228
100.34
100.441
100.488
100.497
100.496
100.495
100.505
100.523
100.535
100.537
100.539
100.541
100.073
100.092
100.105
100.099
100.129
100.21
100.354
100.436
100.486
100.536
100.567
100.567
100.569
100.574
100.585
100.599
100.611
100.618
100.619
100.621
100.027
100.041
100.159
100.289
100.446
100.514
100.57
100.616
100.648
100.668
100.677
100.684
100.69
100.694
100.698
100.704
100.711
100.715
100.715
100.711
100.604
100.621
100.676
100.738
100.782
100.792
100.799
100.81
100.814
100.808
100.802
100.803
100.804
100.804
100.799
100.791
100.789
100.787
100.784
100.776
101.043
101.016
100.998
100.991
100.966
100.938
100.916
100.907
100.893
100.874
100.862
100.856
100.854
100.853
100.842
100.823
100.813
100.811
100.81
100.801
)
;

boundaryField
{
    inlet
    {
        type            fixedValue;
        value           uniform 100;
    }
    outlet
    {
        type            inletOutlet;
        inletValue      uniform 100;
        value           nonuniform List<scalar> 
50
(
100.373
100.314
100.215
100.105
100.073
100.06
100.067
100.055
100.048
100.068
100.097
100.138
100.151
100.137
100.105
100.8
100.772
100.706
100.617
100.54
100.488
100.459
100.441
100.427
100.409
100.409
100.427
100.441
100.459
100.488
100.541
100.621
100.711
100.776
100.801
100.373
100.314
100.215
100.105
100.073
100.06
100.067
100.055
100.048
100.069
100.097
100.138
100.151
100.137
100.105
)
;
    }
    airfoil
    {
        type            zeroGradient;
    }
    top
    {
        type            symmetryPlane;
    }
    bottom
    {
        type            symmetryPlane;
    }
    defaultFaces
    {
        type            empty;
    }
}


// ************************************************************************* //
