/*--------------------------------*- C++ -*----------------------------------*\
  =========                 |
  \\      /  F ield         | OpenFOAM: The Open Source CFD Toolbox
   \\    /   O peration     | Website:  https://openfoam.org
    \\  /    A nd           | Version:  7
     \\/     M anipulation  |
\*---------------------------------------------------------------------------*/
FoamFile
{
    version     2.0;
    format      ascii;
    class       volVectorField;
    location    "4.3";
    object      U;
}
// * * * * * * * * * * * * * * * * * * * * * * * * * * * * * * * * * * * * * //

dimensions      [0 1 -1 0 0 0 0];

internalField   nonuniform List<vector> 
3700
(
(1.40493 -0.482103 0)
(1.37254 -0.576351 0)
(1.38273 -0.340861 0)
(1.48062 -0.383354 0)
(1.47419 -0.296506 0)
(1.4911 -0.153358 0)
(1.52967 -0.133855 0)
(1.53419 -0.214202 0)
(1.54113 -0.376503 0)
(1.49684 -0.379109 0)
(1.45176 -0.317496 0)
(1.44079 -0.169237 0)
(1.51786 -0.0565093 0)
(1.61153 -0.0625938 0)
(1.68455 -0.125815 0)
(1.73401 -0.145203 0)
(1.74881 -0.108637 0)
(1.79064 -0.0791796 0)
(1.85592 -0.106124 0)
(1.92929 -0.250072 0)
(1.94016 -1.33515 0)
(1.84105 -1.28751 0)
(1.85781 -1.11732 0)
(1.95392 -1.18682 0)
(1.94836 -1.2833 0)
(1.84277 -1.15792 0)
(1.81506 -1.12716 0)
(1.86483 -1.45451 0)
(1.86271 -1.76844 0)
(1.79832 -1.65226 0)
(1.74812 -1.55166 0)
(1.76334 -1.25645 0)
(1.85138 -1.05665 0)
(2.00518 -0.978582 0)
(2.09104 -0.987457 0)
(2.18808 -1.01355 0)
(2.22049 -0.982792 0)
(2.27671 -0.964144 0)
(2.35974 -1.01362 0)
(2.45539 -1.24515 0)
(1.78695 -1.29359 0)
(1.84751 -1.27822 0)
(1.91134 -1.30544 0)
(1.97111 -1.44522 0)
(1.98151 -1.83807 0)
(1.92092 -2.14936 0)
(1.98582 -2.2512 0)
(1.99206 -2.21779 0)
(2.01772 -2.19118 0)
(2.10706 -2.07585 0)
(2.10468 -2.12757 0)
(2.19493 -1.99722 0)
(2.2506 -1.92591 0)
(2.31727 -1.87865 0)
(2.39642 -1.8133 0)
(2.50895 -1.76319 0)
(2.60569 -1.69064 0)
(2.68202 -1.62169 0)
(2.71883 -1.57032 0)
(2.6976 -1.56966 0)
(1.64649 -1.35654 0)
(1.66664 -1.44169 0)
(1.69589 -1.67027 0)
(1.70565 -1.97055 0)
(1.70183 -2.14508 0)
(1.80909 -2.26242 0)
(1.86218 -2.27591 0)
(2.00296 -2.11327 0)
(2.09323 -2.08903 0)
(2.30188 -1.93328 0)
(2.33582 -1.94995 0)
(2.39351 -1.87698 0)
(2.40503 -1.84386 0)
(2.3931 -1.81782 0)
(2.43427 -1.72016 0)
(2.51792 -1.64585 0)
(2.57679 -1.50854 0)
(2.68029 -1.41032 0)
(2.76085 -1.25523 0)
(2.84246 -1.17492 0)
(1.40981 -1.27592 0)
(1.48677 -1.53145 0)
(1.57679 -1.88205 0)
(1.56223 -2.1296 0)
(1.53266 -2.27542 0)
(1.61098 -2.26919 0)
(1.82159 -2.16689 0)
(2.00721 -1.88547 0)
(2.11286 -1.87307 0)
(2.32303 -1.84352 0)
(2.46022 -1.65085 0)
(2.53379 -1.6091 0)
(2.58539 -1.54821 0)
(2.56404 -1.58937 0)
(2.58178 -1.53809 0)
(2.5757 -1.54235 0)
(2.58159 -1.4033 0)
(2.62125 -1.32757 0)
(2.69266 -1.26495 0)
(2.79574 -1.01981 0)
(1.2465 -1.20789 0)
(1.40285 -1.602 0)
(1.5393 -1.97943 0)
(1.52486 -2.25387 0)
(1.65971 -2.31634 0)
(1.82662 -2.22524 0)
(1.89977 -2.10328 0)
(1.98543 -1.91573 0)
(2.03873 -1.85866 0)
(2.24393 -1.7484 0)
(2.3904 -1.56592 0)
(2.57549 -1.50622 0)
(2.66887 -1.31495 0)
(2.72297 -1.25367 0)
(2.74066 -1.16255 0)
(2.722 -1.18669 0)
(2.70382 -1.15558 0)
(2.68615 -1.08102 0)
(2.6752 -1.14938 0)
(2.7146 -0.967027 0)
(1.15417 -1.22332 0)
(1.31856 -1.7539 0)
(1.59795 -2.105 0)
(1.79182 -2.33267 0)
(2.03958 -2.31521 0)
(2.10073 -2.25903 0)
(2.12407 -2.03336 0)
(2.10263 -1.90969 0)
(2.11383 -1.8435 0)
(2.21156 -1.75597 0)
(2.33967 -1.5597 0)
(2.50517 -1.47146 0)
(2.57367 -1.25838 0)
(2.72647 -1.17382 0)
(2.75285 -0.943324 0)
(2.7975 -0.7974 0)
(2.77857 -0.722608 0)
(2.77402 -0.637801 0)
(2.72712 -0.775812 0)
(2.70957 -0.712479 0)
(1.09919 -1.35532 0)
(1.38373 -2.00411 0)
(1.77848 -2.22879 0)
(2.08528 -2.35718 0)
(2.3504 -2.24023 0)
(2.44075 -2.13498 0)
(2.41614 -1.81672 0)
(2.3819 -1.72592 0)
(2.40086 -1.72543 0)
(2.41263 -1.65597 0)
(2.45949 -1.51736 0)
(2.52841 -1.38927 0)
(2.55944 -1.20499 0)
(2.65045 -1.12589 0)
(2.68523 -0.925455 0)
(2.75402 -0.783326 0)
(2.79227 -0.615348 0)
(2.81044 -0.399318 0)
(2.76116 -0.38958 0)
(2.71558 -0.382313 0)
(1.17867 -1.5803 0)
(1.55045 -2.21688 0)
(1.98264 -2.3828 0)
(2.19226 -2.39555 0)
(2.4082 -2.17776 0)
(2.5062 -2.01082 0)
(2.61854 -1.62343 0)
(2.66738 -1.50655 0)
(2.67751 -1.43263 0)
(2.73076 -1.26206 0)
(2.70833 -1.29391 0)
(2.71784 -1.09126 0)
(2.67444 -1.00436 0)
(2.68603 -0.909354 0)
(2.68623 -0.773101 0)
(2.69847 -0.668601 0)
(2.73258 -0.567291 0)
(2.74468 -0.384005 0)
(2.73197 -0.210644 0)
(2.68334 -0.103922 0)
(1.36235 -1.80113 0)
(1.71248 -2.38545 0)
(1.97179 -2.33452 0)
(2.08041 -2.29865 0)
(2.15005 -2.03548 0)
(2.23135 -1.84149 0)
(2.43744 -1.53539 0)
(2.52562 -1.47637 0)
(2.68962 -1.33093 0)
(2.75308 -0.939641 0)
(2.79541 -0.836909 0)
(2.79231 -0.614302 0)
(2.77282 -0.569528 0)
(2.75695 -0.459367 0)
(2.73822 -0.394465 0)
(2.70706 -0.353678 0)
(2.68712 -0.32599 0)
(2.68947 -0.29419 0)
(2.64836 -0.126315 0)
(2.61564 0.0266993 0)
(1.46219 -1.88058 0)
(1.70512 -2.39357 0)
(1.82088 -2.22101 0)
(1.84551 -2.06931 0)
(2.0033 -1.89996 0)
(2.12326 -1.61711 0)
(2.24837 -1.49148 0)
(2.34303 -1.36045 0)
(2.42385 -1.24492 0)
(2.52216 -1.01977 0)
(2.64083 -0.805993 0)
(2.68288 -0.534416 0)
(2.70993 -0.337924 0)
(2.70983 -0.158187 0)
(2.67882 -0.00105487 0)
(2.65544 0.0433058 0)
(2.62952 0.0854464 0)
(2.61937 -0.00684538 0)
(2.55601 0.0925449 0)
(2.58531 0.0555678 0)
(1.45382 -1.88113 0)
(1.62318 -2.33104 0)
(1.70622 -2.10438 0)
(1.83338 -1.9374 0)
(2.02008 -1.82994 0)
(2.22054 -1.40227 0)
(2.23318 -1.40206 0)
(2.35379 -1.23227 0)
(2.43353 -1.01019 0)
(2.47294 -0.887187 0)
(2.54583 -0.692426 0)
(2.58364 -0.480721 0)
(2.61113 -0.289453 0)
(2.63826 -0.12557 0)
(2.58806 0.105105 0)
(2.57667 0.214667 0)
(2.51912 0.369986 0)
(2.4877 0.338098 0)
(2.4403 0.361833 0)
(2.47037 0.284895 0)
(1.32902 -1.79458 0)
(1.61038 -2.1413 0)
(1.8061 -1.92822 0)
(2.00742 -1.41544 0)
(2.13645 -1.50941 0)
(2.27706 -1.03981 0)
(2.37689 -1.09675 0)
(2.52749 -0.819091 0)
(2.56338 -0.486982 0)
(2.5877 -0.418602 0)
(2.59792 -0.227284 0)
(2.5894 -0.0877145 0)
(2.56416 0.0365045 0)
(2.5456 0.126099 0)
(2.49009 0.252613 0)
(2.4804 0.305305 0)
(2.41493 0.434471 0)
(2.35382 0.542684 0)
(2.29451 0.607443 0)
(2.30377 0.558309 0)
(1.08534 -1.61067 0)
(1.76995 -1.87467 0)
(1.91934 -1.72472 0)
(1.99924 -1.06631 0)
(2.12214 -1.14649 0)
(2.41574 -0.719117 0)
(2.57487 -0.483563 0)
(2.59511 -0.168423 0)
(2.59352 -0.0847389 0)
(2.56974 0.0936882 0)
(2.54799 0.24137 0)
(2.49486 0.386499 0)
(2.44999 0.477122 0)
(2.39493 0.557531 0)
(2.34762 0.588695 0)
(2.31554 0.589642 0)
(2.27205 0.619463 0)
(2.23468 0.665394 0)
(2.16628 0.7587 0)
(2.1285 0.797011 0)
(0.927531 -1.36292 0)
(1.7154 -1.81686 0)
(2.17754 -1.46209 0)
(2.24761 -0.761313 0)
(2.51523 -0.293254 0)
(2.48201 -0.638364 0)
(2.52658 -0.429367 0)
(2.50093 -0.0902102 0)
(2.47088 0.025112 0)
(2.46193 0.201938 0)
(2.42558 0.388928 0)
(2.34794 0.572086 0)
(2.29098 0.688042 0)
(2.20955 0.802677 0)
(2.15391 0.845582 0)
(2.11047 0.85912 0)
(2.07062 0.895042 0)
(2.06878 0.888829 0)
(2.04302 0.91889 0)
(2.06058 0.948364 0)
(1.28806 -1.15157 0)
(1.52107 -1.78027 0)
(2.19437 -0.862419 0)
(2.39784 -0.599794 0)
(2.46624 -0.28681 0)
(2.45777 -0.25758 0)
(2.42822 0.0317455 0)
(2.38519 0.217415 0)
(2.32461 0.389321 0)
(2.30615 0.533764 0)
(2.2211 0.695425 0)
(2.1494 0.810474 0)
(2.0918 0.883339 0)
(2.03126 0.953237 0)
(1.98688 0.973203 0)
(1.95008 0.997411 0)
(1.95475 1.01989 0)
(1.96887 0.99756 0)
(1.99513 0.995475 0)
(2.07237 0.9764 0)
(1.41589 -0.50235 0)
(1.94128 -0.761314 0)
(2.34704 0.0994086 0)
(2.29946 -0.0826109 0)
(2.35444 -0.0403228 0)
(2.35675 0.305583 0)
(2.28269 0.56285 0)
(2.18758 0.719173 0)
(2.13113 0.792189 0)
(2.06981 0.916782 0)
(1.96833 1.01835 0)
(1.91461 1.06734 0)
(1.88522 1.08281 0)
(1.87007 1.09158 0)
(1.87142 1.05842 0)
(1.89628 1.05023 0)
(1.96154 1.02271 0)
(2.16503 0.904146 0)
(2.38287 0.793269 0)
(2.77981 0.441475 0)
(1.10544 -0.0790452 0)
(1.84769 -0.137854 0)
(2.26382 0.0606926 0)
(2.23637 0.521856 0)
(2.21044 0.68134 0)
(2.14028 0.796593 0)
(2.05149 0.898587 0)
(1.96129 0.973065 0)
(1.90987 1.03543 0)
(1.84318 1.12551 0)
(1.78907 1.15681 0)
(1.7924 1.15179 0)
(1.81201 1.13165 0)
(1.84904 1.09001 0)
(2.03437 0.956844 0)
(2.2544 0.834159 0)
(2.66399 0.508015 0)
(3.03746 0.0926856 0)
(3.05542 -0.0239197 0)
(3.00402 -0.00466377 0)
(1.03471 0.00635291 0)
(1.92669 0.798425 0)
(2.0908 0.893082 0)
(2.00661 0.959324 0)
(1.97735 0.982621 0)
(1.87491 1.0897 0)
(1.78726 1.14406 0)
(1.75434 1.14672 0)
(1.75223 1.16246 0)
(1.73106 1.20318 0)
(1.71711 1.1948 0)
(1.86963 1.06655 0)
(2.10149 0.881852 0)
(2.49878 0.57705 0)
(2.98263 0.138088 0)
(3.07389 -0.0293337 0)
(3.00827 -0.00778969 0)
(3.00295 -0.00385275 0)
(3.00123 -0.0021963 0)
(3.00008 -0.000484351 0)
(1.16753 0.7568 0)
(1.82199 1.15984 0)
(1.84704 1.1418 0)
(1.74765 1.19035 0)
(1.71851 1.20218 0)
(1.66626 1.24504 0)
(1.6528 1.21509 0)
(1.71945 1.16428 0)
(1.74847 1.22927 0)
(1.78436 1.14028 0)
(2.27038 0.740239 0)
(2.85895 0.20784 0)
(3.09716 -0.0284524 0)
(3.02091 -0.0125727 0)
(3.00474 -0.00556456 0)
(3.00192 -0.0030849 0)
(3.00005 -0.000598642 0)
(2.99998 -2.41779e-05 0)
(2.99999 1.43644e-05 0)
(3 5.90899e-06 0)
(1.57879 1.25505 0)
(1.5839 1.26059 0)
(1.59445 1.26444 0)
(1.6061 1.26351 0)
(1.61931 1.24644 0)
(1.59851 1.26441 0)
(1.88944 1.15559 0)
(2.95005 0.376647 0)
(3.36024 -0.604978 0)
(3 8.61794e-11 0)
(3 4.34532e-12 0)
(3 -1.46225e-11 0)
(3 6.29896e-10 0)
(3 -5.75325e-10 0)
(3 8.57803e-13 0)
(3 8.54167e-13 0)
(3 2.7109e-13 0)
(3 7.50742e-14 0)
(3 4.2072e-14 0)
(3 -3.59551e-14 0)
(1.57226 1.2423 0)
(1.58768 1.25626 0)
(1.60112 1.26399 0)
(1.60527 1.26096 0)
(1.67289 1.24047 0)
(1.73765 1.22467 0)
(2.29094 0.717278 0)
(3.00056 0.00969339 0)
(3 -8.49114e-09 0)
(3 8.35102e-11 0)
(3 -6.10471e-13 0)
(3 6.3854e-15 0)
(3 -4.54531e-13 0)
(3 4.20157e-13 0)
(3 -2.08131e-15 0)
(3 -5.93794e-16 0)
(3 6.25117e-16 0)
(3 -2.26307e-16 0)
(3 1.06575e-15 0)
(3 -1.08506e-16 0)
(1.5795 1.25351 0)
(1.5972 1.25755 0)
(1.59826 1.2665 0)
(1.57253 1.29226 0)
(1.75466 1.19711 0)
(2.26432 0.801378 0)
(3.00098 -0.00401441 0)
(3.00005 -0.000320089 0)
(3 -1.21792e-08 0)
(3 1.42536e-10 0)
(3 -2.27943e-13 0)
(3 -1.60294e-16 0)
(3 -2.0293e-15 0)
(3 -4.77144e-15 0)
(3 -1.38386e-15 0)
(3 -1.05158e-15 0)
(3 6.01153e-16 0)
(3 4.88765e-16 0)
(3 -9.11571e-16 0)
(3 4.45211e-16 0)
(1.58412 1.25731 0)
(1.60228 1.26192 0)
(1.62117 1.26593 0)
(1.58152 1.33344 0)
(1.82594 1.12113 0)
(2.70332 0.263992 0)
(3.00461 -0.000354681 0)
(2.99993 5.94519e-05 0)
(3 -1.22422e-07 0)
(3 4.17975e-10 0)
(3 4.27588e-14 0)
(3 -7.36571e-15 0)
(3 -3.28752e-15 0)
(3 -2.93508e-15 0)
(3 -3.28689e-15 0)
(3 -1.89406e-15 0)
(3 -5.43581e-16 0)
(3 8.83346e-17 0)
(3 -2.04962e-16 0)
(3 2.58266e-16 0)
(1.5869 1.26896 0)
(1.60629 1.26644 0)
(1.63722 1.2574 0)
(1.70126 1.2185 0)
(2.34895 0.637936 0)
(3.02164 -0.0205846 0)
(2.99972 9.58102e-05 0)
(3 -4.13587e-06 0)
(3 6.34271e-08 0)
(3 -6.34547e-10 0)
(3 1.43792e-12 0)
(3 -1.09691e-14 0)
(3 -1.79929e-15 0)
(3 -3.25586e-15 0)
(3 -3.00798e-15 0)
(3 -2.78514e-15 0)
(3 -1.33574e-15 0)
(3 -5.35909e-17 0)
(3 -8.11198e-17 0)
(3 2.11908e-16 0)
(1.58492 1.28321 0)
(1.58621 1.27638 0)
(1.64601 1.24404 0)
(1.88124 1.08123 0)
(2.74895 0.218287 0)
(3 -5.72852e-10 0)
(3 1.37013e-08 0)
(3 -1.22564e-08 0)
(3 4.25403e-10 0)
(3 2.68687e-12 0)
(3 -1.03827e-13 0)
(3 -1.3341e-15 0)
(3 -2.88589e-15 0)
(3 -2.37472e-15 0)
(3 -2.82218e-15 0)
(3 -3.32641e-15 0)
(3 -1.56053e-15 0)
(3 -6.39248e-16 0)
(3 1.24546e-16 0)
(3 -1.74925e-17 0)
(1.58372 1.29499 0)
(1.54629 1.28718 0)
(1.65191 1.24127 0)
(2.07986 0.868168 0)
(3.01348 -0.00892432 0)
(3 -1.58547e-12 0)
(3 -2.10698e-11 0)
(3 2.64769e-11 0)
(3 -2.9512e-12 0)
(3 -8.81502e-15 0)
(3 -3.7354e-15 0)
(3 -4.84002e-15 0)
(3 -4.79958e-15 0)
(3 -2.49695e-15 0)
(3 -2.44697e-15 0)
(3 -3.11528e-15 0)
(3 -2.50308e-15 0)
(3 -2.09544e-15 0)
(3 -6.72142e-16 0)
(3 -2.52658e-18 0)
(1.58495 1.32481 0)
(1.50243 1.32533 0)
(1.75187 1.19035 0)
(2.40829 0.552833 0)
(3 -3.27511e-07 0)
(3 1.22614e-14 0)
(3 2.93517e-15 0)
(3 -4.30186e-14 0)
(3 8.52567e-15 0)
(3 -4.92126e-15 0)
(3 -4.83636e-15 0)
(3 -4.90667e-15 0)
(3 -4.75974e-15 0)
(3 -3.59445e-15 0)
(3 -3.79262e-15 0)
(3 -3.16993e-15 0)
(3 -2.9028e-15 0)
(3 -3.31063e-15 0)
(3 -1.92002e-15 0)
(3 -1.10759e-15 0)
(1.58786 1.30495 0)
(1.47354 1.33899 0)
(1.98922 1.03645 0)
(2.88571 0.118722 0)
(3 -2.29656e-11 0)
(3 -1.52394e-15 0)
(3 -1.5689e-15 0)
(3 -2.94492e-15 0)
(3 -3.65864e-15 0)
(3 -4.03873e-15 0)
(3 -4.11727e-15 0)
(3 -4.31512e-15 0)
(3 -4.85477e-15 0)
(3 -3.97972e-15 0)
(3 -3.90096e-15 0)
(3 -2.72556e-15 0)
(3 -3.36573e-15 0)
(3 -3.90749e-15 0)
(3 -3.77039e-15 0)
(3 -2.38505e-15 0)
(1.60554 1.296 0)
(1.48132 1.39669 0)
(2.117 0.855962 0)
(3.01121 -0.00922848 0)
(3 2.90484e-12 0)
(3 -1.47616e-15 0)
(3 -1.49342e-15 0)
(3 -2.13839e-15 0)
(3 -2.8882e-15 0)
(3 -3.10951e-15 0)
(3 -3.68763e-15 0)
(3 -3.59211e-15 0)
(3 -4.21925e-15 0)
(3 -3.18695e-15 0)
(3 -2.84498e-15 0)
(3 -2.74116e-15 0)
(3 -3.7794e-15 0)
(3 -4.70063e-15 0)
(3 -5.00897e-15 0)
(3 -4.20738e-15 0)
(1.62186 1.27836 0)
(1.57942 1.30691 0)
(2.43821 0.519842 0)
(3 -5.74137e-16 0)
(3 -4.54183e-15 0)
(3 -1.15437e-15 0)
(3 -1.56175e-15 0)
(3 -2.07865e-15 0)
(3 -2.5456e-15 0)
(3 -2.77987e-15 0)
(3 -2.62115e-15 0)
(3 -3.05496e-15 0)
(3 -2.6991e-15 0)
(3 -1.84099e-15 0)
(3 -1.10868e-15 0)
(3 -2.00819e-15 0)
(3 -3.37341e-15 0)
(3 -4.00225e-15 0)
(3 -4.80706e-15 0)
(3 -5.14748e-15 0)
(1.6358 1.26434 0)
(1.63172 1.24501 0)
(2.64609 0.294111 0)
(3 -4.84562e-16 0)
(3 -9.333e-16 0)
(3 -1.27429e-15 0)
(3 -1.30013e-15 0)
(3 -1.71845e-15 0)
(3 -1.9757e-15 0)
(3 -1.80157e-15 0)
(3 -1.74158e-15 0)
(3 -2.39081e-15 0)
(3 -2.34453e-15 0)
(3 -1.65915e-15 0)
(3 -8.78357e-16 0)
(3 -1.02107e-15 0)
(3 -2.26915e-15 0)
(3 -2.61842e-15 0)
(3 -2.80356e-15 0)
(3 -2.84591e-15 0)
(1.65438 1.24642 0)
(1.82669 1.09862 0)
(2.87461 0.0914908 0)
(3 -7.98445e-16 0)
(3 -5.31688e-16 0)
(3 -7.1764e-16 0)
(3 -7.0522e-16 0)
(3 -1.09679e-15 0)
(3 -1.30948e-15 0)
(3 -9.35468e-16 0)
(3 -1.06462e-15 0)
(3 -1.727e-15 0)
(3 -1.71034e-15 0)
(3 -1.5847e-15 0)
(3 -8.72693e-16 0)
(3 -2.75112e-16 0)
(3 -4.99479e-16 0)
(3 -1.17153e-15 0)
(3 -6.67957e-16 0)
(3 -8.90207e-16 0)
(1.68192 1.19656 0)
(1.90337 0.975924 0)
(2.99935 0.000271858 0)
(3 6.7616e-16 0)
(3 7.23786e-16 0)
(3 6.32428e-16 0)
(3 3.00863e-16 0)
(3 1.33005e-16 0)
(3 4.13902e-16 0)
(3 7.3871e-17 0)
(3 -5.31514e-16 0)
(3 -8.12594e-16 0)
(3 -8.32622e-16 0)
(3 -1.10939e-15 0)
(3 -1.22786e-15 0)
(3 -8.70445e-16 0)
(3 7.47951e-16 0)
(3 -3.2856e-16 0)
(3 -6.50381e-16 0)
(3 -5.14057e-16 0)
(1.71268 1.15928 0)
(2.05198 0.830688 0)
(3 6.85063e-16 0)
(3 1.25175e-15 0)
(3 1.4652e-15 0)
(3 1.722e-15 0)
(3 8.3505e-16 0)
(3 -2.54011e-17 0)
(3 -1.54356e-16 0)
(3 -7.71021e-16 0)
(3 -1.20813e-15 0)
(3 -1.41556e-15 0)
(3 -1.58702e-15 0)
(3 -1.42266e-15 0)
(3 -1.38984e-15 0)
(3 -1.60257e-15 0)
(3 -1.3799e-15 0)
(3 -1.36393e-15 0)
(3 -1.37437e-15 0)
(3 -1.43658e-15 0)
(1.72782 1.10915 0)
(2.1964 0.664508 0)
(3 1.04865e-16 0)
(3 1.84827e-17 0)
(3 -4.05373e-16 0)
(3 -4.02536e-16 0)
(3 -5.65718e-16 0)
(3 -9.97069e-16 0)
(3 -1.46414e-15 0)
(3 -1.75813e-15 0)
(3 -2.0445e-15 0)
(3 -1.68457e-15 0)
(3 -1.44716e-15 0)
(3 -1.52936e-15 0)
(3 -1.67897e-15 0)
(3 -2.01946e-15 0)
(3 -2.16071e-15 0)
(3 -2.20865e-15 0)
(3 -2.37534e-15 0)
(3 -2.30202e-15 0)
(1.84186 1.02076 0)
(2.44568 0.44769 0)
(3 -2.64033e-15 0)
(3 -1.51589e-15 0)
(3 -1.60392e-15 0)
(3 -1.09328e-15 0)
(3 -1.64854e-15 0)
(3 -1.97321e-15 0)
(3 -2.24994e-15 0)
(3 -2.5101e-15 0)
(3 -2.65079e-15 0)
(3 -2.31564e-15 0)
(3 -1.99256e-15 0)
(3 -1.96147e-15 0)
(3 -1.97076e-15 0)
(3 -1.76782e-15 0)
(3 -1.46985e-15 0)
(3 -1.62952e-15 0)
(3 -1.64595e-15 0)
(3 -2.28926e-15 0)
(1.96302 0.866282 0)
(2.74057 0.189044 0)
(3 -2.88776e-15 0)
(3 -2.54485e-15 0)
(3 -2.54406e-15 0)
(3 -2.96954e-15 0)
(3 -2.21076e-15 0)
(3 -1.52489e-15 0)
(3 -1.15543e-15 0)
(3 -6.05491e-16 0)
(3 -2.4438e-16 0)
(3 -3.98562e-16 0)
(3 -5.44213e-16 0)
(3 -5.56257e-16 0)
(3 -8.65973e-16 0)
(3 -1.22622e-15 0)
(3 -9.55835e-16 0)
(3 -7.78333e-16 0)
(3 -8.13854e-16 0)
(3 -7.28537e-16 0)
(2.08755 0.641665 0)
(2.99307 0.000147043 0)
(3 -3.04428e-15 0)
(3 -2.48978e-15 0)
(3 -1.68564e-15 0)
(3 -8.11802e-16 0)
(3 1.1389e-16 0)
(3 8.97636e-16 0)
(3 1.39366e-15 0)
(3 1.04397e-15 0)
(3 1.24444e-15 0)
(3 1.58232e-15 0)
(3 1.48205e-15 0)
(3 9.14319e-16 0)
(3 3.53299e-16 0)
(3 -6.14214e-16 0)
(3 -1.00577e-15 0)
(3 -1.39083e-15 0)
(3 -7.25804e-16 0)
(3 -3.02448e-16 0)
(1.9919 0.379791 0)
(2.99987 -2.25804e-05 0)
(3 8.60578e-16 0)
(3 1.56245e-15 0)
(3 1.54222e-15 0)
(3 8.20882e-16 0)
(3 4.60127e-16 0)
(3 5.83911e-16 0)
(3 1.10375e-15 0)
(3 9.3028e-16 0)
(3 1.02732e-15 0)
(3 1.10981e-15 0)
(3 1.62801e-15 0)
(3 1.73977e-15 0)
(3 1.78413e-15 0)
(3 1.33252e-15 0)
(3 9.38508e-16 0)
(3 6.16333e-16 0)
(3 2.36206e-16 0)
(3 2.73427e-16 0)
(1.99172 -0.379504 0)
(2.99985 2.85864e-05 0)
(3 -9.25585e-16 0)
(3 1.12354e-15 0)
(3 1.61246e-15 0)
(3 2.1333e-15 0)
(3 2.12549e-15 0)
(3 2.12057e-15 0)
(3 1.80282e-15 0)
(3 1.40927e-15 0)
(3 1.01886e-15 0)
(3 1.09293e-15 0)
(3 1.5064e-15 0)
(3 2.03644e-15 0)
(3 2.70842e-15 0)
(3 3.21928e-15 0)
(3 3.45939e-15 0)
(3 3.79799e-15 0)
(3 3.77349e-15 0)
(3 3.66345e-15 0)
(2.08603 -0.643016 0)
(2.99317 -0.000134212 0)
(3 -2.80631e-15 0)
(3 -1.84181e-15 0)
(3 -2.43013e-16 0)
(3 3.27753e-16 0)
(3 8.33883e-16 0)
(3 1.73877e-15 0)
(3 1.7168e-15 0)
(3 1.46217e-15 0)
(3 1.17215e-15 0)
(3 1.04145e-15 0)
(3 1.09586e-15 0)
(3 1.13794e-15 0)
(3 1.5543e-15 0)
(3 1.81915e-15 0)
(3 2.1272e-15 0)
(3 2.14477e-15 0)
(3 2.15163e-15 0)
(3 2.06034e-15 0)
(1.96199 -0.864509 0)
(2.74227 -0.187494 0)
(3 -2.37751e-15 0)
(3 -1.35733e-16 0)
(3 4.65215e-16 0)
(3 1.14726e-15 0)
(3 1.81732e-15 0)
(3 1.99873e-15 0)
(3 1.90595e-15 0)
(3 1.65559e-15 0)
(3 1.53942e-15 0)
(3 1.44981e-15 0)
(3 1.20188e-15 0)
(3 9.10123e-16 0)
(3 7.55151e-16 0)
(3 8.83977e-16 0)
(3 7.28334e-16 0)
(3 7.61663e-16 0)
(3 4.20733e-16 0)
(3 2.51554e-16 0)
(1.84483 -1.02141 0)
(2.44862 -0.446409 0)
(3 -9.93422e-17 0)
(3 -4.04208e-17 0)
(3 7.25509e-16 0)
(3 1.06176e-15 0)
(3 9.88004e-16 0)
(3 8.95203e-16 0)
(3 6.19545e-16 0)
(3 5.83763e-16 0)
(3 6.3592e-16 0)
(3 6.87947e-16 0)
(3 6.62996e-16 0)
(3 5.73963e-16 0)
(3 4.54073e-16 0)
(3 6.85212e-17 0)
(3 -3.02702e-16 0)
(3 -8.28006e-16 0)
(3 -1.38933e-15 0)
(3 -1.60367e-15 0)
(1.72929 -1.10893 0)
(2.19701 -0.663792 0)
(3 6.90894e-16 0)
(3 -4.14551e-16 0)
(3 -1.15213e-15 0)
(3 -1.29178e-15 0)
(3 -1.81842e-15 0)
(3 -1.94293e-15 0)
(3 -1.65554e-15 0)
(3 -1.46925e-15 0)
(3 -1.42249e-15 0)
(3 -1.25065e-15 0)
(3 -3.85031e-16 0)
(3 -1.8187e-16 0)
(3 -4.83478e-16 0)
(3 -1.22726e-15 0)
(3 -1.77932e-15 0)
(3 -2.50639e-15 0)
(3 -2.63801e-15 0)
(3 -2.73489e-15 0)
(1.71004 -1.15986 0)
(2.04947 -0.831606 0)
(3 -1.57806e-15 0)
(3 -2.60906e-15 0)
(3 -2.8598e-15 0)
(3 -2.82107e-15 0)
(3 -2.16808e-15 0)
(3 -1.00128e-15 0)
(3 -1.05911e-15 0)
(3 -1.43009e-15 0)
(3 -2.13476e-15 0)
(3 -2.37321e-15 0)
(3 -2.51268e-15 0)
(3 -2.74344e-15 0)
(3 -2.89211e-15 0)
(3 -2.86033e-15 0)
(3 -2.42398e-15 0)
(3 -2.12512e-15 0)
(3 -1.82087e-15 0)
(3 -9.73688e-16 0)
(1.68205 -1.19606 0)
(1.90323 -0.976337 0)
(2.99916 -0.000490225 0)
(3 -1.80285e-15 0)
(3 -2.75615e-15 0)
(3 -2.13194e-15 0)
(3 -1.24803e-15 0)
(3 2.80094e-16 0)
(3 1.82247e-16 0)
(3 -3.41479e-16 0)
(3 -9.67793e-16 0)
(3 -1.36521e-15 0)
(3 -2.13081e-15 0)
(3 -1.97635e-15 0)
(3 -1.6503e-15 0)
(3 -1.63769e-15 0)
(3 -1.17756e-15 0)
(3 -1.06154e-15 0)
(3 -3.04059e-16 0)
(3 9.22017e-17 0)
(1.65521 -1.24582 0)
(1.82564 -1.09906 0)
(2.87434 -0.0916669 0)
(3 -3.22505e-15 0)
(3 -1.74241e-15 0)
(3 -8.28709e-17 0)
(3 4.87076e-16 0)
(3 1.04644e-15 0)
(3 1.4773e-15 0)
(3 1.15978e-15 0)
(3 -3.75651e-16 0)
(3 -9.85077e-16 0)
(3 -1.10035e-15 0)
(3 -6.29309e-16 0)
(3 -5.99981e-16 0)
(3 -4.39352e-16 0)
(3 -4.30733e-16 0)
(3 3.12379e-16 0)
(3 8.43162e-16 0)
(3 8.7938e-16 0)
(1.63573 -1.26505 0)
(1.63244 -1.24501 0)
(2.64618 -0.294253 0)
(3 1.20314e-15 0)
(3 7.81608e-16 0)
(3 8.30154e-16 0)
(3 1.72654e-15 0)
(3 2.11579e-15 0)
(3 2.4221e-15 0)
(3 1.59453e-15 0)
(3 2.78665e-16 0)
(3 -1.47695e-16 0)
(3 -1.11093e-16 0)
(3 -1.14809e-16 0)
(3 -2.31607e-16 0)
(3 -2.82601e-17 0)
(3 3.5119e-16 0)
(3 9.80753e-16 0)
(3 8.8149e-16 0)
(3 9.55336e-16 0)
(1.62164 -1.27842 0)
(1.5801 -1.30706 0)
(2.43974 -0.518729 0)
(3 5.5469e-16 0)
(3 4.06491e-15 0)
(3 2.28241e-15 0)
(3 2.8609e-15 0)
(3 2.42244e-15 0)
(3 2.20942e-15 0)
(3 1.65911e-15 0)
(3 9.62044e-16 0)
(3 4.68415e-16 0)
(3 2.53467e-16 0)
(3 3.22864e-16 0)
(3 6.18364e-17 0)
(3 2.81558e-16 0)
(3 5.89718e-16 0)
(3 5.93764e-16 0)
(3 1.30276e-15 0)
(3 1.39155e-15 0)
(1.60568 -1.29564 0)
(1.48167 -1.39663 0)
(2.11856 -0.854281 0)
(3.01117 0.00917752 0)
(3 -2.60487e-12 0)
(3 2.70492e-15 0)
(3 2.87587e-15 0)
(3 2.08606e-15 0)
(3 2.02939e-15 0)
(3 1.84096e-15 0)
(3 1.39642e-15 0)
(3 8.70257e-16 0)
(3 6.22938e-16 0)
(3 9.72208e-16 0)
(3 9.73881e-16 0)
(3 9.99182e-16 0)
(3 1.24256e-15 0)
(3 1.70618e-15 0)
(3 2.27645e-15 0)
(3 1.63272e-15 0)
(1.58834 -1.30495 0)
(1.47323 -1.33908 0)
(1.98862 -1.035 0)
(2.88628 -0.117571 0)
(3 1.50423e-10 0)
(3 3.54041e-15 0)
(3 2.33914e-15 0)
(3 2.36214e-15 0)
(3 1.53131e-15 0)
(3 8.92535e-16 0)
(3 5.93407e-16 0)
(3 3.82345e-16 0)
(3 4.3732e-16 0)
(3 9.72313e-16 0)
(3 1.00335e-15 0)
(3 1.46921e-15 0)
(3 1.79125e-15 0)
(3 2.19227e-15 0)
(3 2.26136e-15 0)
(3 1.22804e-15 0)
(1.58537 -1.32482 0)
(1.50294 -1.32502 0)
(1.75401 -1.18882 0)
(2.40942 -0.551345 0)
(3 6.3577e-07 0)
(3 1.23958e-14 0)
(3 -3.82606e-15 0)
(3 4.24423e-14 0)
(3 -1.34591e-14 0)
(3 3.75695e-16 0)
(3 -1.55886e-16 0)
(3 1.23326e-16 0)
(3 9.26936e-16 0)
(3 1.5223e-15 0)
(3 1.37995e-15 0)
(3 2.12684e-15 0)
(3 1.39989e-15 0)
(3 2.16862e-15 0)
(3 1.83559e-15 0)
(3 7.40609e-16 0)
(1.58371 -1.29518 0)
(1.5461 -1.28753 0)
(1.64954 -1.24278 0)
(2.07528 -0.870858 0)
(3.01215 0.00762921 0)
(3 1.64051e-12 0)
(3 2.07154e-11 0)
(3 -2.67703e-11 0)
(3 3.31206e-12 0)
(3 4.88411e-15 0)
(3 -6.13003e-16 0)
(3 7.40316e-16 0)
(3 1.63481e-15 0)
(3 1.87541e-15 0)
(3 1.79257e-15 0)
(3 1.22756e-15 0)
(3 1.66916e-15 0)
(3 2.37372e-15 0)
(3 1.71653e-15 0)
(3 8.10025e-16 0)
(1.5847 -1.28328 0)
(1.58539 -1.27581 0)
(1.64556 -1.24315 0)
(1.88394 -1.08036 0)
(2.75072 -0.218013 0)
(3 5.74388e-10 0)
(3 -1.37207e-08 0)
(3 1.23382e-08 0)
(3 -4.90698e-10 0)
(3 -2.93018e-12 0)
(3 1.11723e-13 0)
(3 -2.08112e-15 0)
(3 1.39499e-15 0)
(3 1.30901e-15 0)
(3 1.60855e-15 0)
(3 4.9261e-16 0)
(3 1.98192e-15 0)
(3 2.74318e-15 0)
(3 2.05599e-15 0)
(3 1.99169e-15 0)
(1.58685 -1.26871 0)
(1.6068 -1.26591 0)
(1.63764 -1.25674 0)
(1.70227 -1.21774 0)
(2.34926 -0.637103 0)
(3.02159 0.0204444 0)
(2.99972 -0.000105048 0)
(3 4.16396e-06 0)
(3 -7.65309e-08 0)
(3 7.7058e-10 0)
(3 -1.83422e-12 0)
(3 8.07686e-15 0)
(3 1.02531e-15 0)
(3 1.40025e-15 0)
(3 1.11001e-15 0)
(3 7.62626e-16 0)
(3 1.44528e-15 0)
(3 2.9786e-15 0)
(3 2.18424e-15 0)
(3 2.05453e-15 0)
(1.58455 -1.2567 0)
(1.60338 -1.26173 0)
(1.62256 -1.26602 0)
(1.58034 -1.33364 0)
(1.82651 -1.11928 0)
(2.70467 -0.262098 0)
(3.00468 0.000561633 0)
(2.99993 -6.10966e-05 0)
(3 2.6459e-07 0)
(3 -6.73102e-10 0)
(3 -3.379e-14 0)
(3 5.11788e-15 0)
(3 1.89502e-16 0)
(3 7.35433e-16 0)
(3 5.94947e-16 0)
(3 1.76689e-15 0)
(3 1.05261e-15 0)
(3 3.52582e-15 0)
(3 2.06812e-15 0)
(3 2.50436e-15 0)
(1.58034 -1.25402 0)
(1.5976 -1.25809 0)
(1.59817 -1.26718 0)
(1.57126 -1.29352 0)
(1.7524 -1.19766 0)
(2.25498 -0.804722 0)
(2.99972 0.0030327 0)
(3.00007 0.000347815 0)
(3 -1.35475e-08 0)
(3 2.23783e-11 0)
(3 1.73465e-13 0)
(3 -1.15868e-17 0)
(3 1.91947e-16 0)
(3 2.16866e-16 0)
(3 4.34704e-16 0)
(3 1.84782e-15 0)
(3 7.27132e-16 0)
(3 2.89398e-15 0)
(3 3.06051e-15 0)
(3 2.34391e-15 0)
(1.57229 -1.24334 0)
(1.58764 -1.25715 0)
(1.60017 -1.26499 0)
(1.60389 -1.26219 0)
(1.67281 -1.24156 0)
(1.74228 -1.22285 0)
(2.29312 -0.71721 0)
(3.00087 -0.00941722 0)
(3 -2.62635e-08 0)
(3 -1.92536e-10 0)
(3 5.649e-13 0)
(3 -1.81368e-14 0)
(3 -9.27546e-16 0)
(3 -3.06263e-16 0)
(3 7.38788e-16 0)
(3 1.60603e-15 0)
(3 3.65595e-16 0)
(3 1.11393e-15 0)
(3 2.9774e-15 0)
(3 1.84704e-15 0)
(1.57798 -1.25462 0)
(1.58307 -1.2604 0)
(1.59411 -1.2645 0)
(1.60605 -1.26367 0)
(1.6196 -1.24671 0)
(1.6 -1.26413 0)
(1.89046 -1.15553 0)
(2.95395 -0.373485 0)
(3.35806 0.602941 0)
(3 -6.04741e-11 0)
(3 -8.40707e-11 0)
(3 1.6087e-13 0)
(3 5.19362e-14 0)
(3 5.73379e-14 0)
(3 -1.19809e-14 0)
(3 7.29778e-15 0)
(3 5.08364e-16 0)
(3 1.74266e-15 0)
(3 2.73406e-15 0)
(3 3.89474e-15 0)
(1.17083 -0.757245 0)
(1.82532 -1.15722 0)
(1.84249 -1.15173 0)
(1.74518 -1.19705 0)
(1.71727 -1.20432 0)
(1.66612 -1.24573 0)
(1.65287 -1.21587 0)
(1.71965 -1.16477 0)
(1.74864 -1.22974 0)
(1.78376 -1.14102 0)
(2.27007 -0.741009 0)
(2.85858 -0.208408 0)
(3.09681 0.0281393 0)
(3.02081 0.0124996 0)
(3.00472 0.00553788 0)
(3.00192 0.00307542 0)
(3.00006 0.000599688 0)
(2.99998 2.42864e-05 0)
(2.99999 -1.43728e-05 0)
(3 -5.91674e-06 0)
(0.996968 -0.0542799 0)
(1.93076 -0.715869 0)
(2.10209 -0.817335 0)
(2.00753 -0.941189 0)
(1.97366 -0.981355 0)
(1.87751 -1.08723 0)
(1.7881 -1.14414 0)
(1.75432 -1.1473 0)
(1.75204 -1.16292 0)
(1.73055 -1.20363 0)
(1.71643 -1.19515 0)
(1.86997 -1.06665 0)
(2.10264 -0.881522 0)
(2.50069 -0.575733 0)
(2.98376 -0.136798 0)
(3.07371 0.0294362 0)
(3.00823 0.00776477 0)
(3.00294 0.00384786 0)
(3.00123 0.00219571 0)
(3.00008 0.000483845 0)
(1.12616 0.166111 0)
(1.95034 -0.35825 0)
(2.27715 -0.205485 0)
(2.24267 -0.502525 0)
(2.20778 -0.668228 0)
(2.13633 -0.796773 0)
(2.05067 -0.898906 0)
(1.96332 -0.970276 0)
(1.91078 -1.03448 0)
(1.84373 -1.1249 0)
(1.78849 -1.15664 0)
(1.79198 -1.15156 0)
(1.81202 -1.13134 0)
(1.8495 -1.08953 0)
(2.03467 -0.956341 0)
(2.25461 -0.833632 0)
(2.66467 -0.507123 0)
(3.03769 -0.0921622 0)
(3.05538 0.0240107 0)
(3.00403 0.00467218 0)
(0.927908 0.475863 0)
(1.4745 0.152577 0)
(2.26862 0.397825 0)
(2.32332 0.123324 0)
(2.36193 0.0309931 0)
(2.35309 -0.308216 0)
(2.28267 -0.559531 0)
(2.18566 -0.723337 0)
(2.13107 -0.794706 0)
(2.06916 -0.918109 0)
(1.96668 -1.01936 0)
(1.91331 -1.06821 0)
(1.88452 -1.08335 0)
(1.86988 -1.09171 0)
(1.87146 -1.05834 0)
(1.8963 -1.05011 0)
(1.96156 -1.02249 0)
(2.1653 -0.903482 0)
(2.38298 -0.79261 0)
(2.7794 -0.441592 0)
(0.860426 0.822473 0)
(1.3703 0.900212 0)
(2.13273 0.202526 0)
(2.46631 0.408097 0)
(2.46916 0.387298 0)
(2.46755 0.279254 0)
(2.43061 -0.0399895 0)
(2.38558 -0.224903 0)
(2.32509 -0.393079 0)
(2.30477 -0.537918 0)
(2.21786 -0.699413 0)
(2.14775 -0.812231 0)
(2.09144 -0.883325 0)
(2.03198 -0.951929 0)
(1.98781 -0.971751 0)
(1.95025 -0.996753 0)
(1.95491 -1.01955 0)
(1.9686 -0.997632 0)
(1.99471 -0.995518 0)
(2.07195 -0.976424 0)
(1.07003 1.22799 0)
(1.40176 1.2076 0)
(1.77815 0.794632 0)
(2.08407 1.22438 0)
(2.59084 0.319054 0)
(2.5105 0.659221 0)
(2.52961 0.456231 0)
(2.50007 0.117418 0)
(2.46965 -0.00969755 0)
(2.46116 -0.187167 0)
(2.42455 -0.376354 0)
(2.3484 -0.561521 0)
(2.29309 -0.680045 0)
(2.21184 -0.797215 0)
(2.15501 -0.844297 0)
(2.10998 -0.860494 0)
(2.06936 -0.897729 0)
(2.06761 -0.890983 0)
(2.04325 -0.919128 0)
(2.06061 -0.947963 0)
(1.31623 1.4529 0)
(1.49092 1.44907 0)
(1.75895 1.17121 0)
(1.8431 1.4636 0)
(2.13928 1.17393 0)
(2.47639 0.785086 0)
(2.62383 0.511145 0)
(2.61477 0.1672 0)
(2.60487 0.102973 0)
(2.57747 -0.0855616 0)
(2.55243 -0.238032 0)
(2.49505 -0.38972 0)
(2.4505 -0.481767 0)
(2.39381 -0.566019 0)
(2.34664 -0.597349 0)
(2.31357 -0.59804 0)
(2.27156 -0.623737 0)
(2.23704 -0.663783 0)
(2.16807 -0.755572 0)
(2.12873 -0.7955 0)
(1.52569 1.68941 0)
(1.52316 1.78262 0)
(1.62293 1.60684 0)
(1.81481 1.59187 0)
(2.08567 1.41079 0)
(2.25038 1.10706 0)
(2.4078 1.0584 0)
(2.5609 0.77244 0)
(2.58364 0.445395 0)
(2.60071 0.389864 0)
(2.60489 0.202595 0)
(2.59455 0.0706803 0)
(2.56795 -0.0474915 0)
(2.5474 -0.133663 0)
(2.49162 -0.253516 0)
(2.48122 -0.300823 0)
(2.41832 -0.42367 0)
(2.35654 -0.536367 0)
(2.29488 -0.607347 0)
(2.3024 -0.560545 0)
(1.68189 1.86757 0)
(1.57527 2.0779 0)
(1.53449 2.07402 0)
(1.75471 1.92411 0)
(2.03484 1.7195 0)
(2.21982 1.37169 0)
(2.2358 1.40823 0)
(2.35598 1.24325 0)
(2.43882 1.00903 0)
(2.47419 0.891663 0)
(2.54495 0.693667 0)
(2.58312 0.489055 0)
(2.60848 0.299877 0)
(2.63776 0.141594 0)
(2.58777 -0.0900977 0)
(2.57955 -0.201281 0)
(2.52076 -0.365184 0)
(2.48602 -0.346536 0)
(2.4387 -0.367432 0)
(2.46913 -0.289061 0)
(1.79384 1.94572 0)
(1.69054 2.2031 0)
(1.65289 2.28574 0)
(1.76078 2.08637 0)
(1.98998 1.85385 0)
(2.10121 1.63675 0)
(2.21731 1.49659 0)
(2.31468 1.37015 0)
(2.40023 1.24672 0)
(2.49993 1.03417 0)
(2.62165 0.827067 0)
(2.67136 0.561373 0)
(2.70283 0.354992 0)
(2.70934 0.171518 0)
(2.67625 -0.00121056 0)
(2.65394 -0.0511575 0)
(2.6282 -0.102516 0)
(2.61833 -0.00252964 0)
(2.55586 -0.0947624 0)
(2.58545 -0.050997 0)
(1.75765 1.90017 0)
(1.77372 2.25598 0)
(1.80187 2.34652 0)
(1.91841 2.28363 0)
(2.07093 1.95584 0)
(2.16318 1.80649 0)
(2.37348 1.52549 0)
(2.47683 1.46561 0)
(2.64286 1.3297 0)
(2.71608 0.949782 0)
(2.77257 0.833018 0)
(2.78078 0.606678 0)
(2.77011 0.555044 0)
(2.75751 0.443229 0)
(2.74098 0.379939 0)
(2.70976 0.34138 0)
(2.68757 0.315217 0)
(2.68945 0.29743 0)
(2.64838 0.138677 0)
(2.61116 -0.0249582 0)
(1.5873 1.73497 0)
(1.70144 2.14925 0)
(1.89493 2.34103 0)
(2.08483 2.3112 0)
(2.37865 2.02699 0)
(2.43413 1.9165 0)
(2.57769 1.57922 0)
(2.64821 1.49014 0)
(2.67708 1.43082 0)
(2.74603 1.23579 0)
(2.72953 1.2755 0)
(2.73587 1.06975 0)
(2.68805 0.993841 0)
(2.69359 0.897909 0)
(2.69014 0.770665 0)
(2.69642 0.66743 0)
(2.72876 0.577463 0)
(2.74199 0.400612 0)
(2.73029 0.223773 0)
(2.68127 0.10348 0)
(1.34246 1.47385 0)
(1.51892 1.93555 0)
(1.79295 2.16504 0)
(1.98661 2.26485 0)
(2.31524 2.103 0)
(2.45658 2.10501 0)
(2.42764 1.77715 0)
(2.41543 1.69767 0)
(2.44683 1.6935 0)
(2.45626 1.63709 0)
(2.48823 1.51832 0)
(2.54678 1.38189 0)
(2.56746 1.20798 0)
(2.64633 1.13035 0)
(2.67987 0.937896 0)
(2.74482 0.799972 0)
(2.79053 0.639873 0)
(2.80932 0.411832 0)
(2.76629 0.382863 0)
(2.71787 0.376691 0)
(1.26759 1.26289 0)
(1.42013 1.77157 0)
(1.62327 2.01326 0)
(1.73457 2.19732 0)
(2.0427 2.20962 0)
(2.11253 2.25077 0)
(2.16413 2.02755 0)
(2.15255 1.89883 0)
(2.15413 1.84128 0)