/*--------------------------------*- C++ -*----------------------------------*\
  =========                 |
  \\      /  F ield         | OpenFOAM: The Open Source CFD Toolbox
   \\    /   O peration     | Website:  https://openfoam.org
    \\  /    A nd           | Version:  7
     \\/     M anipulation  |
\*---------------------------------------------------------------------------*/
FoamFile
{
    version     2.0;
    format      ascii;
    class       volScalarField;
    location    "8.2";
    object      p;
}
// * * * * * * * * * * * * * * * * * * * * * * * * * * * * * * * * * * * * * //

dimensions      [1 -1 -2 0 0 0 0];

internalField   nonuniform List<scalar> 
3700
(
0.183609
0.255047
0.302084
0.321436
0.324953
0.342911
0.351934
0.367373
0.40717
0.439978
0.469272
0.480074
0.471308
0.475456
0.492752
0.498689
0.507541
0.504958
0.511312
0.531134
0.135145
0.10884
0.114707
0.10672
0.109606
0.117239
0.127434
0.136365
0.152244
0.171177
0.181126
0.174067
0.151558
0.145154
0.155249
0.176453
0.192986
0.195769
0.199789
0.196814
0.143289
0.102557
0.0793857
0.0625574
0.0586307
0.0580427
0.058968
0.0640774
0.0684872
0.0729947
0.0687265
0.0698018
0.071773
0.0789109
0.0899075
0.102133
0.113766
0.122043
0.128646
0.130162
0.141985
0.0956246
0.0654802
0.0498139
0.0490959
0.051797
0.0585234
0.0729782
0.0870799
0.101307
0.104304
0.106664
0.106985
0.10776
0.111257
0.121635
0.13488
0.151092
0.168959
0.18902
0.131166
0.0844474
0.0551497
0.0434115
0.0427979
0.046288
0.0550816
0.0726569
0.0904639
0.108557
0.128411
0.139586
0.148121
0.150828
0.15055
0.148183
0.15113
0.166531
0.191966
0.235892
0.113448
0.077556
0.0501152
0.0418123
0.0415344
0.0457422
0.0544363
0.0700712
0.0870402
0.10689
0.136322
0.155388
0.177948
0.196806
0.212543
0.216266
0.219202
0.225166
0.236506
0.284269
0.093131
0.0682622
0.0453815
0.0427634
0.0437967
0.051312
0.0654629
0.0791376
0.0915199
0.106922
0.133875
0.158826
0.194195
0.226025
0.254188
0.283965
0.306511
0.329585
0.339957
0.387037
0.0752645
0.0536335
0.0400146
0.0449901
0.0540786
0.0729647
0.10003
0.117518
0.128332
0.142685
0.150565
0.167054
0.204869
0.247871
0.289724
0.338498
0.387022
0.437326
0.469954
0.547845
0.0579782
0.0400592
0.0346509
0.0438964
0.0588535
0.0845642
0.123289
0.152649
0.181334
0.212422
0.231519
0.256153
0.27862
0.313284
0.35096
0.402424
0.470785
0.552652
0.619306
0.75037
0.041948
0.0305627
0.0315533
0.0432571
0.0586339
0.085
0.125583
0.160707
0.214209
0.274696
0.32419
0.372462
0.423746
0.47492
0.510827
0.556389
0.6141
0.704419
0.817577
0.967375
0.0305247
0.0238672
0.0282907
0.0427311
0.0577416
0.0835161
0.117588
0.151368
0.221019
0.311073
0.395348
0.475074
0.566159
0.63951
0.714754
0.791766
0.86916
0.951007
1.1399
1.13569
0.0226971
0.0188524
0.0252271
0.0423622
0.0636875
0.114754
0.148952
0.185714
0.264192
0.369549
0.493021
0.606592
0.731412
0.834223
0.956431
1.08716
1.21813
1.33172
1.53903
1.49446
0.0172231
0.0156415
0.0234888
0.0533763
0.104092
0.19918
0.26657
0.370657
0.513514
0.65309
0.788369
0.909218
1.03316
1.14803
1.29338
1.47877
1.67102
1.8519
2.09909
2.08069
0.0138834
0.0144831
0.0300655
0.0923753
0.179549
0.291916
0.410412
0.583284
0.791827
1.01268
1.18937
1.35787
1.52114
1.68066
1.87629
2.09806
2.32825
2.57646
2.79781
2.99686
0.0124604
0.0218811
0.0533838
0.140643
0.25102
0.37253
0.562733
0.821957
1.12436
1.43863
1.69061
1.93408
2.16715
2.41149
2.71081
2.99313
3.26159
3.51544
3.66733
3.78468
0.0138546
0.0393767
0.0865537
0.172297
0.341566
0.612996
0.9981
1.40904
1.87586
2.26366
2.5623
2.84567
3.12695
3.43176
3.75095
3.94815
4.0682
4.12739
4.03737
3.91631
0.0158008
0.0616144
0.154119
0.320552
0.765576
1.42695
2.03995
2.63483
3.21462
3.57655
3.79226
4.02931
4.24497
4.40202
4.47879
4.40249
4.17982
3.63835
2.78131
1.8888
0.0336005
0.129566
0.483834
1.20907
2.12196
2.89876
3.55109
4.24608
4.78666
4.81717
4.72949
4.74805
4.70965
4.54098
4.0316
3.07287
2.09288
1.33098
1.01769
0.992847
0.305342
0.881016
1.99683
3.18163
4.18199
4.83063
5.40783
5.88365
5.73914
5.28319
4.8489
4.31228
3.39622
2.33034
1.4286
1.03041
0.989409
0.994955
0.997339
0.999446
2.33013
3.65073
4.91533
5.72948
6.17713
6.40727
6.54023
6.24936
4.55805
3.22149
2.38061
1.56744
1.07961
0.987302
0.992789
0.996212
0.999139
0.999973
1.00002
1.00001
6.99232
6.93432
6.89872
6.89666
6.9509
6.79703
6.0319
2.35852
0.630564
1
1
1
1
1
1
1
1
1
1
1
6.95632
6.89776
6.83973
6.81132
6.90532
5.78395
2.5724
1.01488
1
1
1
1
1
1
1
1
1
1
1
1
6.80264
6.85096
6.80839
6.6145
6.37804
3.31614
1.03278
0.999502
1
1
1
1
1
1
1
1
1
1
1
1
6.67147
6.83123
6.81612
6.38893
4.73693
1.46732
0.994335
1.00009
0.999999
1
1
1
1
1
1
1
1
1
1
1
6.51258
6.83487
6.85933
6.19758
2.80761
0.973489
1.00036
0.999994
1
1
1
1
1
1
1
1
1
1
1
1
6.38903
6.7537
6.84817
5.03691
1.37867
1
1
1
1
1
1
1
1
1
1
1
1
1
1
1
6.35153
6.64998
6.59662
3.45832
0.975867
1
1
1
1
1
1
1
1
1
1
1
1
1
1
1
6.47825
6.63597
6.08385
2.06974
1
1
1
1
1
1
1
1
1
1
1
1
1
1
1
1
6.94556
6.72478
4.94578
1.16959
1
1
1
1
1
1
1
1
1
1
1
1
1
1
1
1
7.21133
6.35865
3.54378
0.987581
1
1
1
1
1
1
1
1
1
1
1
1
1
1
1
1
7.42978
6.02607
2.29725
1
1
1
1
1
1
1
1
1
1
1
1
1
1
1
1
1
7.51521
5.40207
1.59073
1
1
1
1
1
1
1
1
1
1
1
1
1
1
1
1
1
7.56082
4.72533
1.17344
1
1
1
1
1
1
1
1
1
1
1
1
1
1
1
1
1
7.42365
3.96326
1.00122
1
1
1
1
1
1
1
1
1
1
1
1
1
1
1
1
1
7.131
3.19403
1
1
1
1
1
1
1
1
1
1
1
1
1
1
1
1
1
1
6.8983
2.59146
1
1
1
1
1
1
1
1
1
1
1
1
1
1
1
1
1
1
6.75131
1.90966
1
1
1
1
1
1
1
1
1
1
1
1
1
1
1
1
1
1
6.29477
1.341
1
1
1
1
1
1
1
1
1
1
1
1
1
1
1
1
1
1
5.66126
1.00476
1
1
1
1
1
1
1
1
1
1
1
1
1
1
1
1
1
1
4.66928
1.00006
1
1
1
1
1
1
1
1
1
1
1
1
1
1
1
1
1
1
4.67061
1.00007
1
1
1
1
1
1
1
1
1
1
1
1
1
1
1
1
1
1
5.67711
1.00461
1
1
1
1
1
1
1
1
1
1
1
1
1
1
1
1
1
1
6.27778
1.33359
1
1
1
1
1
1
1
1
1
1
1
1
1
1
1
1
1
1
6.76207
1.89648
1
1
1
1
1
1
1
1
1
1
1
1
1
1
1
1
1
1
6.91198
2.59618
1
1
1
1
1
1
1
1
1
1
1
1
1
1
1
1
1
1
7.11977
3.21297
1
1
1
1
1
1
1
1
1
1
1
1
1
1
1
1
1
1
7.41771
3.95542
1.00065
1
1
1
1
1
1
1
1
1
1
1
1
1
1
1
1
1
7.56537
4.72307
1.17074
1
1
1
1
1
1
1
1
1
1
1
1
1
1
1
1
1
7.52066
5.39471
1.59167
1
1
1
1
1
1
1
1
1
1
1
1
1
1
1
1
1
7.44202
6.03359
2.28401
1
1
1
1
1
1
1
1
1
1
1
1
1
1
1
1
1
7.21783
6.35626
3.53875
0.98747
1
1
1
1
1
1
1
1
1
1
1
1
1
1
1
1
6.93706
6.71995
4.94266
1.17732
1
1
1
1
1
1
1
1
1
1
1
1
1
1
1
1
6.47414
6.65465
6.11015
2.07102
1
1
1
1
1
1
1
1
1
1
1
1
1
1
1
1
6.35001
6.65043
6.58085
3.47745
0.980771
1
1
1
1
1
1
1
1
1
1
1
1
1
1
1
6.38275
6.74285
6.83705
4.98756
1.36356
1
1
1
1
1
1
1
1
1
1
1
1
1
1
1
6.50432
6.83444
6.86954
6.2819
2.77775
0.973718
1.00037
0.999994
1
1
1
1
1
1
1
1
1
1
1
1
6.66343
6.8306
6.82975
6.39332
4.75671
1.48949
0.993836
1.0001
0.999999
1
1
1
1
1
1
1
1
1
1
1
6.79415
6.84816
6.78549
6.57705
6.33577
3.33751
1.03851
0.999385
1
1
1
1
1
1
1
1
1
1
1
1
6.94993
6.89482
6.83083
6.79341
6.93214
5.77436
2.55884
1.01201
1
1
1
1
1
1
1
1
1
1
1
1
6.99391
6.93607
6.90468
6.91789
6.98823
6.79769
6.02528
2.32716
0.63735
1
1
1
1
1
1
1
1
1
1
1
2.32988
3.65522
4.91465
5.73059
6.18862
6.41747
6.54434
6.24551
4.55286
3.21675
2.37865
1.5694
1.08128
0.987449
0.992829
0.996226
0.999139
0.999972
1.00002
1.00001
0.305694
0.877599
2.00993
3.20985
4.18974
4.8175
5.3954
5.88209
5.7412
5.28691
4.85093
4.31208
3.3963
2.32996
1.42814
1.03021
0.989368
0.994933
0.997329
0.999444
0.0331845
0.132975
0.473511
1.19068
2.11628
2.907
3.55059
4.23949
4.79371
4.82237
4.73045
4.74658
4.70966
4.54415
4.03539
3.07547
2.09505
1.33231
1.01795
0.992839
0.0132132
0.05388
0.14997
0.330151
0.772174
1.41615
2.03555
2.63857
3.22416
3.58156
3.79387
4.02818
4.2456
4.40594
4.48024
4.40347
4.18105
3.63978
2.78168
1.88889
0.0163178
0.0447862
0.0956827
0.170326
0.325359
0.595948
0.987874
1.40272
1.87514
2.26659
2.56526
2.84787
3.12946
3.43481
3.75372
3.95001
4.06808
4.12559
4.0356
3.91476
0.018391
0.0306303
0.0634952
0.137949
0.251561
0.371278
0.551419
0.81027
1.11364
1.43095
1.68535
1.93099
2.16596
2.41175
2.71213
2.99429
3.26078
3.51307
3.66512
3.78322
0.0182241
0.0208552
0.035597
0.0949631
0.189499
0.294419
0.410117
0.583006
0.786041
1.00411
1.18078
1.35111
1.51703
1.67892
1.87589
2.0984
2.32829
2.57474
2.79666
2.997
0.0194751
0.0190338
0.0267966
0.0581468
0.113515
0.205043
0.275109
0.375155
0.513797
0.650009
0.783924
0.905826
1.03155
1.14795
1.2944
1.48039
1.67234
1.85311
2.09936
2.08035
0.0235786
0.0215777
0.0296065
0.0459704
0.0650696
0.116833
0.160127
0.190863
0.266892
0.371366
0.494798
0.608454
0.733491
0.836538
0.958725
1.08894
1.21926
1.33258
1.53956
1.4949
0.0300896
0.0251918
0.033198
0.0450626
0.0559101
0.0799709
0.116002
0.150743
0.22025
0.311997
0.397798
0.478118
0.56951
0.642573
0.717379
0.7938
0.870231
0.951204
1.13925
1.13513
0.0394603
0.0305488
0.0354459
0.0452669
0.0559074
0.0803261
0.121403
0.159703
0.213577
0.275488
0.326137
0.37481
0.426363
0.477366
0.512835
0.557741
0.614404
0.703855
0.8169
0.966202
0.0543699
0.0413186
0.0344366
0.0444138
0.0560684
0.0817147
0.119231
0.152378
0.182713
0.214685
0.233886
0.257809
0.279439
0.313543
0.350945
0.402331
0.470783
0.552241
0.618878
0.749741
0.0741635
0.0559914
0.0372761
0.0434658
0.0525949
0.0740646
0.0985904
0.118523
0.130139
0.14415
0.15118
0.166312
0.203466
0.246907
0.288855
0.337594
0.386269
0.436525
0.468722
0.547551
0.101354
0.0715601
0.0445151
0.0415835
0.0421763
0.0547173
0.0675311
0.0780641
0.0907662
0.104523
0.130342
0.15647
0.192797
0.225195
0.253403
0.282925
0.30502
0.327664
0.33766
0.385665
0.118933
0.081675
0.0536971
0.0405589
0.0394715
0.0449702
0.0540597
0.0642998
0.0827751
0.102845
0.133623
0.153886
0.177071
0.195926
0.211646
0.214564
0.216818
0.222899
0.235013
0.284161
0.124407
0.0856442
0.0585093
0.0410401
0.0400471
0.0447218
0.0542766
0.0654124
0.0857507
0.105325
0.127154
0.138902
0.147548
0.149919
0.149491
0.147247
0.150479
0.166605
0.192394
0.236985
0.127708
0.088303
0.0637254
0.0447702
0.0426108
0.0456612
0.0568272
0.0672865
0.0829899
0.100997
0.104874
0.107213
0.107088
0.107722
0.111605
0.122598
0.136013
0.152225
0.170112
0.190532
0.130211
0.091243
0.0722028
0.0529948
0.0488085
0.0499823
0.0568874
0.0636615
0.0682608
0.0749142
0.0705495
0.0714582
0.0736944
0.0812354
0.0922078
0.104137
0.115397
0.123262
0.129588
0.131258
0.135806
0.108526
0.107513
0.107467
0.109116
0.10596
0.11366
0.133087
0.146622
0.150299
0.141281
0.145886
0.158144
0.175996
0.182229
0.182887
0.194019
0.214273
0.242039
0.232542
0.197614
0.258112
0.294526
0.324411
0.327643
0.325236
0.336398
0.365873
0.40436
0.433351
0.457239
0.476912
0.482286
0.498704
0.502754
0.494309
0.509855
0.516553
0.52442
0.524881
0.574223
0.635891
0.707819
0.81737
0.824858
0.845177
0.843861
0.862525
0.89175
0.936422
0.954227
0.956335
0.946324
0.943191
0.95417
0.960159
0.963153
0.961884
0.955562
0.955628
0.305251
0.427145
0.54698
0.680692
0.764373
0.835496
0.841688
0.852343
0.877661
0.916735
0.940972
0.948915
0.946782
0.941353
0.944628
0.950121
0.957077
0.960244
0.959667
0.961124
0.134057
0.163196
0.236166
0.324939
0.514996
0.697707
0.765061
0.835359
0.876033
0.9035
0.929212
0.937709
0.941839
0.939583
0.938972
0.940571
0.948325
0.955578
0.960766
0.964716
0.188699
0.21269
0.237001
0.240491
0.255611
0.33388
0.545512
0.736069
0.81001
0.868584
0.918191
0.928726
0.932001
0.943928
0.945204
0.943666
0.946407
0.952416
0.958941
0.964276
0.241671
0.258461
0.271093
0.282912
0.298678
0.29684
0.32091
0.425573
0.615309
0.771709
0.856913
0.916318
0.931693
0.950708
0.95154
0.948711
0.946839
0.945758
0.950851
0.960202
0.310989
0.325166
0.336494
0.331664
0.332027
0.335582
0.342048
0.33754
0.367071
0.477282
0.675495
0.848408
0.917223
0.953355
0.95322
0.954464
0.950742
0.944135
0.945994
0.95828
0.392653
0.411494
0.391603
0.363073
0.366201
0.378286
0.379876
0.383553
0.380204
0.368324
0.437896
0.640949
0.836041
0.949159
0.950884
0.954513
0.949844
0.938282
0.943352
0.959419
0.522899
0.505226
0.472623
0.41623
0.39932
0.415005
0.425742
0.427697
0.419536
0.397725
0.38312
0.432109
0.618182
0.828212
0.928499
0.953973
0.946435
0.93635
0.953883
0.963652
0.678003
0.623575
0.55695
0.477216
0.451394
0.465568
0.471373
0.46764
0.458469
0.440696
0.407592
0.400572
0.434845
0.611424
0.832381
0.943842
0.921355
0.932102
0.963418
0.964762
0.854925
0.772454
0.682668
0.568226
0.515002
0.507583
0.507041
0.496987
0.492699
0.476977
0.449653
0.426338
0.424595
0.455716
0.607895
0.836261
0.885652
0.938855
0.973136
0.961746
1.24795
0.947426
0.844978
0.731146
0.602031
0.569403
0.563811
0.563784
0.55821
0.539496
0.506834
0.482561
0.465121
0.455894
0.474641
0.569757
0.752894
0.892911
0.940738
0.952289
2.05926
1.44067
1.1481
1.02541
0.873187
0.762841
0.679059
0.635193
0.616958
0.590712
0.56375
0.545676
0.530209
0.513132
0.481833
0.48369
0.52203
0.63984
0.792868
0.912678
2.50885
2.17894
1.68781
1.35419
1.12282
0.9616
0.82764
0.70925
0.685109
0.674433
0.662221
0.645258
0.622053
0.586615
0.551174
0.515645
0.518248
0.530781
0.578017
0.75325
2.36667
2.35108
2.23554
1.91818
1.54724
1.27409
1.11486
0.956741
0.861515
0.810207
0.756702
0.715136
0.673811
0.625509
0.603281
0.587839
0.566483
0.553689
0.546375
0.583059
1.68017
2.14647
2.22089
2.19303
2.06479
1.76858
1.49197
1.25955
1.07789
0.955728
0.851575
0.777205
0.739078
0.706542
0.697886
0.683085
0.648716
0.612398
0.571864
0.57475
1.10903
1.43506
1.84884
2.11557
2.11544
2.07489
1.92961
1.68699
1.43137
1.24342
1.09338
0.961945
0.902306
0.850085
0.801604
0.753633
0.695561
0.644281
0.623904
0.609287
1.00452
1.04431
1.20478
1.55161
1.86084
2.02006
2.01383
1.97356
1.8364
1.62394
1.40816
1.21696
1.07679
0.96974
0.87883
0.82771
0.78768
0.733536
0.718814
0.692936
1.00009
1.00113
1.01031
1.07937
1.27104
1.57221
1.8194
1.93432
1.92892
1.88719
1.77079
1.58412
1.38287
1.22287
1.08017
0.994582
0.949138
0.892561
0.831246
0.756291
1
1.00001
1.00014
1.00255
1.01937
1.09943
1.28746
1.55934
1.7662
1.85565
1.851
1.81628
1.71473
1.55809
1.38459
1.21463
1.09838
1.00835
0.926953
0.830353
1
1
1
1.00003
1.00033
1.00379
1.02464
1.10717
1.28666
1.52153
1.70832
1.78689
1.78286
1.75485
1.67772
1.53916
1.37829
1.22809
1.12444
0.998984
1
1
1
1
1
1.00004
1.00051
1.00448
1.02752
1.10482
1.26516
1.47038
1.64454
1.72745
1.72359
1.70242
1.64315
1.52665
1.39533
1.19572
1
1
1
1
1
1
1
1.00006
1.00062
1.00471
1.02481
1.09637
1.23378
1.42241
1.57065
1.6697
1.66798
1.655
1.61768
1.46597
1
1
1
1
1
1
1
1
1.00001
1.00006
1.00054
1.00465
1.02067
1.08213
1.19873
1.37344
1.50458
1.60199
1.61561
1.59296
1
1
1
1
1
1
1
1
1
1
1.00001
1.00006
1.00045
1.0037
1.01772
1.06305
1.16496
1.31493
1.44333
1.54819
1
1
1
1
1
1
1
1
1
1
1
1
1
1.00005
1.0004
1.00253
1.01413
1.05157
1.13686
1.38788
1.62801
2.46117
2.58367
2.08595
1.31049
1.03698
1.00187
1.00005
1
1
1
1
1
1
1
2.3419
2.817
2.52727
1.54146
1.04834
1.00082
1
1
1
1
1
1
1
1
1
2.93406
2.87138
1.98102
1.1518
1.00514
1.00005
1
1
1
1
1
1
1
1
1
3.25194
2.55483
1.36384
1.01937
1.00019
1
1
1
1
1
1
1
1
1
1
3.32178
1.68457
1.04733
1.00051
1
1
1
1
1
1
1
1
1
1
1
2.07248
1.07364
1.00048
0.999999
1
1
1
1
1
1
1
1
1
1
1
1.10285
1.00059
0.999997
1
1
1
1
1
1
1
1
1
1
1
1
0.998126
0.999864
0.999996
1
1
1
1
1
1
1
1
1
1
1
1
0.999967
1
1
1
1
1
1
1
1
1
1
1
1
1
1
1
1
1
1
1
1
1
1
1
1
1
1
1
1
1
1
1
1
1
1
1
1
1
1
1
1
1
1
1
1
1
1
1
1
1
1
1
1
1
1
1
1
1
1
1
1
1
1
1
1
1
1
1
1
1
1
1
1
1
1
1
1
1
1
1
1
1
1
1
1
1
1
1
1
1
1
1
1
1
1
1
1
1
1
1
1
1
1
1
1
1
1
1
1
1
1
1
1
1
1
1
1
1
1
1
1
1
1
1
1
1
1
1
1
1
1
1
1
1
1
1
1
1
1
1
1
1
1
1
1
1
1
1
1
1
1
1
1
1
1
1
1
1
1
1
1
1
1
1
1
1
1
1
1
1
1
1
1
1
1
1
1
1
1
1
1
1
1
1
1
1
1
1
1
1
1
1
1
1
1
1
1
1
1
1
1
1
1
1
1
1
1
1
1
1
1
1
1
1
1
1
1
1
1
1
1
1
1
1
1
1
1
1
1
1
1
1
1
1
1
1
1
1
1
1
1
1
1
1
1
1
1
1
1
1
1
1
1
1
1
1
1
1
1
1
1
1
1
1
1
1
1
1
1
1
1
1
1
1
1
1
1
1
1
1
1
1
1
1
1
1
1
1
1
1
1
1
1
1
1
1
1
1
1
1
1
1
1
1
1
1
1
1
1
1
1
1
1
1
1
1
1
1
1
1
1
1
1
1
1
1
1
1
1
1
1
1
1
1
1
1
1
1
1
1
1
1
1
1
1
1
1
1
1
1
1
1
1
1
1
1
1
1
1
1
1
1
1
1
1
1
1
1
1
1
1
1
1
1
1
1
1
1
1
1
1
1
1
1
1
1
1
1
1
1
1
1
1
1
1
1
1
1
1
1
1
1
1
1
1
1
1
1
1
1
1
1
1
1
1
1
1
1
1
1
1
1
1
1
1
1
1
1
1
1
1
1
1
1
1
1
1
1
1
1
1
1
1
1
1
1
1
1
1
1
1
1
1
1
1
1
1
1
1
1
1
1
1
1
1
1
1
1
1
1
1
1
1
1
1
1
1
1
1
1
1
1
1
1
1
1
1
1
1
1
1
1
1
1
1
1
1
1
1
1
1
1
1
1
1
1
1
1
1
1
1
1
1
1
1
1
1
1
1
1
1
1
1
1
1
1
1
1
1
1
1
1
1
1
1
1
1
1
1
1
1
1
1
1
1
1
1
1
1
1
1
1
1
1
1
1
1
1
1
1
1
1
1
1
1
1
1
1
1
1
1
1
1
1
1
1
1
1
1
1
1
1
1
1
1
1
1
1
1
1
1
1
1
1
1
1
1
1
1
1
1
1
1
1
1
1
1
1
1
1
1
1
1
1
1
1
1
1
1
1
1
1
1
1
1
1
1
1
1
1
1
1
1
1
1
1
1
1
1
1
1
1
1
1
1
1
1
1
1
1
1
1
1
1
1
1
1
1
1
1
1
1
1
1
1
1
1
1
1
1
1
1
1
1
1
1
1
1
1
1
1
1
1
1
1
1
1
1
1
1
1
1
1
1
1
1
1
1
1
1
1
1
1
1
1
1
1
1
1
1
1
1
1
1
1
1
1
1
1
1
1
1
1
1
1
1
1
1
1
1
1
1
1
1
1
1
1
1
1
1
1
1
1
1
1
1
1
1
1
1
1
1
1
1
1
1
1
1
1
1
1
1
1
1
1
1
1
1
1
1
1
1
1
1
1
1
1
1
1
1
1
1
1
1
1
1
1
1
1
1
1
1
1
1
1
1
1
1
1
1
1
1
1
1
1
1
1
1
1
1
1
1
1
1
1
1
1
1
1
1
1
1
1
1
1
1
1
1
1
1
1
1
1
1
1
1
1
1
1
1
1
1
1
1
1
0.999967
1
1
1
1
1
1
1
1
1
1
1
1
1
1
0.998122
0.999864
0.999996
1
1
1
1
1
1
1
1
1
1
1
1
1.10296
1.00059
0.999997
1
1
1
1
1
1
1
1
1
1
1
1
2.07232
1.07373
1.00049
0.999999
1
1
1
1
1
1
1
1
1
1
1
3.32117
1.6845
1.04725
1.00051
1
1
1
1
1
1
1
1
1
1
1
3.25139
2.55484
1.364
1.01935
1.00019
1
1
1
1
1
1
1
1
1
1
2.93444
2.87153
1.98107
1.1519
1.00515
1.00005
1
1
1
1
1
1
1
1
1
2.34252
2.81743
2.52691
1.5411
1.04829
1.00081
1
1
1
1
1
1
1
1
1
1.62813
2.46133
2.58359
2.08552
1.31022
1.03696
1.00187
1.00005
1
1
1
1
1
1
1
1.24826
2.05943
2.50781
2.36638
1.68116
1.10907
1.00452
1.00009
1
1
1
1
1
1
1
0.949635
1.45347
2.17766
2.35006
2.14526
1.43536
1.04435
1.00114
1.00001
1
1
1
1
1
1
0.835756
1.14388
1.68874
2.23764
2.22061
1.84834
1.20461
1.0103
1.00014
1
1
1
1
1
1
0.718321
1.01558
1.35281
1.91938
2.19441
2.11621
1.55118
1.07926
1.00254
1.00003
1
1
1
1
1
0.602318
0.877309
1.12928
1.53635
2.06187
2.11593
1.86105
1.2707
1.01932
1.00033
1
1
1
1
1
0.566777
0.751572
0.971143
1.29594
1.77128
2.07546
2.02084
1.57233
1.09942
1.00379
1.00004
1
1
1
1
0.563012
0.666637
0.811909
1.12714
1.50046
1.93076
2.01489
1.82007
1.28781
1.02468
1.00051
1
1
1
1
0.56881
0.641615
0.700705
0.932254
1.25375
1.69311
1.97359
1.93473
1.55911
1.10723
1.0045
1.00006
1
1
1
0.566878
0.630806
0.68951
0.858994
1.06414
1.42163
1.83766
1.92886
1.76654
1.28645
1.02737
1.00062
1.00001
1
1
0.54436
0.599354
0.668273
0.814386
0.96231
1.23634
1.61859
1.88685
1.85557
1.5216
1.10503
1.00472
1.00006
1
1
0.498982
0.563767
0.653259
0.759095
0.86374
1.09278
1.40668
1.76968
1.85074
1.70757
1.26512
1.02495
1.00055
1.00001
1
0.480084
0.54979
0.642028
0.707784
0.780149
0.974184
1.22037
1.5826
1.81589
1.78758
1.47136
1.09604
1.0046
1.00006
1
0.466356
0.53709
0.621374
0.664364
0.737492
0.905881
1.07687
1.3851
1.71654
1.78372
1.64483
1.2341
1.02068
1.00045
1
0.455697
0.516824
0.588962
0.62422
0.703551
0.850323
0.967953
1.22164
1.55908
1.75597
1.72733
1.42212
1.08234
1.0037
1.00005
0.475377
0.487021
0.55292
0.599827
0.696364
0.800737
0.880873
1.08164
1.3829
1.67847
1.72368
1.57094
1.19823
1.01769
1.0004
0.571469
0.488359
0.519108
0.579727
0.679244
0.748848
0.828399
1.00242
1.21868
1.53895
1.70255
1.67015
1.37309
1.06278
1.00252
0.754478
0.52612
0.522526
0.564814
0.647317
0.690591
0.78065
0.950739
1.10134
1.37944
1.64359
1.6683
1.50483
1.16515
1.01417
0.890569
0.64129
0.534325
0.558105
0.615547
0.647768
0.729369
0.88848
1.00566
1.22912
1.52717
1.65478
1.60274
1.31554
1.05173
0.935628
0.788172
0.578712
0.548931
0.570815
0.627265
0.721266
0.828179
0.924401
1.12453
1.39495
1.61718
1.61533
1.44332
1.1368
0.950706
0.910979
0.750066
0.581185
0.572877
0.610738
0.695176
0.755845
0.830125
0.998889
1.19519
1.46551
1.59259
1.54787
1.38751
0.850736
0.772919
0.684006
0.57273
0.519864
0.508493
0.500154
0.498217
0.492414
0.465377
0.436824
0.422011
0.423072
0.455304
0.611687
0.839185
0.882945
0.933887
0.969742
0.959543
0.674695
0.623666
0.563299
0.487374
0.455597
0.463628
0.468566
0.466545
0.451384
0.426034
0.400843
0.401654
0.437262
0.613897
0.842135
0.945108
0.919803
0.931098
0.962064
0.963318
0.519453
0.506221
0.476196
0.419136
0.402076
0.413381
0.424592
0.42402
0.412217
0.38848
0.384435
0.431384
0.612313
0.833616
0.922508
0.954398
0.945638
0.934933
0.95355
0.963467
0.392506
0.408172
0.401775
0.377384
0.37493
0.380484
0.382966
0.38349
0.375182
0.37005
0.436226
0.632754
0.823952
0.949904
0.945446
0.951946
0.950286
0.939231
0.946351
0.96215
0.311645
0.328103
0.332332
0.329323
0.330686
0.335559
0.343916
0.337915
0.363793
0.481575
0.679579
0.841416
0.925223
0.953397
0.948474
0.951456
0.954468
0.951024
0.951588
0.962112
0.242014
0.260221
0.278679
0.288621
0.298877
0.295805
0.319767
0.415775
0.605976
0.774206
0.871671
0.91143
0.935052
0.948208
0.948183
0.94862
0.952988
0.95404
0.95549
0.960845
0.190253
0.212357
0.230061
0.237917
0.260742
0.3443
0.549955
0.734108
0.812033
0.874966
0.919056
0.927785
0.929599
0.936685
0.941531
0.947459
0.956352
0.961429
0.961809
0.960779
0.135086
0.159618
0.237708
0.341084
0.533761
0.701224
0.76499
0.834364
0.881052
0.910021
0.92958
0.93375
0.93315
0.933055
0.939456
0.948732
0.96123
0.964934
0.964366
0.958688
0.266115
0.402645
0.545139
0.6873
0.767389
0.835484
0.838101
0.853936
0.89048
0.92608
0.945345
0.946038
0.934237
0.928812
0.939151
0.955337
0.965629
0.966155
0.960176
0.95305
0.551808
0.637373
0.710035
0.817137
0.823535
0.850703
0.842018
0.861831
0.900042
0.929757
0.938578
0.938597
0.931907
0.936359
0.951567
0.957424
0.957307
0.955492
0.951867
0.952869
)
;

boundaryField
{
    inlet
    {
        type            fixedValue;
        value           uniform 1;
    }
    outlet
    {
        type            zeroGradient;
    }
    airfoil
    {
        type            zeroGradient;
    }
    top
    {
        type            symmetryPlane;
    }
    bottom
    {
        type            symmetryPlane;
    }
    defaultFaces
    {
        type            empty;
    }
}


// ************************************************************************* //
