/*--------------------------------*- C++ -*----------------------------------*\
  =========                 |
  \\      /  F ield         | OpenFOAM: The Open Source CFD Toolbox
   \\    /   O peration     | Website:  https://openfoam.org
    \\  /    A nd           | Version:  7
     \\/     M anipulation  |
\*---------------------------------------------------------------------------*/
FoamFile
{
    version     2.0;
    format      ascii;
    class       volScalarField;
    location    "8.2";
    object      T;
}
// * * * * * * * * * * * * * * * * * * * * * * * * * * * * * * * * * * * * * //

dimensions      [0 0 0 1 0 0 0];

internalField   nonuniform List<scalar> 
3700
(
100.676
100.807
100.824
100.799
100.801
100.857
100.912
100.965
101.053
101.124
101.141
101.135
101.107
101.066
101.066
101.084
101.081
101.067
101.053
101.051
100.245
100.223
100.287
100.266
100.313
100.415
100.497
100.505
100.568
100.676
100.714
100.682
100.552
100.4
100.406
100.464
100.476
100.448
100.405
100.391
100.286
100.185
100.126
100.057
100.034
100.016
100.001
100.006
99.9985
99.9871
99.9463
99.9343
99.9344
99.9564
99.9892
100.018
100.034
100.042
100.04
100.027
100.336
100.197
100.082
99.9812
99.9732
99.9831
100.005
100.045
100.068
100.077
100.064
100.041
100.014
99.9906
99.9904
100.02
100.044
100.066
100.082
100.097
100.345
100.175
100.006
99.9011
99.8859
99.901
99.9527
100.034
100.077
100.103
100.12
100.118
100.115
100.098
100.075
100.048
100.044
100.063
100.098
100.14
100.312
100.137
99.9522
99.868
99.8541
99.8754
99.9258
99.9932
100.038
100.09
100.132
100.141
100.16
100.161
100.159
100.151
100.139
100.132
100.131
100.166
100.221
100.077
99.9033
99.8628
99.8477
99.8714
99.9234
99.9807
100.023
100.07
100.111
100.135
100.169
100.187
100.197
100.211
100.217
100.223
100.224
100.244
100.14
99.991
99.858
99.8757
99.8981
99.9614
100.019
100.042
100.051
100.084
100.104
100.126
100.16
100.191
100.216
100.242
100.266
100.284
100.293
100.328
100.072
99.9112
99.8217
99.8847
99.9546
100.052
100.125
100.144
100.163
100.186
100.193
100.207
100.215
100.227
100.242
100.266
100.298
100.332
100.352
100.396
100.001
99.85
99.8114
99.8925
99.9786
100.102
100.176
100.193
100.23
100.266
100.287
100.303
100.324
100.334
100.338
100.343
100.354
100.38
100.413
100.454
99.9235
99.8035
99.8122
99.9023
100.025
100.165
100.198
100.207
100.257
100.304
100.337
100.361
100.391
100.401
100.414
100.426
100.44
100.455
100.496
100.494
99.8314
99.7424
99.8222
99.9385
100.118
100.251
100.246
100.27
100.313
100.343
100.376
100.404
100.436
100.453
100.476
100.498
100.519
100.538
100.577
100.568
99.7219
99.6779
99.8481
100.002
100.199
100.317
100.328
100.382
100.434
100.47
100.484
100.496
100.507
100.519
100.539
100.568
100.596
100.622
100.656
100.655
99.6317
99.6487
99.9146
100.107
100.278
100.366
100.415
100.472
100.521
100.555
100.567
100.581
100.595
100.612
100.636
100.66
100.683
100.706
100.724
100.735
99.597
99.6458
99.9574
100.195
100.335
100.401
100.476
100.54
100.59
100.621
100.635
100.653
100.673
100.7
100.731
100.756
100.773
100.783
100.779
100.774
99.5934
99.7346
100.008
100.229
100.396
100.513
100.597
100.648
100.693
100.711
100.722
100.739
100.761
100.79
100.814
100.824
100.821
100.814
100.789
100.746
99.5451
99.8463
100.176
100.382
100.571
100.688
100.739
100.777
100.803
100.813
100.82
100.833
100.85
100.856
100.856
100.845
100.793
100.676
100.514
100.277
99.4997
100.027
100.442
100.662
100.77
100.812
100.838
100.865
100.88
100.883
100.881
100.882
100.88
100.857
100.773
100.624
100.36
100.101
100.005
99.9978
100.122
100.53
100.74
100.835
100.883
100.901
100.917
100.925
100.921
100.91
100.894
100.837
100.722
100.468
100.148
100.011
99.9967
99.9985
99.9992
99.9998
100.696
100.836
100.913
100.948
100.956
100.949
100.951
100.932
100.846
100.764
100.577
100.235
100.03
99.9957
99.9977
99.9989
99.9998
100
100
100
100.999
100.996
100.993
100.986
100.975
100.949
100.885
100.467
99.8399
100
100
100
100
100
100
100
100
100
100
100
100.999
100.997
100.991
100.98
100.958
100.85
100.471
100.011
100
100
100
100
100
100
100
100
100
100
100
100
100.992
100.994
100.989
100.968
100.924
100.629
100.032
99.9995
100
100
100
100
100
100
100
100
100
100
100
100
100.986
100.992
100.988
100.949
100.803
100.263
99.9964
100
100
100
100
100
100
100
100
100
100
100
100
100
100.978
100.989
100.987
100.924
100.579
99.9918
100
100
100
100
100
100
100
100
100
100
100
100
100
100
100.972
100.983
100.979
100.832
100.229
100
100
100
100
100
100
100
100
100
100
100
100
100
100
100
100.971
100.978
100.963
100.689
99.9939
100
100
100
100
100
100
100
100
100
100
100
100
100
100
100
100.984
100.976
100.92
100.478
100
100
100
100
100
100
100
100
100
100
100
100
100
100
100
100
101.005
100.977
100.827
100.131
100
100
100
100
100
100
100
100
100
100
100
100
100
100
100
100
101.016
100.943
100.692
99.9964
100
100
100
100
100
100
100
100
100
100
100
100
100
100
100
100
101.024
100.908
100.503
100
100
100
100
100
100
100
100
100
100
100
100
100
100
100
100
100
101.028
100.854
100.311
100
100
100
100
100
100
100
100
100
100
100
100
100
100
100
100
100
101.03
100.795
100.118
100
100
100
100
100
100
100
100
100
100
100
100
100
100
100
100
100
101.024
100.726
100
100
100
100
100
100
100
100
100
100
100
100
100
100
100
100
100
100
101.013
100.661
100
100
100
100
100
100
100
100
100
100
100
100
100
100
100
100
100
100
100.993
100.589
100
100
100
100
100
100
100
100
100
100
100
100
100
100
100
100
100
100
100.96
100.443
100
100
100
100
100
100
100
100
100
100
100
100
100
100
100
100
100
100
100.9
100.217
100
100
100
100
100
100
100
100
100
100
100
100
100
100
100
100
100
100
100.854
100.004
100
100
100
100
100
100
100
100
100
100
100
100
100
100
100
100
100
100
100.815
100
100
100
100
100
100
100
100
100
100
100
100
100
100
100
100
100
100
100
100.816
100
100
100
100
100
100
100
100
100
100
100
100
100
100
100
100
100
100
100
100.856
100.004
100
100
100
100
100
100
100
100
100
100
100
100
100
100
100
100
100
100
100.898
100.213
100
100
100
100
100
100
100
100
100
100
100
100
100
100
100
100
100
100
100.957
100.439
100
100
100
100
100
100
100
100
100
100
100
100
100
100
100
100
100
100
100.993
100.592
100
100
100
100
100
100
100
100
100
100
100
100
100
100
100
100
100
100
101.014
100.665
100
100
100
100
100
100
100
100
100
100
100
100
100
100
100
100
100
100
101.025
100.726
100
100
100
100
100
100
100
100
100
100
100
100
100
100
100
100
100
100
101.03
100.794
100.116
100
100
100
100
100
100
100
100
100
100
100
100
100
100
100
100
100
101.027
100.853
100.312
100
100
100
100
100
100
100
100
100
100
100
100
100
100
100
100
100
101.024
100.908
100.5
100
100
100
100
100
100
100
100
100
100
100
100
100
100
100
100
100
101.015
100.943
100.69
99.9964
100
100
100
100
100
100
100
100
100
100
100
100
100
100
100
100
101.005
100.978
100.828
100.136
100
100
100
100
100
100
100
100
100
100
100
100
100
100
100
100
100.985
100.978
100.923
100.479
100
100
100
100
100
100
100
100
100
100
100
100
100
100
100
100
100.972
100.979
100.963
100.693
99.9982
100
100
100
100
100
100
100
100
100
100
100
100
100
100
100
100.972
100.983
100.978
100.827
100.222
100
100
100
100
100
100
100
100
100
100
100
100
100
100
100
100.977
100.988
100.986
100.927
100.572
99.9919
100
100
100
100
100
100
100
100
100
100
100
100
100
100
100.985
100.991
100.988
100.949
100.805
100.272
99.9962
100
100
100
100
100
100
100
100
100
100
100
100
100
100.992
100.994
100.988
100.967
100.925
100.635
100.035
99.9994
100
100
100
100
100
100
100
100
100
100
100
100
100.999
100.997
100.991
100.98
100.96
100.849
100.468
100.01
100
100
100
100
100
100
100
100
100
100
100
100
100.999
100.997
100.993
100.988
100.977
100.948
100.882
100.46
99.8445
100
100
100
100
100
100
100
100
100
100
100
100.697
100.837
100.913
100.949
100.957
100.949
100.95
100.931
100.847
100.765
100.578
100.236
100.031
99.9958
99.9977
99.9989
99.9998
100
100
100
100.122
100.528
100.742
100.838
100.884
100.901
100.916
100.924
100.921
100.911
100.895
100.838
100.722
100.468
100.147
100.01
99.9966
99.9985
99.9992
99.9998
99.4897
100.055
100.444
100.658
100.768
100.812
100.837
100.863
100.88
100.884
100.882
100.882
100.881
100.857
100.772
100.624
100.361
100.102
100.005
99.9978
99.5406
99.8245
100.157
100.384
100.573
100.685
100.737
100.776
100.803
100.814
100.821
100.834
100.85
100.856
100.856
100.845
100.793
100.677
100.514
100.277
99.6693
99.7843
100.031
100.221
100.375
100.5
100.592
100.646
100.693
100.712
100.724
100.74
100.762
100.79
100.814
100.824
100.821
100.814
100.789
100.746
99.7392
99.7211
99.9501
100.184
100.331
100.393
100.466
100.533
100.586
100.62
100.635
100.653
100.672
100.699
100.731
100.756
100.773
100.783
100.779
100.774
99.7334
99.7557
99.8825
100.116
100.283
100.358
100.409
100.468
100.516
100.553
100.566
100.58
100.594
100.611
100.635
100.66
100.683
100.707
100.724
100.735
99.7705
99.7625
99.8947
100.046
100.207
100.316
100.326
100.376
100.428
100.467
100.483
100.495
100.506
100.518
100.539
100.568
100.597
100.622
100.656
100.654
99.8387
99.8042
99.902
99.9984
100.119
100.248
100.248
100.263
100.31
100.345
100.379
100.405
100.435
100.453
100.476
100.499
100.52
100.539
100.576
100.567
99.9009
99.8287
99.8765
99.9246
100.024
100.159
100.207
100.208
100.258
100.307
100.339
100.362
100.391
100.401
100.415
100.427
100.44
100.455
100.495
100.494
99.9631
99.851
99.8432
99.8887
99.9608
100.085
100.175
100.196
100.232
100.268
100.289
100.303
100.324
100.335
100.339
100.343
100.354
100.379
100.412
100.453
100.042
99.9101
99.8113
99.8681
99.936
100.044
100.121
100.148
100.166
100.188
100.193
100.206
100.213
100.225
100.241
100.265
100.297
100.331
100.351
100.395
100.142
99.9973
99.831
99.8534
99.891
99.9708
100.015
100.044
100.05
100.08
100.098
100.12
100.154
100.186
100.212
100.24
100.265
100.283
100.292
100.328
100.273
100.095
99.891
99.8429
99.8295
99.8776
99.9116
99.9588
100.01
100.06
100.101
100.127
100.162
100.183
100.194
100.209
100.215
100.22
100.222
100.243
100.346
100.167
99.9715
99.8499
99.835
99.8742
99.9138
99.9652
100.022
100.077
100.125
100.135
100.155
100.157
100.156
100.148
100.135
100.13
100.129
100.167
100.354
100.202
100.026
99.8753
99.8585
99.891
99.9389
99.9981
100.063
100.098
100.117
100.115
100.114
100.097
100.074
100.049
100.046
100.067
100.102
100.143
100.345
100.211
100.08
99.9394
99.9176
99.9379
99.9941
100.028
100.06
100.081
100.069
100.046
100.018
99.9946
99.9966
100.027
100.051
100.072
100.087
100.102
100.304
100.201
100.124
100.014
99.9807
99.9811
99.9957
100.008
100.003
100.001
99.9621
99.9476
99.9482
99.9712
100.001
100.028
100.042
100.048
100.047
100.033
100.293
100.259
100.279
100.327
100.344
100.327
100.384
100.527
100.612
100.592
100.511
100.511
100.58
100.601
100.556
100.465
100.464
100.499
100.559
100.538
100.67
100.786
100.805
100.829
100.819
100.823
100.864
100.964
101.077
101.108
101.101
101.101
101.124
101.128
101.115
101.089
101.085
101.09
101.089
101.08
101.061
101.034
101.006
100.991
100.963
100.935
100.907
100.901
100.898
100.895
100.882
100.868
100.852
100.842
100.838
100.831
100.823
100.816
100.809
100.801
100.629
100.659
100.7
100.721
100.759
100.785
100.799
100.811
100.815
100.813
100.806
100.802
100.803
100.802
100.8
100.794
100.788
100.784
100.782
100.779
100.02
100.074
100.176
100.262
100.41
100.508
100.577
100.632
100.651
100.656
100.666
100.676
100.691
100.702
100.706
100.704
100.704
100.706
100.712
100.718
100.075
100.09
100.1
100.095
100.11
100.202
100.368
100.459
100.49
100.517
100.545
100.563
100.576
100.589
100.596
100.599
100.603
100.61
100.619
100.631
100.133
100.137
100.129
100.129
100.135
100.136
100.169
100.261
100.368
100.426
100.462
100.494
100.506
100.513
100.518
100.522
100.526
100.531
100.537
100.549
100.185
100.183
100.179
100.168
100.167
100.171
100.175
100.173
100.202
100.274
100.37
100.442
100.466
100.479
100.48
100.482
100.483
100.483
100.486
100.495
100.235
100.236
100.216
100.191
100.194
100.204
100.207
100.209
100.2
100.182
100.23
100.341
100.42
100.458
100.459
100.46
100.459
100.455
100.457
100.464
100.303
100.286
100.266
100.233
100.219
100.229
100.234
100.234
100.224
100.198
100.175
100.207
100.314
100.399
100.435
100.444
100.441
100.437
100.442
100.446
100.366
100.343
100.314
100.276
100.254
100.257
100.256
100.25
100.24
100.222
100.189
100.173
100.192
100.289
100.383
100.423
100.417
100.421
100.43
100.431
100.427
100.403
100.371
100.323
100.29
100.275
100.269
100.258
100.251
100.236
100.213
100.185
100.176
100.185
100.271
100.367
100.387
100.408
100.418
100.414
100.528
100.449
100.415
100.377
100.323
100.296
100.285
100.279
100.27
100.255
100.234
100.212
100.191
100.173
100.177
100.226
100.31
100.363
100.375
100.38
100.621
100.535
100.474
100.441
100.4
100.36
100.318
100.291
100.275
100.258
100.244
100.228
100.209
100.187
100.164
100.15
100.165
100.221
100.279
100.321
100.609
100.589
100.535
100.478
100.43
100.391
100.35
100.301
100.281
100.272
100.261
100.245
100.226
100.2
100.175
100.147
100.138
100.131
100.145
100.223
100.488
100.547
100.541
100.514
100.467
100.42
100.387
100.345
100.311
100.288
100.263
100.239
100.215
100.19
100.172
100.155
100.133
100.113
100.098
100.107
100.25
100.377
100.446
100.482
100.475
100.447
100.409
100.366
100.326
100.292
100.257
100.227
100.207
100.189
100.177
100.163
100.14
100.113
100.089
100.072
100.043
100.145
100.254
100.337
100.39
100.415
100.405
100.38
100.343
100.307
100.274
100.239
100.217
100.195
100.172
100.149
100.123
100.098
100.08
100.06
100.002
100.015
100.065
100.156
100.234
100.291
100.328
100.348
100.339
100.316
100.283
100.248
100.215
100.185
100.156
100.136
100.12
100.099
100.086
100.064
100
100
100.003
100.025
100.079
100.149
100.207
100.249
100.279
100.291
100.282
100.261
100.228
100.198
100.166
100.143
100.128
100.109
100.087
100.054
100
100
100
100.001
100.006
100.03
100.08
100.139
100.187
100.216
100.241
100.244
100.235
100.216
100.188
100.156
100.128
100.105
100.081
100.048
100
100
100
100
100
100.001
100.008
100.032
100.079
100.129
100.17
100.192
100.21
100.209
100.202
100.183
100.155
100.125
100.1
100.069
100
100
100
100
100
100
100
100.001
100.009
100.031
100.073
100.117
100.155
100.174
100.186
100.184
100.177
100.16
100.136
100.097
100
100
100
100
100
100
100
100
100
100.001
100.008
100.029
100.065
100.107
100.14
100.16
100.168
100.167
100.162
100.139
100
100
100
100
100
100
100
100
100
100
100
100.001
100.006
100.025
100.057
100.097
100.126
100.145
100.155
100.152
100
100
100
100
100
100
100
100
100
100
100
100
100
100.001
100.006
100.019
100.048
100.085
100.113
100.137
100
100
100
100
100
100
100
100
100
100
100
100
100
100
100
100.001
100.004
100.016
100.041
100.105
100.597
100.653
100.609
100.416
100.142
100.017
100.001
100
100
100
100
100
100
100
100
100.671
100.662
100.518
100.218
100.022
100
100
100
100
100
100
100
100
100
100
100.705
100.636
100.373
100.073
100.002
100
100
100
100
100
100
100
100
100
100
100.72
100.518
100.167
100.009
100
100
100
100
100
100
100
100
100
100
100
100.651
100.284
100.024
100
100
100
100
100
100
100
100
100
100
100
100
100.397
100.038
100
100
100
100
100
100
100
100
100
100
100
100
100
100.043
100
100
100
100
100
100
100
100
100
100
100
100
100
100
99.9995
100
100
100
100
100
100
100
100
100
100
100
100
100
100
100
100
100
100
100
100
100
100
100
100
100
100
100
100
100
100
100
100
100
100
100
100
100
100
100
100
100
100
100
100
100
100
100
100
100
100
100
100
100
100
100
100
100
100
100
100
100
100
100
100
100
100
100
100
100
100
100
100
100
100
100
100
100
100
100
100
100
100
100
100
100
100
100
100
100
100
100
100
100
100
100
100
100
100
100
100
100
100
100
100
100
100
100
100
100
100
100
100
100
100
100
100
100
100
100
100
100
100
100
100
100
100
100
100
100
100
100
100
100
100
100
100
100
100
100
100
100
100
100
100
100
100
100
100
100
100
100
100
100
100
100
100
100
100
100
100
100
100
100
100
100
100
100
100
100
100
100
100
100
100
100
100
100
100
100
100
100
100
100
100
100
100
100
100
100
100
100
100
100
100
100
100
100
100
100
100
100
100
100
100
100
100
100
100
100
100
100
100
100
100
100
100
100
100
100
100
100
100
100
100
100
100
100
100
100
100
100
100
100
100
100
100
100
100
100
100
100
100
100
100
100
100
100
100
100
100
100
100
100
100
100
100
100
100
100
100
100
100
100
100
100
100
100
100
100
100
100
100
100
100
100
100
100
100
100
100
100
100
100
100
100
100
100
100
100
100
100
100
100
100
100
100
100
100
100
100
100
100
100
100
100
100
100
100
100
100
100
100
100
100
100
100
100
100
100
100
100
100
100
100
100
100
100
100
100
100
100
100
100
100
100
100
100
100
100
100
100
100
100
100
100
100
100
100
100
100
100
100
100
100
100
100
100
100
100
100
100
100
100
100
100
100
100
100
100
100
100
100
100
100
100
100
100
100
100
100
100
100
100
100
100
100
100
100
100
100
100
100
100
100
100
100
100
100
100
100
100
100
100
100
100
100
100
100
100
100
100
100
100
100
100
100
100
100
100
100
100
100
100
100
100
100
100
100
100
100
100
100
100
100
100
100
100
100
100
100
100
100
100
100
100
100
100
100
100
100
100
100
100
100
100
100
100
100
100
100
100
100
100
100
100
100
100
100
100
100
100
100
100
100
100
100
100
100
100
100
100
100
100
100
100
100
100
100
100
100
100
100
100
100
100
100
100
100
100
100
100
100
100
100
100
100
100
100
100
100
100
100
100
100
100
100
100
100
100
100
100
100
100
100
100
100
100
100
100
100
100
100
100
100
100
100
100
100
100
100
100
100
100
100
100
100
100
100
100
100
100
100
100
100
100
100
100
100
100
100
100
100
100
100
100
100
100
100
100
100
100
100
100
100
100
100
100
100
100
100
100
100
100
100
100
100
100
100
100
100
100
100
100
100
100
100
100
100
100
100
100
100
100
100
100
100
100
100
100
100
100
100
100
100
100
100
100
100
100
100
100
100
100
100
100
100
100
100
100
100
100
100
100
100
100
100
100
100
100
100
100
100
100
100
100
100
100
100
100
100
100
100
100
100
100
100
100
100
100
100
100
100
100
100
100
100
100
100
100
100
100
100
100
100
100
100
100
100
100
100
100
100
100
100
100
100
100
100
100
100
100
100
100
100
100
100
100
100
100
100
100
100
100
100
100
100
100
100
100
100
100
100
100
100
100
100
100
100
100
100
100
100
100
100
100
100
100
100
100
100
100
100
100
100
100
100
100
100
100
100
100
100
100
100
100
100
100
100
100
100
100
100
100
100
100
100
100
100
100
100
100
100
100
100
100
100
100
100
100
100
100
100
100
100
100
100
100
100
100
100
100
100
100
100
100
100
100
100
100
100
100
100
100
100
100
100
100
100
100
100
100
100
100
100
100
100
100
100
100
100
100
100
100
100
100
100
100
100
100
100
100
100
100
100
100
100
100
100
100
100
100
100
100
100
100
100
100
100
100
100
100
100
100
100
100
100
100
100
100
100
100
100
100
100
100
100
100
100
100
100
100
100
100
100
100
100
100
100
100
100
100
100
100
100
99.9995
100
100
100
100
100
100
100
100
100
100
100
100
100
100
100.043
100
100
100
100
100
100
100
100
100
100
100
100
100
100
100.397
100.038
100
100
100
100
100
100
100
100
100
100
100
100
100
100.651
100.284
100.024
100
100
100
100
100
100
100
100
100
100
100
100
100.72
100.518
100.167
100.009
100
100
100
100
100
100
100
100
100
100
100
100.705
100.636
100.373
100.074
100.002
100
100
100
100
100
100
100
100
100
100
100.671
100.662
100.518
100.217
100.022
100
100
100
100
100
100
100
100
100
100
100.597
100.653
100.609
100.416
100.142
100.017
100.001
100
100
100
100
100
100
100
100
100.528
100.621
100.609
100.488
100.25
100.043
100.002
100
100
100
100
100
100
100
100
100.45
100.537
100.589
100.547
100.377
100.145
100.015
100
100
100
100
100
100
100
100
100.412
100.474
100.535
100.541
100.446
100.253
100.065
100.003
100
100
100
100
100
100
100
100.372
100.44
100.478
100.515
100.483
100.337
100.156
100.025
100.001
100
100
100
100
100
100
100.321
100.401
100.431
100.465
100.475
100.39
100.234
100.079
100.006
100
100
100
100
100
100
100.294
100.355
100.393
100.424
100.446
100.415
100.291
100.149
100.03
100.001
100
100
100
100
100
100.284
100.313
100.346
100.39
100.41
100.405
100.328
100.207
100.08
100.008
100
100
100
100
100
100.281
100.293
100.298
100.34
100.366
100.381
100.348
100.249
100.139
100.032
100.001
100
100
100
100
100.274
100.281
100.282
100.31
100.323
100.341
100.339
100.279
100.187
100.079
100.008
100
100
100
100
100.258
100.262
100.268
100.289
100.293
100.305
100.315
100.291
100.216
100.129
100.031
100.001
100
100
100
100.231
100.244
100.257
100.264
100.26
100.273
100.283
100.282
100.241
100.17
100.073
100.008
100
100
100
100.209
100.229
100.244
100.237
100.228
100.242
100.248
100.26
100.244
100.192
100.117
100.029
100.001
100
100
100.19
100.21
100.225
100.212
100.207
100.219
100.215
100.229
100.236
100.21
100.155
100.065
100.006
100
100
100.173
100.188
100.2
100.189
100.188
100.195
100.185
100.198
100.216
100.209
100.174
100.107
100.025
100.001
100
100.178
100.166
100.175
100.17
100.177
100.172
100.156
100.166
100.188
100.202
100.186
100.14
100.057
100.006
100
100.228
100.154
100.15
100.151
100.162
100.148
100.136
100.145
100.156
100.183
100.184
100.16
100.097
100.019
100.001
100.312
100.169
100.14
100.132
100.139
100.122
100.118
100.129
100.129
100.155
100.177
100.168
100.126
100.048
100.004
100.362
100.222
100.133
100.116
100.115
100.098
100.097
100.108
100.104
100.125
100.16
100.167
100.145
100.085
100.016
100.372
100.277
100.147
100.1
100.089
100.082
100.086
100.085
100.08
100.1
100.136
100.162
100.155
100.113
100.041
100.379
100.321
100.222
100.106
100.072
100.061
100.065
100.054
100.048
100.069
100.097
100.139
100.152
100.137
100.105
100.426
100.403
100.37
100.324
100.291
100.275
100.264
100.259
100.251
100.232
100.206
100.18
100.176
100.185
100.274
100.368
100.386
100.406
100.416
100.413
100.365
100.343
100.316
100.281
100.256
100.256
100.254
100.249
100.236
100.214
100.183
100.174
100.194
100.292
100.388
100.423
100.415
100.42
100.43
100.43
100.301
100.287
100.268
100.235
100.221
100.228
100.233
100.231
100.218
100.189
100.176
100.206
100.311
100.403
100.433
100.444
100.44
100.436
100.442
100.446
100.236
100.234
100.224
100.203
100.201
100.206
100.209
100.208
100.194
100.182
100.226
100.335
100.417
100.46
100.458
100.46
100.459
100.455
100.458
100.464
100.186
100.185
100.176
100.166
100.166
100.171
100.178
100.174
100.198
100.276
100.368
100.435
100.468
100.48
100.479
100.482
100.486
100.486
100.488
100.496
100.133
100.14
100.137
100.134
100.135
100.135
100.167
100.254
100.361
100.429
100.468
100.491
100.504
100.51
100.515
100.523
100.532
100.537
100.542
100.552
100.078
100.089
100.098
100.094
100.118
100.212
100.37
100.451
100.48
100.519
100.559
100.566
100.57
100.576
100.586
100.599
100.612
100.62
100.626
100.634
100.022
100.056
100.179
100.286
100.431
100.52
100.58
100.616
100.63
100.655
100.684
100.686
100.686
100.687
100.693
100.704
100.714
100.719
100.721
100.721
100.532
100.614
100.706
100.74
100.778
100.803
100.8
100.795
100.798
100.808
100.815
100.811
100.799
100.791
100.791
100.794
100.794
100.792
100.788
100.781
101.027
101.016
101.009
100.999
100.97
100.943
100.907
100.895
100.893
100.888
100.877
100.863
100.847
100.839
100.836
100.83
100.822
100.815
100.81
100.802
)
;

boundaryField
{
    inlet
    {
        type            fixedValue;
        value           uniform 100;
    }
    outlet
    {
        type            inletOutlet;
        inletValue      uniform 100;
        value           nonuniform List<scalar> 
50
(
100.38
100.321
100.223
100.108
100.072
100.06
100.064
100.054
100.048
100.069
100.097
100.139
100.152
100.137
100.105
100.801
100.779
100.718
100.631
100.549
100.495
100.464
100.446
100.431
100.414
100.413
100.43
100.446
100.464
100.496
100.552
100.634
100.721
100.781
100.802
100.379
100.321
100.222
100.106
100.072
100.061
100.065
100.054
100.048
100.069
100.097
100.139
100.152
100.137
100.105
)
;
    }
    airfoil
    {
        type            zeroGradient;
    }
    top
    {
        type            symmetryPlane;
    }
    bottom
    {
        type            symmetryPlane;
    }
    defaultFaces
    {
        type            empty;
    }
}


// ************************************************************************* //
