/*--------------------------------*- C++ -*----------------------------------*\
  =========                 |
  \\      /  F ield         | OpenFOAM: The Open Source CFD Toolbox
   \\    /   O peration     | Website:  https://openfoam.org
    \\  /    A nd           | Version:  7
     \\/     M anipulation  |
\*---------------------------------------------------------------------------*/
FoamFile
{
    version     2.0;
    format      ascii;
    class       volVectorField;
    location    "8.2";
    object      U;
}
// * * * * * * * * * * * * * * * * * * * * * * * * * * * * * * * * * * * * * //

dimensions      [0 1 -1 0 0 0 0];

internalField   nonuniform List<vector> 
3700
(
(1.39487 -0.4492 0)
(1.3048 -0.535054 0)
(1.25585 -0.379507 0)
(1.28566 -0.418809 0)
(1.28517 -0.354259 0)
(1.31861 -0.281283 0)
(1.41486 -0.227938 0)
(1.49391 -0.249008 0)
(1.54069 -0.256388 0)
(1.52317 -0.150227 0)
(1.54078 -0.070749 0)
(1.59175 -0.0866435 0)
(1.61868 -0.164728 0)
(1.67595 -0.280897 0)
(1.67987 -0.29934 0)
(1.67638 -0.242954 0)
(1.74793 -0.184395 0)
(1.8055 -0.21868 0)
(1.86345 -0.276371 0)
(1.85178 -0.280656 0)
(1.52292 -1.49219 0)
(1.59043 -1.50609 0)
(1.70456 -1.6873 0)
(1.74165 -1.87146 0)
(1.72351 -1.81336 0)
(1.7088 -1.62984 0)
(1.7341 -1.41737 0)
(1.76623 -1.33157 0)
(1.75734 -1.23704 0)
(1.74521 -1.0478 0)
(1.81673 -0.9254 0)
(1.91202 -0.963597 0)
(2.07123 -1.21948 0)
(2.09769 -1.44874 0)
(2.07882 -1.45755 0)
(2.05572 -1.34029 0)
(2.11389 -1.22801 0)
(2.23325 -1.19948 0)
(2.32969 -1.18176 0)
(2.38883 -1.16107 0)
(1.54128 -1.4521 0)
(1.80621 -1.47777 0)
(1.92386 -1.98981 0)
(1.91959 -2.19352 0)
(1.91554 -2.32063 0)
(1.97993 -2.31612 0)
(2.0122 -2.20187 0)
(1.98732 -2.18664 0)
(2.01022 -2.1562 0)
(2.12151 -2.09178 0)
(2.25324 -2.01785 0)
(2.3397 -1.98726 0)
(2.42069 -1.92575 0)
(2.42502 -1.93864 0)
(2.41883 -1.879 0)
(2.41439 -1.82266 0)
(2.43256 -1.79701 0)
(2.46815 -1.67883 0)
(2.53473 -1.64999 0)
(2.64632 -1.52615 0)
(1.58562 -1.4605 0)
(1.97905 -1.39704 0)
(2.06261 -1.9846 0)
(2.01413 -2.24878 0)
(2.07998 -2.28052 0)
(2.14196 -2.31606 0)
(2.15619 -2.17052 0)
(2.0511 -2.15963 0)
(2.04513 -2.13335 0)
(2.13395 -1.99029 0)
(2.24344 -1.86345 0)
(2.41237 -1.78523 0)
(2.55313 -1.62346 0)
(2.66534 -1.56187 0)
(2.71452 -1.54379 0)
(2.70118 -1.55825 0)
(2.62271 -1.62303 0)
(2.59677 -1.51029 0)
(2.57246 -1.52456 0)
(2.62099 -1.34865 0)
(1.71666 -1.51237 0)
(2.12623 -1.40465 0)
(2.11189 -2.00219 0)
(2.05575 -2.22708 0)
(2.15362 -2.21273 0)
(2.22438 -2.21895 0)
(2.27541 -2.07346 0)
(2.19632 -2.04645 0)
(2.16563 -2.08375 0)
(2.20139 -1.97972 0)
(2.23084 -1.88539 0)
(2.3632 -1.74949 0)
(2.45437 -1.65141 0)
(2.60211 -1.54559 0)
(2.719 -1.36066 0)
(2.79376 -1.1563 0)
(2.79873 -1.133 0)
(2.80489 -1.09048 0)
(2.71685 -1.20377 0)
(2.65743 -1.18677 0)
(1.83865 -1.56798 0)
(2.10331 -1.49136 0)
(1.95664 -2.0656 0)
(1.89035 -2.22513 0)
(2.07386 -2.19709 0)
(2.20317 -2.19091 0)
(2.26926 -2.04369 0)
(2.27125 -1.95377 0)
(2.31693 -1.91218 0)
(2.43647 -1.79573 0)
(2.39589 -1.8213 0)
(2.45679 -1.66316 0)
(2.49151 -1.55389 0)
(2.55354 -1.48161 0)
(2.6313 -1.36879 0)
(2.68281 -1.20681 0)
(2.78736 -1.05391 0)
(2.8651 -0.844799 0)
(2.85822 -0.737573 0)
(2.75518 -0.757768 0)
(1.81844 -1.60316 0)
(1.91409 -1.6739 0)
(1.75662 -2.12319 0)
(1.76128 -2.17402 0)
(1.93841 -2.09993 0)
(2.06595 -1.98918 0)
(2.18664 -1.97032 0)
(2.38091 -1.7854 0)
(2.47535 -1.77118 0)
(2.5692 -1.56613 0)
(2.57905 -1.60711 0)
(2.64016 -1.44738 0)
(2.61473 -1.40226 0)
(2.62268 -1.32172 0)
(2.64244 -1.21304 0)
(2.65846 -1.09222 0)
(2.70265 -1.00302 0)
(2.79203 -0.885757 0)
(2.80535 -0.64469 0)
(2.8007 -0.481766 0)
(1.65839 -1.58598 0)
(1.65575 -1.76519 0)
(1.55984 -2.08724 0)
(1.65423 -2.08232 0)
(1.75657 -2.01426 0)
(1.94819 -1.84035 0)
(2.01804 -1.89511 0)
(2.23028 -1.69536 0)
(2.42924 -1.59193 0)
(2.59309 -1.38721 0)
(2.66155 -1.26591 0)
(2.72769 -1.093 0)
(2.72501 -1.05807 0)
(2.73427 -1.00645 0)
(2.73738 -0.914805 0)
(2.71833 -0.84771 0)
(2.70461 -0.759359 0)
(2.73933 -0.759531 0)
(2.73769 -0.61117 0)
(2.73658 -0.383811 0)
(1.48016 -1.47878 0)
(1.48707 -1.63253 0)
(1.46553 -1.89835 0)
(1.60788 -1.9166 0)
(1.69594 -1.96042 0)
(1.87964 -1.80987 0)
(1.97866 -1.84683 0)
(2.15885 -1.66814 0)
(2.28549 -1.51858 0)
(2.42383 -1.43361 0)
(2.55775 -1.16632 0)
(2.67003 -0.969131 0)
(2.70047 -0.719041 0)
(2.74705 -0.612229 0)
(2.7571 -0.475407 0)
(2.75386 -0.456586 0)
(2.7383 -0.366661 0)
(2.71343 -0.430105 0)
(2.70729 -0.430026 0)
(2.66644 -0.234644 0)
(1.41826 -1.31217 0)
(1.45784 -1.4018 0)
(1.47239 -1.72349 0)
(1.61687 -1.85239 0)
(1.69686 -1.88142 0)
(1.9664 -1.72519 0)
(2.11267 -1.76911 0)
(2.27769 -1.60774 0)
(2.35338 -1.42586 0)
(2.40301 -1.35303 0)
(2.4925 -1.13932 0)
(2.5791 -0.980457 0)
(2.62347 -0.730027 0)
(2.73134 -0.613217 0)
(2.71167 -0.337356 0)
(2.72539 -0.215296 0)
(2.70169 -0.0508398 0)
(2.66374 -0.0481749 0)
(2.63995 -0.110216 0)
(2.61466 -0.0599091 0)
(1.4254 -1.21075 0)
(1.5238 -1.27327 0)
(1.59493 -1.64223 0)
(1.61639 -1.87359 0)
(1.75273 -1.80475 0)
(2.09938 -1.66265 0)
(2.32735 -1.53009 0)
(2.52069 -1.24007 0)
(2.60571 -1.102 0)
(2.59724 -1.06939 0)
(2.61573 -0.881035 0)
(2.63497 -0.719943 0)
(2.62596 -0.548488 0)
(2.66857 -0.461843 0)
(2.64818 -0.27437 0)
(2.6698 -0.169488 0)
(2.63924 0.0261911 0)
(2.5982 0.159538 0)
(2.53134 0.227413 0)
(2.5652 0.119074 0)
(1.41951 -1.21772 0)
(1.5667 -1.33508 0)
(1.74934 -1.7038 0)
(1.70636 -1.97 0)
(2.25134 -1.64297 0)
(2.5383 -1.60543 0)
(2.77382 -1.30113 0)
(2.80411 -0.780598 0)
(2.79241 -0.608629 0)
(2.73352 -0.447439 0)
(2.72703 -0.340645 0)
(2.6971 -0.189161 0)
(2.66798 -0.103518 0)
(2.64342 -0.0217323 0)
(2.6058 0.0449431 0)
(2.58266 0.062715 0)
(2.55835 0.116694 0)
(2.51137 0.23699 0)
(2.43934 0.383741 0)
(2.44921 0.356627 0)
(1.34922 -1.29766 0)
(1.65767 -1.54737 0)
(1.95697 -1.80303 0)
(2.13179 -2.15569 0)
(2.46612 -1.48239 0)
(2.42123 -1.4494 0)
(2.54057 -1.13591 0)
(2.60806 -0.738147 0)
(2.61525 -0.649524 0)
(2.61732 -0.347401 0)
(2.65864 -0.173639 0)
(2.6083 0.0757564 0)
(2.58739 0.214709 0)
(2.52471 0.365919 0)
(2.48272 0.431696 0)
(2.447 0.443998 0)
(2.41824 0.435361 0)
(2.40278 0.425633 0)
(2.3225 0.541185 0)
(2.31433 0.532338 0)
(1.3047 -1.38772 0)
(1.7661 -1.84345 0)
(2.39642 -1.70577 0)
(2.08535 -1.82177 0)
(2.24142 -1.39788 0)
(2.30883 -1.23032 0)
(2.4038 -0.876631 0)
(2.45535 -0.62651 0)
(2.47193 -0.432677 0)
(2.50035 -0.250993 0)
(2.52982 -0.0501249 0)
(2.49033 0.173797 0)
(2.46753 0.332498 0)
(2.39863 0.497341 0)
(2.33989 0.611944 0)
(2.2964 0.659843 0)
(2.22427 0.73688 0)
(2.20815 0.724838 0)
(2.18653 0.74901 0)
(2.14847 0.773946 0)
(1.44992 -1.48023 0)
(1.72526 -2.27754 0)
(2.2015 -1.51681 0)
(2.00344 -1.50455 0)
(2.19223 -1.19855 0)
(2.39546 -0.74088 0)
(2.4702 -0.292265 0)
(2.49487 -0.11222 0)
(2.44359 0.125147 0)
(2.45122 0.231448 0)
(2.40642 0.400524 0)
(2.34771 0.532296 0)
(2.29569 0.624515 0)
(2.2332 0.713799 0)
(2.17994 0.766647 0)
(2.13757 0.8016 0)
(2.0751 0.8705 0)
(2.04883 0.908064 0)
(2.03018 0.941304 0)
(2.05928 0.956438 0)
(1.36442 -1.43921 0)
(1.50944 -1.90008 0)
(2.01092 -1.45361 0)
(2.22223 -0.829021 0)
(2.40701 -0.493128 0)
(2.43857 0.0158605 0)
(2.4612 0.1876 0)
(2.38644 0.420836 0)
(2.3272 0.524014 0)
(2.29149 0.654242 0)
(2.20557 0.78855 0)
(2.12552 0.886175 0)
(2.06417 0.94021 0)
(2.01196 0.987788 0)
(1.98184 0.979486 0)
(1.96087 0.985031 0)
(1.95822 1.00687 0)
(1.97187 0.99289 0)
(1.9949 0.994179 0)
(2.06783 0.980477 0)
(1.15238 -0.806742 0)
(1.54768 -1.35613 0)
(2.21384 -0.828101 0)
(2.32659 0.279711 0)
(2.36265 0.362864 0)
(2.35363 0.398026 0)
(2.29496 0.516919 0)
(2.20612 0.654629 0)
(2.13768 0.755977 0)
(2.08935 0.88792 0)
(1.98426 0.997257 0)
(1.92414 1.05533 0)
(1.88193 1.08284 0)
(1.86436 1.09456 0)
(1.86663 1.06253 0)
(1.89524 1.05184 0)
(1.96331 1.02094 0)
(2.16836 0.898022 0)
(2.38416 0.786257 0)
(2.77728 0.439807 0)
(1.00987 -0.100241 0)
(1.89596 0.238894 0)
(2.22255 0.521238 0)
(2.25334 0.492182 0)
(2.20168 0.614971 0)
(2.16047 0.737052 0)
(2.03566 0.90398 0)
(1.9609 0.969999 0)
(1.90011 1.03413 0)
(1.85253 1.12366 0)
(1.79378 1.15504 0)
(1.79511 1.14718 0)
(1.81285 1.12692 0)
(1.8488 1.08617 0)
(2.03524 0.953335 0)
(2.25307 0.833503 0)
(2.66228 0.507089 0)
(3.03598 0.0923306 0)
(3.05522 -0.0241218 0)
(3.00407 -0.00470622 0)
(1.01022 0.0425201 0)
(1.92877 0.769643 0)
(2.12267 0.792132 0)
(2.00392 0.955988 0)
(1.95927 0.995453 0)
(1.87185 1.09105 0)
(1.79206 1.13775 0)
(1.75531 1.14597 0)
(1.752 1.16294 0)
(1.72888 1.20631 0)
(1.7156 1.19735 0)
(1.87569 1.068 0)
(2.11234 0.880139 0)
(2.50832 0.573527 0)
(2.98669 0.135311 0)
(3.07398 -0.0297087 0)
(3.00821 -0.00774084 0)
(3.00293 -0.0038285 0)
(3.00122 -0.00218506 0)
(3.00008 -0.000477666 0)
(1.16425 0.769839 0)
(1.83146 1.1429 0)
(1.83823 1.15138 0)
(1.74556 1.19036 0)
(1.71815 1.20232 0)
(1.66671 1.24501 0)
(1.65448 1.2172 0)
(1.72066 1.16395 0)
(1.74414 1.23653 0)
(1.77375 1.15294 0)
(2.2645 0.754953 0)
(2.85381 0.217172 0)
(3.09423 -0.0253659 0)
(3.02029 -0.012247 0)
(3.00464 -0.00549796 0)
(3.00191 -0.00307568 0)
(3.00006 -0.000604221 0)
(2.99998 -2.42584e-05 0)
(2.99999 1.43238e-05 0)
(3 5.90625e-06 0)
(1.57771 1.25291 0)
(1.58386 1.25859 0)
(1.59482 1.26442 0)
(1.60419 1.26626 0)
(1.6146 1.25679 0)
(1.60643 1.2622 0)
(1.87531 1.16133 0)
(2.96279 0.37699 0)
(3.37579 -0.64133 0)
(3 6.26924e-11 0)
(3 -7.32685e-11 0)
(3 7.76662e-11 0)
(3 4.14767e-15 0)
(3 -4.23525e-13 0)
(3 -1.31098e-14 0)
(3 1.57248e-14 0)
(3 -9.41294e-15 0)
(3 -2.32259e-16 0)
(3 -1.97919e-16 0)
(3 -1.56451e-15 0)
(1.57441 1.24253 0)
(1.58907 1.2553 0)
(1.60405 1.2646 0)
(1.6126 1.26367 0)
(1.6673 1.24003 0)
(1.77083 1.19758 0)
(2.30032 0.713788 0)
(3.00217 0.0073195 0)
(3 7.07127e-08 0)
(3 -3.20547e-11 0)
(3 -1.23761e-14 0)
(3 4.54199e-15 0)
(3 -2.08285e-15 0)
(3 3.37114e-15 0)
(3 6.46627e-16 0)
(3 -8.4074e-16 0)
(3 1.33028e-15 0)
(3 1.72202e-16 0)
(3 -7.42621e-16 0)
(3 -9.92137e-16 0)
(1.57944 1.25233 0)
(1.59821 1.25826 0)
(1.60323 1.2645 0)
(1.57828 1.28251 0)
(1.76059 1.19417 0)
(2.22299 0.821495 0)
(2.99723 -0.00175151 0)
(3.00006 -0.000300408 0)
(3 5.37271e-07 0)
(3 5.94743e-11 0)
(3 -9.22917e-15 0)
(3 -3.33396e-16 0)
(3 9.29614e-16 0)
(3 9.86484e-16 0)
(3 3.86185e-16 0)
(3 -9.74715e-16 0)
(3 -9.63698e-16 0)
(3 -6.2203e-16 0)
(3 -6.0949e-16 0)
(3 -7.06122e-16 0)
(1.58241 1.2568 0)
(1.60056 1.26288 0)
(1.61761 1.27097 0)
(1.57426 1.33949 0)
(1.84203 1.11289 0)
(2.71774 0.254106 0)
(3.00446 -0.000453744 0)
(2.99993 5.37375e-05 0)
(3 -7.24708e-07 0)
(3 8.42216e-10 0)
(3 -9.59742e-15 0)
(3 -6.9248e-16 0)
(3 -1.20995e-15 0)
(3 -1.24342e-15 0)
(3 7.15559e-16 0)
(3 -1.90375e-15 0)
(3 -1.39648e-15 0)
(3 -1.55334e-15 0)
(3 -1.31461e-15 0)
(3 -1.29431e-15 0)
(1.58598 1.27187 0)
(1.60285 1.27105 0)
(1.6348 1.26475 0)
(1.65702 1.24375 0)
(2.32237 0.658516 0)
(3.02262 -0.0208774 0)
(2.99971 8.8033e-05 0)
(3 -3.93986e-06 0)
(3 7.78771e-08 0)
(3 -8.66328e-10 0)
(3 1.72914e-13 0)
(3 -5.8108e-16 0)
(3 -1.19306e-15 0)
(3 -1.55766e-15 0)
(3 -1.47994e-15 0)
(3 -2.20967e-15 0)
(3 -2.11083e-15 0)
(3 -6.38555e-16 0)
(3 -1.77636e-15 0)
(3 -2.2667e-15 0)
(1.58795 1.28771 0)
(1.58953 1.28333 0)
(1.64836 1.24598 0)
(1.8946 1.07346 0)
(2.74574 0.2165 0)
(3 -5.84815e-10 0)
(3 1.35405e-08 0)
(3 -1.21615e-08 0)
(3 5.13228e-10 0)
(3 1.74321e-12 0)
(3 -9.08125e-14 0)
(3 2.00209e-16 0)
(3 -1.58588e-15 0)
(3 -1.79539e-15 0)
(3 -1.33587e-15 0)
(3 -2.74384e-15 0)
(3 -2.27132e-15 0)
(3 -7.20009e-16 0)
(3 -2.17738e-15 0)
(3 -2.96724e-15 0)
(1.58707 1.29804 0)
(1.55048 1.28834 0)
(1.66306 1.22519 0)
(2.09818 0.842006 0)
(3.02307 -0.0182666 0)
(3 -5.42538e-12 0)
(3 4.24435e-12 0)
(3 2.44748e-12 0)
(3 -2.72516e-12 0)
(3 3.74866e-14 0)
(3 2.29314e-15 0)
(3 -2.20874e-16 0)
(3 -8.99469e-16 0)
(3 -1.309e-15 0)
(3 -1.09177e-15 0)
(3 -1.67811e-15 0)
(3 -2.79661e-15 0)
(3 -2.4356e-15 0)
(3 -2.2115e-15 0)
(3 -2.97832e-15 0)
(1.58411 1.32274 0)
(1.50027 1.32427 0)
(1.7444 1.19049 0)
(2.40583 0.551065 0)
(3 -8.02141e-09 0)
(3 3.70345e-11 0)
(3 -1.32053e-13 0)
(3 -4.84809e-15 0)
(3 5.21059e-15 0)
(3 3.05879e-15 0)
(3 1.84047e-15 0)
(3 8.38173e-16 0)
(3 -8.51088e-18 0)
(3 3.62174e-18 0)
(3 6.06449e-16 0)
(3 3.44759e-16 0)
(3 -2.24993e-15 0)
(3 -3.00611e-15 0)
(3 -2.49144e-15 0)
(3 -3.09862e-15 0)
(1.58178 1.30271 0)
(1.47058 1.33438 0)
(2.00502 1.03869 0)
(2.89227 0.118295 0)
(3 -1.96506e-09 0)
(3 8.12343e-12 0)
(3 -7.33173e-14 0)
(3 4.00033e-15 0)
(3 2.75472e-15 0)
(3 3.21023e-15 0)
(3 2.39969e-15 0)
(3 2.87461e-15 0)
(3 2.26389e-15 0)
(3 9.50156e-16 0)
(3 5.2024e-16 0)
(3 5.87511e-16 0)
(3 -8.13831e-16 0)
(3 -1.98482e-15 0)
(3 -2.90469e-15 0)
(3 -3.59651e-15 0)
(1.60197 1.29672 0)
(1.47865 1.4005 0)
(2.10617 0.870079 0)
(3.01116 -0.00926249 0)
(3 1.13063e-08 0)
(3 -2.94274e-11 0)
(3 1.3071e-13 0)
(3 1.28697e-15 0)
(3 2.51089e-15 0)
(3 2.33079e-15 0)
(3 2.10357e-15 0)
(3 2.08416e-15 0)
(3 1.26561e-15 0)
(3 5.86548e-16 0)
(3 1.36128e-16 0)
(3 5.20406e-16 0)
(3 -6.34963e-16 0)
(3 -1.36911e-15 0)
(3 -1.71431e-15 0)
(3 -3.16562e-15 0)
(1.6205 1.28063 0)
(1.57568 1.31067 0)
(2.4249 0.529653 0)
(3 1.33254e-13 0)
(3 -7.39247e-12 0)
(3 1.39861e-13 0)
(3 -9.022e-16 0)
(3 1.67238e-15 0)
(3 2.0096e-15 0)
(3 2.02048e-15 0)
(3 1.85618e-15 0)
(3 1.41168e-15 0)
(3 1.36699e-15 0)
(3 1.64039e-15 0)
(3 1.81125e-16 0)
(3 3.35951e-16 0)
(3 3.67393e-16 0)
(3 8.46411e-16 0)
(3 9.34223e-16 0)
(3 -1.08336e-16 0)
(1.63575 1.26546 0)
(1.65493 1.23134 0)
(2.65631 0.283394 0)
(3 7.55727e-13 0)
(3 3.1621e-15 0)
(3 2.76341e-17 0)
(3 5.16216e-16 0)
(3 2.62548e-18 0)
(3 1.09767e-15 0)
(3 1.65659e-15 0)
(3 1.47796e-15 0)
(3 1.47678e-15 0)
(3 1.76068e-15 0)
(3 2.04836e-15 0)
(3 1.26792e-15 0)
(3 2.35684e-16 0)
(3 -6.38564e-16 0)
(3 -3.78952e-16 0)
(3 -3.4426e-18 0)
(3 -2.52493e-16 0)
(1.65365 1.24263 0)
(1.79027 1.10387 0)
(2.86703 0.093298 0)
(3 -1.11328e-12 0)
(3 -2.13803e-16 0)
(3 -2.03705e-16 0)
(3 -2.75666e-16 0)
(3 -3.42863e-16 0)
(3 2.75413e-16 0)
(3 7.25374e-16 0)
(3 7.51114e-16 0)
(3 1.19113e-15 0)
(3 1.85592e-15 0)
(3 2.10799e-15 0)
(3 1.92574e-15 0)
(3 1.61697e-15 0)
(3 1.06746e-15 0)
(3 5.34962e-16 0)
(3 7.62993e-16 0)
(3 1.44355e-15 0)
(1.68514 1.19876 0)
(1.92323 0.963892 0)
(2.99898 0.00035603 0)
(3 1.13983e-14 0)
(3 3.93846e-16 0)
(3 1.24251e-15 0)
(3 7.94627e-16 0)
(3 7.27928e-16 0)
(3 2.75104e-16 0)
(3 -2.81178e-16 0)
(3 -2.36729e-16 0)
(3 5.59809e-16 0)
(3 9.48905e-16 0)
(3 1.44291e-15 0)
(3 1.50251e-15 0)
(3 1.3433e-15 0)
(3 1.09733e-15 0)
(3 5.66688e-16 0)
(3 6.83465e-16 0)
(3 2.0014e-16 0)
(1.71916 1.15843 0)
(2.05637 0.829597 0)
(3 3.60418e-16 0)
(3 8.97494e-16 0)
(3 3.43995e-15 0)
(3 3.39875e-15 0)
(3 2.40772e-15 0)
(3 2.27866e-15 0)
(3 2.04131e-15 0)
(3 2.25517e-15 0)
(3 2.34286e-15 0)
(3 1.86854e-15 0)
(3 2.44474e-15 0)
(3 2.66818e-15 0)
(3 2.56336e-15 0)
(3 2.35283e-15 0)
(3 1.8439e-15 0)
(3 1.72554e-15 0)
(3 1.63137e-15 0)
(3 1.9103e-15 0)
(1.72644 1.10808 0)
(2.20025 0.66428 0)
(3 2.04129e-15 0)
(3 2.55046e-15 0)
(3 2.92451e-15 0)
(3 3.11001e-15 0)
(3 3.40103e-15 0)
(3 3.46388e-15 0)
(3 3.48807e-15 0)
(3 3.25273e-15 0)
(3 3.76528e-15 0)
(3 3.95272e-15 0)
(3 3.26281e-15 0)
(3 4.19769e-15 0)
(3 5.52429e-15 0)
(3 5.48963e-15 0)
(3 4.58977e-15 0)
(3 3.80238e-15 0)
(3 3.13508e-15 0)
(3 2.46956e-15 0)
(1.83004 1.0175 0)
(2.43374 0.453379 0)
(3 2.75048e-15 0)
(3 3.28855e-15 0)
(3 3.53477e-15 0)
(3 3.41425e-15 0)
(3 3.30838e-15 0)
(3 3.16274e-15 0)
(3 2.65825e-15 0)
(3 1.87951e-15 0)
(3 1.81426e-15 0)
(3 2.10825e-15 0)
(3 2.19388e-15 0)
(3 2.89674e-15 0)
(3 3.95095e-15 0)
(3 4.6011e-15 0)
(3 5.00779e-15 0)
(3 5.38055e-15 0)
(3 4.36773e-15 0)
(3 4.24028e-15 0)
(1.96254 0.873041 0)
(2.73071 0.196811 0)
(3 1.25709e-15 0)
(3 2.11375e-15 0)
(3 2.26484e-15 0)
(3 2.43439e-15 0)
(3 2.13605e-15 0)
(3 1.6855e-15 0)
(3 1.80986e-15 0)
(3 1.71796e-15 0)
(3 1.9166e-15 0)
(3 2.06708e-15 0)
(3 2.03302e-15 0)
(3 1.79734e-15 0)
(3 1.69747e-15 0)
(3 1.95574e-15 0)
(3 3.34029e-15 0)
(3 3.68437e-15 0)
(3 4.32207e-15 0)
(3 4.52554e-15 0)
(2.09622 0.639456 0)
(2.99256 0.000194197 0)
(3 1.58144e-15 0)
(3 1.45823e-15 0)
(3 1.64782e-15 0)
(3 1.48246e-15 0)
(3 1.21164e-15 0)
(3 1.53294e-16 0)
(3 3.00211e-16 0)
(3 3.8024e-16 0)
(3 8.88538e-16 0)
(3 9.55975e-16 0)
(3 7.65847e-16 0)
(3 5.40422e-16 0)
(3 2.41618e-16 0)
(3 3.11137e-16 0)
(3 6.73968e-16 0)
(3 1.72976e-15 0)
(3 2.7591e-15 0)
(3 3.20871e-15 0)
(1.99329 0.379684 0)
(2.99992 -1.16528e-05 0)
(3 3.41707e-16 0)
(3 -1.49173e-16 0)
(3 2.62525e-16 0)
(3 2.16088e-16 0)
(3 1.9977e-16 0)
(3 9.15959e-17 0)
(3 -8.29456e-17 0)
(3 -1.4216e-16 0)
(3 7.8557e-17 0)
(3 6.60772e-17 0)
(3 1.05982e-16 0)
(3 1.77857e-16 0)
(3 -3.29106e-18 0)
(3 -2.75465e-16 0)
(3 -4.96563e-16 0)
(3 -6.63369e-16 0)
(3 -6.42451e-16 0)
(3 -4.72624e-16 0)
(1.9927 -0.379066 0)
(2.9999 1.70317e-05 0)
(3 -1.27254e-15 0)
(3 -1.28728e-15 0)
(3 -1.59431e-15 0)
(3 -1.51802e-15 0)
(3 -1.36492e-15 0)
(3 -1.25951e-15 0)
(3 -1.36171e-15 0)
(3 -1.69056e-15 0)
(3 -1.85205e-15 0)
(3 -1.96869e-15 0)
(3 -1.93795e-15 0)
(3 -1.95696e-15 0)
(3 -2.28544e-15 0)
(3 -2.58114e-15 0)
(3 -2.9255e-15 0)
(3 -3.13708e-15 0)
(3 -3.45803e-15 0)
(3 -3.43335e-15 0)
(2.09122 -0.641582 0)
(2.9928 -0.000158076 0)
(3 -2.37974e-15 0)
(3 -2.30658e-15 0)
(3 -2.59631e-15 0)
(3 -3.05843e-15 0)
(3 -3.44959e-15 0)
(3 -3.41437e-15 0)
(3 -3.54523e-15 0)
(3 -3.36245e-15 0)
(3 -3.48508e-15 0)
(3 -3.48909e-15 0)
(3 -3.39209e-15 0)
(3 -3.54061e-15 0)
(3 -3.60253e-15 0)
(3 -3.5901e-15 0)
(3 -3.51608e-15 0)
(3 -3.61473e-15 0)
(3 -3.57472e-15 0)
(3 -3.57925e-15 0)
(1.9611 -0.868492 0)
(2.73559 -0.192498 0)
(3 -2.74884e-15 0)
(3 -3.10485e-15 0)
(3 -3.70222e-15 0)
(3 -4.25291e-15 0)
(3 -4.06993e-15 0)
(3 -3.26118e-15 0)
(3 -3.09334e-15 0)
(3 -2.70937e-15 0)
(3 -2.80642e-15 0)
(3 -2.36669e-15 0)
(3 -2.17236e-15 0)
(3 -2.09338e-15 0)
(3 -2.18893e-15 0)
(3 -2.72472e-15 0)
(3 -3.2028e-15 0)
(3 -3.82373e-15 0)
(3 -4.93724e-15 0)
(3 -5.83569e-15 0)
(1.83702 -1.01921 0)
(2.44009 -0.45062 0)
(3 1.48782e-15 0)
(3 1.87461e-15 0)
(3 1.07579e-15 0)
(3 7.24225e-16 0)
(3 4.02946e-16 0)
(3 3.89256e-16 0)
(3 2.8012e-16 0)
(3 -1.91454e-16 0)
(3 -4.75812e-16 0)
(3 -8.60105e-16 0)
(3 -1.52563e-15 0)
(3 -1.74907e-15 0)
(3 -2.03453e-15 0)
(3 -2.28276e-15 0)
(3 -2.446e-15 0)
(3 -2.51866e-15 0)
(3 -2.47221e-15 0)
(3 -2.0173e-15 0)
(1.72744 -1.10881 0)
(2.19866 -0.664342 0)
(3 8.12191e-16 0)
(3 -4.20842e-17 0)
(3 -6.73321e-16 0)
(3 -7.40141e-16 0)
(3 -8.95281e-16 0)
(3 -1.17707e-15 0)
(3 -9.42216e-16 0)
(3 -9.27152e-16 0)
(3 -1.06506e-15 0)
(3 -1.67893e-15 0)
(3 -1.79069e-15 0)
(3 -1.70346e-15 0)
(3 -1.52428e-15 0)
(3 -9.83968e-16 0)
(3 -3.98361e-16 0)
(3 1.15455e-16 0)
(3 1.31451e-15 0)
(3 1.63e-15 0)
(1.71186 -1.15932 0)
(2.05052 -0.832398 0)
(3 1.52867e-15 0)
(3 3.15404e-16 0)
(3 -5.7726e-16 0)
(3 -9.18844e-16 0)
(3 -1.17312e-15 0)
(3 -1.28292e-15 0)
(3 -1.34776e-15 0)
(3 -1.2621e-15 0)
(3 -1.77109e-15 0)
(3 -2.00745e-15 0)
(3 -2.07811e-15 0)
(3 -1.74444e-15 0)
(3 -1.26982e-15 0)
(3 -5.37718e-16 0)
(3 2.14616e-16 0)
(3 4.66818e-16 0)
(3 1.41393e-16 0)
(3 1.05232e-16 0)
(1.68801 -1.19671 0)
(1.92428 -0.964528 0)
(2.99946 -0.000167654 0)
(3 -1.21553e-14 0)
(3 3.59949e-16 0)
(3 -4.91766e-16 0)
(3 -6.75264e-16 0)
(3 -6.6035e-16 0)
(3 -1.19137e-15 0)
(3 -2.15862e-15 0)
(3 -3.02519e-15 0)
(3 -3.21945e-15 0)
(3 -2.69468e-15 0)
(3 -1.97795e-15 0)
(3 -4.6709e-16 0)
(3 -1.17099e-15 0)
(3 -1.69535e-15 0)
(3 -1.70947e-15 0)
(3 -7.44024e-16 0)
(3 -4.15672e-16 0)
(1.65512 -1.24275 0)
(1.79552 -1.10238 0)
(2.86885 -0.0920667 0)
(3 1.19147e-12 0)
(3 1.74631e-16 0)
(3 -5.2991e-17 0)
(3 -4.60145e-16 0)
(3 -1.03257e-15 0)
(3 -2.49548e-15 0)
(3 -3.90914e-15 0)
(3 -4.3918e-15 0)
(3 -3.68242e-15 0)
(3 -2.4171e-15 0)
(3 -8.33324e-16 0)
(3 5.84641e-16 0)
(3 -3.28131e-16 0)
(3 -7.42882e-16 0)
(3 -3.71361e-16 0)
(3 2.37312e-16 0)
(3 5.24712e-16 0)
(1.63534 -1.26599 0)
(1.64767 -1.23465 0)
(2.65433 -0.285145 0)
(3 -7.91682e-13 0)
(3 -6.25705e-15 0)
(3 -7.68597e-16 0)
(3 -2.66022e-16 0)
(3 -8.55882e-17 0)
(3 -2.51931e-15 0)
(3 -2.94244e-15 0)
(3 -3.05312e-15 0)
(3 -1.71947e-15 0)
(3 -4.27138e-16 0)
(3 7.36705e-16 0)
(3 1.83853e-15 0)
(3 1.1076e-15 0)
(3 9.34859e-16 0)
(3 9.46649e-16 0)
(3 1.18128e-15 0)
(3 2.37471e-15 0)
(1.62065 -1.28023 0)
(1.57989 -1.30769 0)
(2.43154 -0.523231 0)
(3 -2.65916e-13 0)
(3 8.61061e-12 0)
(3 -1.57226e-13 0)
(3 2.70476e-15 0)
(3 -4.75966e-16 0)
(3 -4.14868e-16 0)
(3 -4.36672e-16 0)
(3 -3.592e-16 0)
(3 -6.61333e-17 0)
(3 2.97026e-16 0)
(3 1.38262e-15 0)
(3 1.71422e-15 0)
(3 1.20702e-15 0)
(3 6.0076e-16 0)
(3 1.57859e-17 0)
(3 1.01264e-15 0)
(3 3.17636e-15 0)
(1.60356 -1.29698 0)
(1.48216 -1.39973 0)
(2.10541 -0.867148 0)
(3.01131 0.00946156 0)
(3 -1.25321e-08 0)
(3 2.72443e-11 0)
(3 -8.0696e-14 0)
(3 -1.57714e-16 0)
(3 3.54749e-17 0)
(3 -1.99414e-16 0)
(3 -5.30056e-16 0)
(3 -9.21961e-16 0)
(3 -7.72628e-16 0)
(3 -2.93909e-16 0)
(3 1.07881e-15 0)
(3 1.90902e-15 0)
(3 1.81014e-15 0)
(3 2.1883e-15 0)
(3 3.82458e-15 0)
(3 5.32676e-15 0)
(1.58336 -1.30437 0)
(1.47114 -1.33628 0)
(1.99195 -1.04188 0)
(2.88495 -0.124122 0)
(3 2.12417e-09 0)
(3 -5.70792e-12 0)
(3 2.34136e-14 0)
(3 -6.55902e-16 0)
(3 -2.08e-16 0)
(3 -1.6427e-16 0)
(3 -5.4088e-16 0)
(3 -5.20257e-16 0)
(3 -7.21493e-16 0)
(3 -4.98824e-16 0)
(3 1.20899e-15 0)
(3 2.58965e-15 0)
(3 2.65595e-15 0)
(3 4.24703e-15 0)
(3 5.1137e-15 0)
(3 5.18745e-15 0)
(1.58176 -1.32143 0)
(1.50123 -1.32253 0)
(1.75492 -1.1894 0)
(2.41586 -0.549292 0)
(3 3.40726e-09 0)
(3 -2.75924e-11 0)
(3 -1.88243e-13 0)
(3 5.49102e-15 0)
(3 -1.36163e-15 0)
(3 1.9694e-16 0)
(3 8.54698e-17 0)
(3 -1.77621e-16 0)
(3 -8.99734e-16 0)
(3 -7.11641e-16 0)
(3 3.42117e-16 0)
(3 2.92039e-15 0)
(3 3.58199e-15 0)
(3 4.11193e-15 0)
(3 4.65179e-15 0)
(3 4.59911e-15 0)
(1.58585 -1.29633 0)
(1.5489 -1.28541 0)
(1.65674 -1.23226 0)
(2.08278 -0.856628 0)
(3.01865 0.0134792 0)
(3 -2.83319e-12 0)
(3 4.23823e-12 0)
(3 -1.97996e-12 0)
(3 5.54784e-13 0)
(3 -2.67297e-14 0)
(3 4.83372e-16 0)
(3 6.95067e-16 0)
(3 -8.90839e-17 0)
(3 -1.16297e-15 0)
(3 -9.50641e-16 0)
(3 2.5937e-15 0)
(3 4.03016e-15 0)
(3 4.36981e-15 0)
(3 3.94849e-15 0)
(3 4.07125e-15 0)
(1.58768 -1.28676 0)
(1.58859 -1.27962 0)
(1.64779 -1.24116 0)
(1.89242 -1.07137 0)
(2.75562 -0.209986 0)
(3 5.76663e-10 0)
(3 -1.36204e-08 0)
(3 1.22601e-08 0)
(3 -5.21363e-10 0)
(3 -1.91674e-12 0)
(3 8.74073e-14 0)
(3 8.37919e-16 0)
(3 1.06509e-15 0)
(3 -5.69061e-16 0)
(3 -6.87581e-16 0)
(3 2.11633e-15 0)
(3 2.98068e-15 0)
(3 2.61481e-15 0)
(3 3.74842e-15 0)
(3 3.91346e-15 0)
(1.58717 -1.27198 0)
(1.60544 -1.26875 0)
(1.63685 -1.26228 0)
(1.68616 -1.22563 0)
(2.33096 -0.648024 0)
(3.02237 0.0207777 0)
(2.99972 -0.000111568 0)
(3 4.03123e-06 0)
(3 -7.92943e-08 0)
(3 8.64897e-10 0)
(3 -1.33954e-13 0)
(3 1.98134e-15 0)
(3 1.61686e-15 0)
(3 4.66876e-16 0)
(3 -3.8048e-16 0)
(3 1.41906e-15 0)
(3 2.00053e-15 0)
(3 1.22432e-15 0)
(3 2.32589e-15 0)
(3 3.08147e-15 0)
(1.58363 -1.25755 0)
(1.60214 -1.2633 0)
(1.61966 -1.27107 0)
(1.57378 -1.34022 0)
(1.83214 -1.11983 0)
(2.70553 -0.263944 0)
(3.00477 0.00106795 0)
(2.99993 -5.83029e-05 0)
(3 7.1953e-07 0)
(3 -8.37698e-10 0)
(3 3.79922e-15 0)
(3 1.65473e-15 0)
(3 1.4441e-15 0)
(3 4.83391e-16 0)
(3 1.06755e-16 0)
(3 1.14068e-15 0)
(3 1.00202e-15 0)
(3 2.29755e-16 0)
(3 1.17465e-15 0)
(3 3.11453e-15 0)
(1.58036 -1.25372 0)
(1.59807 -1.25928 0)
(1.59849 -1.26735 0)
(1.56916 -1.29277 0)
(1.74976 -1.19984 0)
(2.21599 -0.827549 0)
(2.9938 -0.00223952 0)
(3.00012 0.000363766 0)
(3 -5.27396e-07 0)
(3 -6.01001e-11 0)
(3 1.03099e-15 0)
(3 -1.13005e-15 0)
(3 -1.52931e-15 0)
(3 9.69678e-16 0)
(3 -1.0406e-16 0)
(3 8.33946e-16 0)
(3 7.1324e-16 0)
(3 5.0216e-16 0)
(3 4.15169e-16 0)
(3 3.07638e-15 0)
(1.57424 -1.24413 0)
(1.58846 -1.25662 0)
(1.60126 -1.26526 0)
(1.60631 -1.26214 0)
(1.67073 -1.23964 0)
(1.76819 -1.20538 0)
(2.31135 -0.708155 0)
(3.00328 -0.00630114 0)
(3 -6.70781e-08 0)
(3 3.17887e-11 0)
(3 6.77563e-16 0)
(3 -4.27166e-15 0)
(3 -2.97502e-15 0)
(3 -2.3576e-15 0)
(3 2.39563e-16 0)
(3 7.93999e-16 0)
(3 3.50781e-16 0)
(3 6.31998e-16 0)
(3 7.13722e-16 0)
(3 2.35264e-15 0)
(1.57704 -1.25311 0)
(1.58279 -1.25896 0)
(1.5937 -1.26429 0)
(1.60495 -1.26456 0)
(1.62097 -1.25195 0)
(1.60883 -1.26208 0)
(1.8811 -1.15763 0)
(2.96459 -0.365992 0)
(3.36664 0.621866 0)
(3 -6.38231e-11 0)
(3 7.45876e-11 0)
(3 -7.82731e-11 0)
(3 -9.36986e-15 0)
(3 4.24841e-13 0)
(3 1.48629e-14 0)
(3 -1.5708e-14 0)
(3 1.08715e-14 0)
(3 2.73237e-15 0)
(3 -3.20704e-16 0)
(3 6.00589e-15 0)
(1.16688 -0.761954 0)
(1.827 -1.14819 0)
(1.84032 -1.14953 0)
(1.745 -1.1919 0)
(1.71753 -1.20295 0)
(1.66843 -1.24513 0)
(1.65589 -1.21736 0)
(1.72202 -1.16377 0)
(1.74642 -1.23338 0)
(1.77425 -1.14945 0)
(2.26209 -0.753983 0)
(2.85167 -0.218182 0)
(3.0939 0.0246917 0)
(3.02036 0.0121963 0)
(3.0046 0.00546061 0)
(3.0019 0.00306172 0)
(3.00006 0.000601237 0)
(2.99998 2.45131e-05 0)
(2.99999 -1.43737e-05 0)
(3 -5.92029e-06 0)
(1.00934 -0.0366918 0)
(1.91878 -0.788044 0)
(2.11641 -0.794431 0)
(2.00764 -0.940585 0)
(1.96751 -0.982801 0)
(1.8701 -1.09123 0)
(1.79273 -1.13876 0)
(1.75635 -1.14573 0)
(1.75257 -1.1626 0)
(1.72856 -1.2058 0)
(1.71319 -1.19816 0)
(1.8719 -1.07066 0)
(2.11166 -0.88181 0)
(2.50983 -0.573579 0)
(2.98756 -0.134772 0)
(3.07407 0.0299484 0)
(3.00825 0.00777325 0)
(3.00295 0.00384425 0)
(3.00123 0.00219277 0)
(3.00008 0.000477851 0)
(1.04037 0.0749802 0)
(1.91852 -0.107966 0)
(2.21718 -0.546761 0)
(2.25527 -0.523403 0)
(2.19857 -0.644111 0)
(2.16581 -0.732135 0)
(2.03832 -0.898854 0)
(1.96197 -0.969131 0)
(1.89812 -1.03365 0)
(1.85116 -1.12551 0)
(1.79287 -1.15606 0)
(1.79515 -1.14828 0)
(1.81429 -1.1275 0)
(1.85042 -1.08618 0)
(2.03609 -0.952564 0)
(2.2527 -0.832969 0)
(2.66107 -0.507973 0)
(3.03553 -0.0931414 0)
(3.05534 0.0240855 0)
(3.00409 0.00471858 0)
(1.18364 0.88632 0)
(1.66251 1.1386 0)
(2.25246 0.768496 0)
(2.33944 -0.234525 0)
(2.37601 -0.311854 0)
(2.35602 -0.41928 0)
(2.29296 -0.529531 0)
(2.20913 -0.651155 0)
(2.13704 -0.751689 0)
(2.08942 -0.887905 0)
(1.9833 -0.997902 0)
(1.9243 -1.05576 0)
(1.8836 -1.08243 0)
(1.86595 -1.0939 0)
(1.8667 -1.06224 0)
(1.8946 -1.05201 0)
(1.96248 -1.02147 0)
(2.16787 -0.89853 0)
(2.38409 -0.786437 0)
(2.77721 -0.439946 0)
(1.15318 1.32714 0)
(1.34107 1.90283 0)
(1.88545 1.55153 0)
(2.17842 0.825613 0)
(2.39275 0.407066 0)
(2.44373 -0.0468888 0)
(2.46723 -0.186117 0)
(2.38744 -0.425453 0)
(2.32547 -0.525132 0)
(2.29181 -0.652982 0)
(2.20467 -0.788356 0)
(2.12577 -0.885623 0)
(2.06526 -0.93899 0)
(2.01284 -0.986721 0)
(1.98174 -0.979816 0)
(1.96012 -0.985943 0)
(1.95787 -1.00741 0)
(1.97177 -0.992721 0)
(1.99505 -0.993904 0)
(2.06799 -0.9802 0)
(1.10382 1.34057 0)
(1.64328 2.26928 0)
(2.0257 1.73195 0)
(2.01829 1.45078 0)
(2.18519 1.20375 0)
(2.40199 0.782847 0)
(2.46432 0.266908 0)
(2.49217 0.101502 0)
(2.44104 -0.132433 0)
(2.44856 -0.23619 0)
(2.40471 -0.403642 0)
(2.34783 -0.532663 0)
(2.29658 -0.623429 0)
(2.2341 -0.712796 0)
(2.17985 -0.767813 0)
(2.13723 -0.80307 0)
(2.07511 -0.871158 0)
(2.04873 -0.908088 0)
(2.03026 -0.940834 0)
(2.05924 -0.956289 0)
(1.02777 1.08408 0)
(1.67872 1.91022 0)
(2.41005 1.79748 0)
(2.18762 1.69913 0)
(2.20684 1.45363 0)
(2.31845 1.22043 0)
(2.40931 0.853611 0)
(2.45015 0.630916 0)
(2.468 0.432856 0)
(2.49648 0.250918 0)
(2.52759 0.0524983 0)
(2.49024 -0.170361 0)
(2.46888 -0.329414 0)
(2.39956 -0.496448 0)
(2.33965 -0.614327 0)
(2.29591 -0.662018 0)
(2.22393 -0.73774 0)
(2.20823 -0.724431 0)
(2.18591 -0.748801 0)
(2.14867 -0.772541 0)
(1.07862 0.988374 0)
(1.42311 1.23909 0)
(1.93657 1.68851 0)
(2.27812 2.03196 0)
(2.45148 1.5782 0)
(2.4514 1.39727 0)
(2.5306 1.16232 0)
(2.59772 0.745426 0)
(2.60887 0.655543 0)
(2.61281 0.356093 0)
(2.65404 0.179315 0)
(2.60538 -0.0720955 0)
(2.58734 -0.212398 0)
(2.52483 -0.367254 0)
(2.48267 -0.434799 0)
(2.44676 -0.445031 0)
(2.41773 -0.434949 0)
(2.4032 -0.423305 0)
(2.32195 -0.540061 0)
(2.31299 -0.533062 0)
(1.17798 0.975004 0)
(1.35004 1.12166 0)
(1.6298 1.60745 0)
(1.76065 2.00327 0)
(2.3892 1.69499 0)
(2.6426 1.5569 0)
(2.84841 1.38668 0)
(2.84091 0.765193 0)
(2.80543 0.613396 0)
(2.73365 0.453494 0)
(2.72239 0.343733 0)
(2.69456 0.189362 0)
(2.66881 0.102171 0)
(2.64434 0.0178845 0)
(2.60625 -0.0474382 0)
(2.58235 -0.0634105 0)
(2.55843 -0.115413 0)
(2.51117 -0.236317 0)
(2.43863 -0.384141 0)
(2.44898 -0.356015 0)
(1.23561 1.03104 0)
(1.32035 1.12565 0)
(1.44049 1.61015 0)
(1.52965 1.91538 0)
(1.79973 1.82442 0)
(2.17871 1.70193 0)
(2.42637 1.53779 0)
(2.56045 1.25683 0)
(2.62322 1.0986 0)
(2.60397 1.06209 0)
(2.61986 0.875174 0)
(2.63908 0.71567 0)
(2.62908 0.545418 0)
(2.66948 0.45817 0)
(2.64803 0.272554 0)
(2.66985 0.16978 0)
(2.63964 -0.0251805 0)
(2.59818 -0.160594 0)
(2.53028 -0.228816 0)
(2.5632 -0.121263 0)
(1.30549 1.14073 0)
(1.36666 1.22398 0)
(1.38211 1.69704 0)
(1.48865 1.94236 0)
(1.69181 1.90716 0)
(1.94511 1.78385 0)
(2.15508 1.77368 0)
(2.28112 1.64861 0)
(2.36095 1.42571 0)
(2.40932 1.34764 0)
(2.49877 1.13605 0)
(2.58493 0.977746 0)
(2.62601 0.726262 0)
(2.73094 0.608407 0)
(2.71043 0.335566 0)
(2.72466 0.213927 0)
(2.70084 0.0487306 0)
(2.6621 0.0457702 0)
(2.63756 0.109114 0)
(2.61251 0.0609384 0)
(1.42555 1.29573 0)
(1.46362 1.41469 0)
(1.40206 1.86681 0)
(1.4914 2.02908 0)
(1.68381 1.95507 0)
(1.84731 1.86661 0)
(1.97786 1.86076 0)
(2.16198 1.69199 0)
(2.29245 1.50808 0)
(2.42732 1.42414 0)
(2.56002 1.16571 0)
(2.67223 0.968452 0)
(2.69963 0.713709 0)
(2.74342 0.610183 0)
(2.75254 0.474425 0)
(2.74961 0.456086 0)
(2.73494 0.368578 0)
(2.71045 0.432941 0)
(2.70379 0.431611 0)
(2.6652 0.23777 0)
(1.62573 1.41395 0)
(1.67962 1.49659 0)
(1.52136 2.00258 0)
(1.5935 2.12105 0)
(1.74158 1.99367 0)
(1.88583 1.90943 0)
(1.99967 1.90716 0)
(2.22479 1.67814 0)
(2.41702 1.5793 0)
(2.58218 1.39141 0)
(2.6545 1.25796 0)
(2.71876 1.09044 0)
(2.71666 1.05921 0)
(2.72583 1.00912 0)
(2.73007 0.914628 0)
(2.713 0.848588 0)
(2.70047 0.759666 0)
(2.73784 0.760596 0)
(2.73594 0.608554 0)
(2.73896 0.381748 0)
(1.75947 1.51686 0)
(1.95407 1.49948 0)
(1.74739 2.05697 0)
(1.74585 2.15867 0)
(1.9175 2.03901 0)
(2.05358 1.96587 0)
(2.17632 1.99913 0)
(2.39944 1.73545 0)
(2.46942 1.80084 0)
(2.55539 1.5774 0)
(2.56255 1.60095 0)
(2.63612 1.4471 0)
(2.61275 1.4022 0)
(2.61914 1.31807 0)
(2.63928 1.21267 0)
(2.65652 1.0939 0)