/*--------------------------------*- C++ -*----------------------------------*\
  =========                 |
  \\      /  F ield         | OpenFOAM: The Open Source CFD Toolbox
   \\    /   O peration     | Website:  https://openfoam.org
    \\  /    A nd           | Version:  7
     \\/     M anipulation  |
\*---------------------------------------------------------------------------*/
FoamFile
{
    version     2.0;
    format      ascii;
    class       volScalarField;
    location    "6.3";
    object      p;
}
// * * * * * * * * * * * * * * * * * * * * * * * * * * * * * * * * * * * * * //

dimensions      [1 -1 -2 0 0 0 0];

internalField   nonuniform List<scalar> 
3700
(
0.101948
0.17703
0.224675
0.27864
0.310875
0.361593
0.39946
0.426686
0.434536
0.434602
0.453108
0.464724
0.476806
0.469785
0.477766
0.502347
0.50595
0.5161
0.525289
0.51445
0.0747443
0.0824267
0.100684
0.114148
0.109454
0.114905
0.131008
0.145176
0.132367
0.11861
0.131627
0.151036
0.167979
0.175216
0.182251
0.195391
0.211957
0.228333
0.225345
0.201405
0.0859829
0.0852567
0.0807253
0.0684712
0.0564152
0.0501267
0.0498326
0.0534569
0.0542791
0.0590285
0.0673344
0.0756188
0.0857357
0.0977145
0.107646
0.114306
0.118036
0.119468
0.119636
0.121072
0.0916892
0.0837078
0.0712533
0.0579811
0.0544442
0.0570815
0.0594227
0.0672736
0.0655819
0.0736774
0.0766676
0.0841441
0.0944147
0.109195
0.125386
0.142307
0.158536
0.169059
0.174851
0.17497
0.0931874
0.0720851
0.0613841
0.0545522
0.053957
0.0593939
0.0682491
0.0826567
0.0943715
0.11314
0.106801
0.110528
0.108316
0.114584
0.130298
0.152538
0.17656
0.200173
0.222917
0.23998
0.0900687
0.065096
0.0552132
0.0490573
0.0497007
0.0579478
0.0677755
0.0861712
0.110927
0.132286
0.148067
0.162561
0.159971
0.163981
0.16403
0.171141
0.190635
0.226901
0.263324
0.31833
0.0926518
0.0619641
0.0521227
0.0473643
0.0482891
0.0558335
0.0647875
0.0819933
0.114039
0.142907
0.173374
0.192669
0.215883
0.236178
0.244923
0.253647
0.265423
0.282055
0.314497
0.398897
0.0971989
0.0602224
0.0502147
0.0481817
0.0498179
0.0605027
0.0696732
0.0832563
0.110516
0.142607
0.183961
0.213344
0.256357
0.291443
0.325712
0.358155
0.385864
0.411092
0.436998
0.530095
0.0943986
0.0565683
0.0499274
0.0524957
0.0603188
0.0836706
0.0985337
0.118943
0.140088
0.15701
0.187903
0.228148
0.287653
0.339989
0.394444
0.454542
0.511611
0.569571
0.606932
0.728562
0.0815953
0.0459585
0.0438188
0.0534768
0.0667228
0.102632
0.137285
0.179459
0.213052
0.249726
0.280151
0.318173
0.364535
0.421007
0.480998
0.560117
0.655904
0.749361
0.839276
0.963089
0.0581041
0.0354778
0.0338844
0.0445342
0.0633528
0.106285
0.156609
0.216625
0.278851
0.359689
0.425146
0.491793
0.556449
0.621499
0.674093
0.743632
0.846346
0.962792
1.16854
1.15256
0.0402628
0.0271979
0.0256053
0.0380261
0.0584808
0.0986916
0.154983
0.223518
0.314155
0.445206
0.556064
0.663246
0.771383
0.865494
0.960891
1.06722
1.18157
1.30647
1.53871
1.51342
0.0278177
0.0202399
0.0206919
0.0348271
0.0569434
0.102847
0.169196
0.245308
0.393236
0.565322
0.732576
0.882705
1.03456
1.16572
1.32825
1.50078
1.67034
1.83174
2.08948
2.07872
0.0200389
0.0150212
0.0175139
0.0324409
0.0848467
0.223726
0.3749
0.53566
0.755192
0.964238
1.15515
1.31834
1.48156
1.64077
1.8546
2.09504
2.33678
2.5857
2.79075
3.00289
0.014952
0.0116463
0.0167227
0.0519679
0.226265
0.464171
0.677062
0.935083
1.23848
1.53458
1.76745
1.98439
2.19823
2.42151
2.70838
2.98744
3.26329
3.5043
3.65144
3.77824
0.012433
0.00962189
0.0500478
0.179948
0.460187
0.750865
1.05865
1.4511
1.89391
2.28271
2.57797
2.86259
3.13763
3.42886
3.7464
3.96193
4.09454
4.13843
4.04493
3.91795
0.00772738
0.0232746
0.165559
0.444578
0.871799
1.39827
1.96261
2.53073
3.12926
3.52613
3.77869
4.0192
4.2232
4.37203
4.45971
4.386
4.1718
3.64415
2.79469
1.89752
0.0272653
0.152442
0.52055
1.18082
2.06694
2.87953
3.56866
4.26818
4.77282
4.83399
4.7631
4.75373
4.71072
4.53935
4.02572
3.06368
2.08721
1.3311
1.01834
0.99282
0.311235
0.879219
1.99144
3.18324
4.18654
4.84182
5.41849
5.88746
5.74287
5.28706
4.85433
4.32365
3.40595
2.33672
1.43234
1.0315
0.989476
0.994959
0.997333
0.999438
2.31878
3.64056
4.90098
5.68684
6.1762
6.40778
6.55455
6.26029
4.56131
3.21585
2.37246
1.55952
1.07711
0.986988
0.992703
0.99621
0.999154
0.999976
1.00002
1.00001
6.97003
6.92332
6.88373
6.85157
6.91863
6.77539
6.02195
2.39209
0.629304
1
1
1
1
1
1
1
1
1
1
1
6.9594
6.8987
6.83251
6.75507
6.73913
5.78451
2.6378
1.02501
1
1
1
1
1
1
1
1
1
1
1
1
6.817
6.85538
6.83703
6.74842
6.47752
3.30395
1.02334
0.999638
1
1
1
1
1
1
1
1
1
1
1
1
6.69896
6.82828
6.81898
6.50583
4.67557
1.39361
0.99507
1.00009
0.999999
1
1
1
1
1
1
1
1
1
1
1
6.54735
6.82934
6.81475
6.01241
2.81193
0.974198
1.00035
0.999994
1
1
1
1
1
1
1
1
1
1
1
1
6.41769
6.79326
6.82998
5.06719
1.44166
1
1
1
1
1
1
1
1
1
1
1
1
1
1
1
6.35333
6.66579
6.66515
3.49094
0.973876
1
1
1
1
1
1
1
1
1
1
1
1
1
1
1
6.47875
6.60779
6.01756
2.06331
1
1
1
1
1
1
1
1
1
1
1
1
1
1
1
1
6.99587
6.71064
4.90597
1.16342
1
1
1
1
1
1
1
1
1
1
1
1
1
1
1
1
7.24183
6.37331
3.49312
0.988025
1
1
1
1
1
1
1
1
1
1
1
1
1
1
1
1
7.41026
5.98736
2.33554
1
1
1
1
1
1
1
1
1
1
1
1
1
1
1
1
1
7.48205
5.42727
1.60421
1
1
1
1
1
1
1
1
1
1
1
1
1
1
1
1
1
7.52693
4.735
1.17853
1
1
1
1
1
1
1
1
1
1
1
1
1
1
1
1
1
7.40825
3.99697
1.00961
1
1
1
1
1
1
1
1
1
1
1
1
1
1
1
1
1
7.2338
3.15609
1
1
1
1
1
1
1
1
1
1
1
1
1
1
1
1
1
1
6.87111
2.53146
1
1
1
1
1
1
1
1
1
1
1
1
1
1
1
1
1
1
6.67011
1.94562
1
1
1
1
1
1
1
1
1
1
1
1
1
1
1
1
1
1
6.35902
1.37409
1
1
1
1
1
1
1
1
1
1
1
1
1
1
1
1
1
1
5.64475
1.00557
1
1
1
1
1
1
1
1
1
1
1
1
1
1
1
1
1
1
4.6559
1.00005
1
1
1
1
1
1
1
1
1
1
1
1
1
1
1
1
1
1
4.66316
1.00005
1
1
1
1
1
1
1
1
1
1
1
1
1
1
1
1
1
1
5.64171
1.00534
1
1
1
1
1
1
1
1
1
1
1
1
1
1
1
1
1
1
6.34609
1.36703
1
1
1
1
1
1
1
1
1
1
1
1
1
1
1
1
1
1
6.69084
1.94148
1
1
1
1
1
1
1
1
1
1
1
1
1
1
1
1
1
1
6.87408
2.54959
1
1
1
1
1
1
1
1
1
1
1
1
1
1
1
1
1
1
7.20912
3.16143
1
1
1
1
1
1
1
1
1
1
1
1
1
1
1
1
1
1
7.41877
3.99094
1.00601
1
1
1
1
1
1
1
1
1
1
1
1
1
1
1
1
1
7.53801
4.72942
1.17638
1
1
1
1
1
1
1
1
1
1
1
1
1
1
1
1
1
7.48668
5.41931
1.59942
1
1
1
1
1
1
1
1
1
1
1
1
1
1
1
1
1
7.40759
5.99854
2.32924
1
1
1
1
1
1
1
1
1
1
1
1
1
1
1
1
1
7.22899
6.36857
3.51463
0.987923
1
1
1
1
1
1
1
1
1
1
1
1
1
1
1
1
6.98577
6.71845
4.92136
1.16138
1
1
1
1
1
1
1
1
1
1
1
1
1
1
1
1
6.4824
6.61029
6.03144
2.06649
1
1
1
1
1
1
1
1
1
1
1
1
1
1
1
1
6.35237
6.662
6.6393
3.46799
0.974233
1
1
1
1
1
1
1
1
1
1
1
1
1
1
1
6.40792
6.78277
6.83851
5.08205
1.4243
1
1
1
1
1
1
1
1
1
1
1
1
1
1
1
6.53631
6.8316
6.82782
6.03793
2.82613
0.973867
1.00035
0.999994
1
1
1
1
1
1
1
1
1
1
1
1
6.69487
6.83164
6.81699
6.45187
4.68071
1.40727
0.995009
1.00009
0.999999
1
1
1
1
1
1
1
1
1
1
1
6.81881
6.85731
6.83579
6.74028
6.47895
3.29837
1.02463
0.999626
1
1
1
1
1
1
1
1
1
1
1
1
6.96457
6.90093
6.83484
6.77198
6.77801
5.78971
2.6224
1.02223
1
1
1
1
1
1
1
1
1
1
1
1
6.97698
6.92623
6.88348
6.85486
6.91418
6.78118
6.0268
2.38805
0.628711
1
1
1
1
1
1
1
1
1
1
1
2.32063
3.64307
4.91588
5.7038
6.15635
6.39988
6.54948
6.25855
4.56212
3.21622
2.37143
1.55764
1.07599
0.986974
0.992714
0.996205
0.999151
0.999975
1.00002
1.00001
0.312515
0.86635
1.96411
3.18514
4.21172
4.84827
5.40333
5.88075
5.74015
5.28753
4.85389
4.32026
3.40048
2.33109
1.42907
1.03087
0.989481
0.994967
0.997337
0.999439
0.0313305
0.162855
0.514941
1.17639
2.04948
2.87715
3.57983
4.27476
4.76788
4.83172
4.75477
4.7586
4.71502
4.54286
4.02814
3.0635
2.08487
1.32943
1.01802
0.992818
0.00673855
0.0338994
0.167336
0.402438
0.86125
1.41723
1.96737
2.53573
3.13245
3.52607
3.7755
4.01795
4.22681
4.38032
4.46456
4.38899
4.172
3.64198
2.79246
1.89666
0.00934525
0.0159001
0.0495113
0.188861
0.44563
0.728603
1.06862
1.46921
1.90792
2.28971
2.57698
2.85959
3.1394
3.4366
3.75467
3.96549
4.09406
4.13757
4.0439
3.91726
0.0176157
0.0153239
0.0180938
0.0701068
0.214406
0.449281
0.675708
0.936243
1.24274
1.53636
1.76534
1.98267
2.1999
2.42653
2.71467
2.99179
3.26423
3.5035
3.65013
3.77746
0.022604
0.0174296
0.0183706
0.0333701
0.0833232
0.226277
0.358788
0.523
0.744555
0.957102
1.14829
1.31348
1.47898
1.64041
1.8551
2.09536
2.3359
2.58447
2.78892
3.00143
0.0303088
0.0214121
0.0209403
0.034866
0.0620512
0.109159
0.16567
0.24246
0.386912
0.55726
0.725035
0.876958
1.03098
1.16339
1.32725
1.50083
1.67088
1.83145
2.08734
2.0762
0.044355
0.0280472
0.0265642
0.0384922
0.0628881
0.100627
0.162372
0.226268
0.316511
0.443152
0.554442
0.661426
0.771041
0.865297
0.961585
1.06822
1.18182
1.30542
1.53706
1.51211
0.0647682
0.0356561
0.0347284
0.0477411
0.0674955
0.105223
0.164633
0.21712
0.281149
0.360309
0.425697
0.492094
0.557087
0.622663
0.67559
0.744418
0.845293
0.961191
1.16824
1.15514
0.0835593
0.0435399
0.0413818
0.0570811
0.0725051
0.101015
0.142928
0.179147
0.213926
0.250704
0.27997
0.31877
0.36545
0.4222
0.481387
0.559601
0.655879
0.750322
0.841465
0.964476
0.0928934
0.0482897
0.0430804
0.0539792
0.0652485
0.0796349
0.0990277
0.120567
0.139106
0.157443
0.189341
0.22982
0.288303
0.340541
0.39464
0.455099
0.512857
0.571798
0.608303
0.726768
0.0981131
0.0525253
0.0428859
0.0466035
0.0520631
0.0574424
0.0680048
0.0867874
0.112179
0.144881
0.185321
0.214135
0.256612
0.291557
0.325856
0.358938
0.386654
0.41205
0.435868
0.525195
0.101686
0.0582586
0.0452044
0.0459258
0.0504307
0.0554358
0.0661128
0.0875154
0.116692
0.144282
0.17374
0.192117
0.215441
0.235878
0.245949
0.25351
0.264074
0.279266
0.310106
0.393819
0.0986834
0.0668905
0.0523771
0.0500312
0.0534933
0.0599868
0.0704326
0.0899087
0.113467
0.131298
0.146511
0.161012
0.160763
0.164834
0.164146
0.169743
0.187267
0.223381
0.260994
0.317616
0.0932281
0.0762872
0.0652225
0.0583953
0.0581441
0.0627464
0.0695148
0.0827063
0.095748
0.110674
0.105663
0.110571
0.109155
0.114204
0.12804
0.150156
0.174911
0.199688
0.223274
0.241655
0.0876378
0.0837654
0.0750742
0.0648872
0.058543
0.0594019
0.0572015
0.0596341
0.0645425
0.0735345
0.0766271
0.0836952
0.0937201
0.108094
0.124306
0.141757
0.158962
0.170043
0.176869
0.176508
0.0778928
0.0818889
0.0841085
0.0771786
0.0632401
0.052982
0.0485336
0.0491674
0.052943
0.0583451
0.0668006
0.0751226
0.0853395
0.0977443
0.108781
0.115969
0.119945
0.120597
0.120366
0.121311
0.0721324
0.0901581
0.112048
0.136186
0.157618
0.154957
0.141702
0.126656
0.135879
0.143565
0.144506
0.141983
0.15617
0.186032
0.219987
0.233865
0.217264
0.197462
0.199127
0.202415
0.0954646
0.191263
0.228271
0.282376
0.34458
0.398326
0.40976
0.421518
0.441941
0.454022
0.460548
0.459483
0.478214
0.482641
0.491373
0.502812
0.495096
0.493099
0.516666
0.526847
0.563561
0.636476
0.704204
0.82628
0.829294
0.836634
0.833635
0.850248
0.885122
0.917497
0.933963
0.934859
0.927815
0.932884
0.954584
0.964611
0.960087
0.953709
0.949749
0.954238
0.282999
0.423379
0.539844
0.690909
0.770074
0.83668
0.834267
0.847755
0.881438
0.915041
0.940279
0.943454
0.932682
0.927544
0.944059
0.96342
0.967386
0.965345
0.954733
0.950869
0.135181
0.165752
0.237126
0.328509
0.525117
0.699962
0.764698
0.841921
0.881901
0.904725
0.924747
0.930899
0.930164
0.929815
0.939302
0.953295
0.963258
0.965867
0.963333
0.957841
0.185004
0.215077
0.231088
0.239218
0.259924
0.343004
0.555184
0.740912
0.818224
0.875248
0.914619
0.922254
0.926348
0.933677
0.940588
0.948979
0.959195
0.962201
0.963015
0.961652
0.235741
0.261735
0.266834
0.281272
0.2996
0.298903
0.323455
0.426277
0.623917
0.789026
0.869762
0.907773
0.935028
0.942512
0.941553
0.94761
0.955632
0.956692
0.958154
0.96311
0.315781
0.323436
0.329553
0.32826
0.32963
0.338269
0.345592
0.335828
0.372493
0.492643
0.688932
0.842154
0.922797
0.947778
0.940938
0.946864
0.954631
0.953067
0.954205
0.963342
0.405794
0.411088
0.381705
0.359007
0.364631
0.379679
0.383811
0.379402
0.375471
0.374181
0.444743
0.642373
0.834691
0.945343
0.93709
0.946003
0.948064
0.939853
0.948416
0.963465
0.528362
0.51025
0.463916
0.407316
0.39953
0.414931
0.429572
0.424541
0.415233
0.399603
0.387801
0.435563
0.616041
0.842502
0.91447
0.949222
0.940824
0.934328
0.953401
0.964179
0.682587
0.625461
0.55464
0.471509
0.451433
0.461589
0.471429
0.464308
0.451277
0.433959
0.4053
0.402249
0.437309
0.612029
0.840984
0.938944
0.914822
0.927739
0.960686
0.964073
0.860787
0.776705
0.681464
0.564794
0.512292
0.499204
0.504974
0.500815
0.483835
0.46689
0.442513
0.420564
0.424313
0.45568
0.614561
0.833135
0.877171
0.929448
0.966405
0.95971
1.23959
0.960624
0.84529
0.737838
0.610198
0.553579
0.562241
0.570337
0.551705
0.532992
0.507678
0.476042
0.467975
0.46751
0.480897
0.565165
0.746964
0.886297
0.934934
0.950826
2.05036
1.45274
1.13751
1.03465
0.900243
0.720991
0.679328
0.655203
0.615228
0.580693
0.562565
0.539349
0.532056
0.518883
0.486671
0.487104
0.524052
0.638947
0.786792
0.90854
2.5061
2.17693
1.6883
1.34381
1.14845
0.937242
0.800056
0.751462
0.685961
0.664077
0.662527
0.639775
0.611767
0.588162
0.555599
0.524123
0.527483
0.537994
0.580454
0.747899
2.36772
2.34942
2.24155
1.90673
1.55611
1.29631
1.06535
0.969224
0.879433
0.815179
0.765647
0.706458
0.65316
0.624794
0.607566
0.586079
0.571778
0.56325
0.550452
0.582532
1.68062
2.15125
2.22042
2.18835
2.04652
1.80061
1.48344
1.24482
1.08646
0.950579
0.867532
0.792082
0.712545
0.702227
0.702891
0.683031
0.65316
0.62064
0.574327
0.574346
1.10795
1.43646
1.84771
2.11217
2.11088
2.07633
1.93894
1.68188
1.44314
1.22056
1.08158
0.997958
0.901548
0.845501
0.798794
0.741415
0.695729
0.659079
0.630292
0.607794
1.0045
1.04379
1.20618
1.551
1.85999
2.02022
2.01594
1.96993
1.84021
1.62635
1.38407
1.22312
1.08484
0.972637
0.892255
0.814934
0.764117
0.742308
0.732108
0.695979
1.00009
1.00109
1.0107
1.07825
1.26853
1.56888
1.82732
1.93593
1.92866
1.88752
1.76413
1.57587
1.38419
1.21448
1.09589
1.01358
0.934109
0.880365
0.833687
0.760533
1
1.00001
1.00015
1.00244
1.01893
1.10013
1.28964
1.55755
1.76668
1.85902
1.85252
1.81488
1.71915
1.55421
1.37672
1.22926
1.103
0.996944
0.920682
0.830945
1
1
1
1.00003
1.00033
1.00389
1.02437
1.10869
1.28674
1.52314
1.70451
1.78718
1.78388
1.75674
1.67715
1.53822
1.38348
1.23031
1.12332
0.99911
1
1
1
1
1
1.00005
1.00049
1.00466
1.02708
1.10551
1.2647
1.47447
1.64046
1.72609
1.72336
1.70325
1.64482
1.52911
1.39565
1.19517
1
1
1
1
1
1
1
1.00006
1.0006
1.00475
1.02524
1.09526
1.23398
1.42304
1.5723
1.66888
1.6668
1.65368
1.61676
1.46454
1
1
1
1
1
1
1
1
1.00001
1.00006
1.00057
1.00438
1.02145
1.08103
1.19737
1.37359
1.50591
1.60426
1.6154
1.59212
1
1
1
1
1
1
1
1
1
1
1.00001
1.00006
1.00048
1.00353
1.01765
1.06282
1.16582
1.31438
1.44337
1.54892
1
1
1
1
1
1
1
1
1
1
1
1
1
1.00005
1.0004
1.00252
1.01425
1.05145
1.13607
1.3877
1.6281
2.46224
2.58307
2.08457
1.31024
1.03708
1.00188
1.00005
1
1
1
1
1
1
1
2.34505
2.8167
2.52709
1.54165
1.04847
1.00082
1
1
1
1
1
1
1
1
1
2.93468
2.87189
1.98106
1.15218
1.00519
1.00005
1
1
1
1
1
1
1
1
1
3.25461
2.55592
1.36394
1.01918
1.00018
1
1
1
1
1
1
1
1
1
1
3.31896
1.68381
1.04743
1.00053
1
1
1
1
1
1
1
1
1
1
1
2.06967
1.07313
1.00047
0.999999
1
1
1
1
1
1
1
1
1
1
1
1.10348
1.00058
0.999997
1
1
1
1
1
1
1
1
1
1
1
1
0.998128
0.999864
0.999996
1
1
1
1
1
1
1
1
1
1
1
1
0.999966
1
1
1
1
1
1
1
1
1
1
1
1
1
1
1
1
1
1
1
1
1
1
1
1
1
1
1
1
1
1
1
1
1
1
1
1
1
1
1
1
1
1
1
1
1
1
1
1
1
1
1
1
1
1
1
1
1
1
1
1
1
1
1
1
1
1
1
1
1
1
1
1
1
1
1
1
1
1
1
1
1
1
1
1
1
1
1
1
1
1
1
1
1
1
1
1
1
1
1
1
1
1
1
1
1
1
1
1
1
1
1
1
1
1
1
1
1
1
1
1
1
1
1
1
1
1
1
1
1
1
1
1
1
1
1
1
1
1
1
1
1
1
1
1
1
1
1
1
1
1
1
1
1
1
1
1
1
1
1
1
1
1
1
1
1
1
1
1
1
1
1
1
1
1
1
1
1
1
1
1
1
1
1
1
1
1
1
1
1
1
1
1
1
1
1
1
1
1
1
1
1
1
1
1
1
1
1
1
1
1
1
1
1
1
1
1
1
1
1
1
1
1
1
1
1
1
1
1
1
1
1
1
1
1
1
1
1
1
1
1
1
1
1
1
1
1
1
1
1
1
1
1
1
1
1
1
1
1
1
1
1
1
1
1
1
1
1
1
1
1
1
1
1
1
1
1
1
1
1
1
1
1
1
1
1
1
1
1
1
1
1
1
1
1
1
1
1
1
1
1
1
1
1
1
1
1
1
1
1
1
1
1
1
1
1
1
1
1
1
1
1
1
1
1
1
1
1
1
1
1
1
1
1
1
1
1
1
1
1
1
1
1
1
1
1
1
1
1
1
1
1
1
1
1
1
1
1
1
1
1
1
1
1
1
1
1
1
1
1
1
1
1
1
1
1
1
1
1
1
1
1
1
1
1
1
1
1
1
1
1
1
1
1
1
1
1
1
1
1
1
1
1
1
1
1
1
1
1
1
1
1
1
1
1
1
1
1
1
1
1
1
1
1
1
1
1
1
1
1
1
1
1
1
1
1
1
1
1
1
1
1
1
1
1
1
1
1
1
1
1
1
1
1
1
1
1
1
1
1
1
1
1
1
1
1
1
1
1
1
1
1
1
1
1
1
1
1
1
1
1
1
1
1
1
1
1
1
1
1
1
1
1
1
1
1
1
1
1
1
1
1
1
1
1
1
1
1
1
1
1
1
1
1
1
1
1
1
1
1
1
1
1
1
1
1
1
1
1
1
1
1
1
1
1
1
1
1
1
1
1
1
1
1
1
1
1
1
1
1
1
1
1
1
1
1
1
1
1
1
1
1
1
1
1
1
1
1
1
1
1
1
1
1
1
1
1
1
1
1
1
1
1
1
1
1
1
1
1
1
1
1
1
1
1
1
1
1
1
1
1
1
1
1
1
1
1
1
1
1
1
1
1
1
1
1
1
1
1
1
1
1
1
1
1
1
1
1
1
1
1
1
1
1
1
1
1
1
1
1
1
1
1
1
1
1
1
1
1
1
1
1
1
1
1
1
1
1
1
1
1
1
1
1
1
1
1
1
1
1
1
1
1
1
1
1
1
1
1
1
1
1
1
1
1
1
1
1
1
1
1
1
1
1
1
1
1
1
1
1
1
1
1
1
1
1
1
1
1
1
1
1
1
1
1
1
1
1
1
1
1
1
1
1
1
1
1
1
1
1
1
1
1
1
1
1
1
1
1
1
1
1
1
1
1
1
1
1
1
1
1
1
1
1
1
1
1
1
1
1
1
1
1
1
1
1
1
1
1
1
1
1
1
1
1
1
1
1
1
1
1
1
1
1
1
1
1
1
1
1
1
1
1
1
1
1
1
1
1
1
1
1
1
1
1
1
1
1
1
1
1
1
1
1
1
1
1
1
1
1
1
1
1
1
1
1
1
1
1
1
1
1
1
1
1
1
1
1
1
1
1
1
1
1
1
0.999966
1
1
1
1
1
1
1
1
1
1
1
1
1
1
0.998128
0.999864
0.999996
1
1
1
1
1
1
1
1
1
1
1
1
1.10344
1.00058
0.999997
1
1
1
1
1
1
1
1
1
1
1
1
2.06991
1.07319
1.00047
0.999999
1
1
1
1
1
1
1
1
1
1
1
3.3189
1.68419
1.04748
1.00053
1
1
1
1
1
1
1
1
1
1
1
3.25482
2.55592
1.36391
1.01921
1.00018
1
1
1
1
1
1
1
1
1
1
2.9352
2.87281
1.98121
1.15197
1.00518
1.00005
1
1
1
1
1
1
1
1
1
2.34537
2.81749
2.5273
1.54151
1.0484
1.00081
1
1
1
1
1
1
1
1
1
1.63029
2.46278
2.58336
2.08462
1.31032
1.03714
1.00189
1.00005
1
1
1
1
1
1
1
1.23496
2.05073
2.5068
2.36771
1.67901
1.10743
1.00449
1.00009
1
1
1
1
1
1
1
0.961154
1.44609
2.17737
2.35036
2.15565
1.43733
1.04377
1.00109
1.00001
1
1
1
1
1
1
0.850826
1.14103
1.68772
2.24022
2.21989
1.84876
1.20692
1.01075
1.00015
1
1
1
1
1
1
0.742348
1.04018
1.34963
1.90581
2.18596
2.11167
1.55215
1.07855
1.00245
1.00003
1
1
1
1
1
0.607134
0.891315
1.13987
1.56384
2.0494
2.11044
1.8606
1.26897
1.01894
1.00033
1
1
1
1
1
0.555377
0.733925
0.934727
1.27649
1.79588
2.07578
2.01949
1.56923
1.1002
1.00389
1.00005
1
1
1
1
0.559173
0.687658
0.821617
1.06478
1.47065
1.93501
2.01497
1.82639
1.28971
1.02438
1.00049
1
1
1
1
0.561164
0.649635
0.759073
0.980978
1.25253
1.67826
1.96943
1.93538
1.55719
1.10863
1.00465
1.00006
1
1
1
0.545219
0.607213
0.677413
0.872308
1.09749
1.44894
1.83978
1.92901
1.76689
1.28648
1.02701
1.0006
1.00001
1
1
0.533371
0.577912
0.664177
0.806465
0.942934
1.22562
1.6307
1.8882
1.85954
1.52302
1.10528
1.00473
1.00006
1
1
0.511808
0.564434
0.665778
0.764372
0.857924
1.0772
1.38945
1.765
1.85287
1.70446
1.26451
1.02522
1.00057
1.00001
1
0.477188
0.539915
0.645101
0.716093
0.793602
0.986806
1.21953
1.57784
1.81564
1.7871
1.47414
1.09524
1.00439
1.00006
1
0.462012
0.527752
0.612194
0.657792
0.726819
0.907894
1.0827
1.38749
1.718
1.78355
1.64012
1.23395
1.02145
1.00048
1
0.459363
0.516117
0.582887
0.620685
0.716384
0.856373
0.970086
1.21127
1.55416
1.75632
1.72581
1.42296
1.08108
1.00354
1.00005
0.479254
0.486022
0.548966
0.602292
0.705686
0.804026
0.889743
1.09334
1.3774
1.67668
1.72316
1.57226
1.19734
1.01764
1.0004
0.573746
0.487105
0.516226
0.58195
0.677452
0.742539
0.818288
1.00965
1.22762
1.53848
1.70332
1.66887
1.3735
1.06278
1.00252
0.752848
0.525293
0.519973
0.566304
0.646982
0.690868
0.769035
0.935205
1.10182
1.38465
1.64476
1.66669
1.50567
1.16578
1.01425
0.893795
0.642902
0.535833
0.554865
0.616896
0.6545
0.739253
0.882339
0.997741
1.23023
1.52842
1.65345
1.60406
1.31427
1.05145
0.938319
0.790749
0.581674
0.549947
0.573714
0.628417
0.73053
0.834608
0.921023
1.12148
1.39513
1.61661
1.61528
1.44329
1.13607
0.949782
0.909557
0.750974
0.585835
0.576292
0.603401
0.698252
0.759431
0.831185
0.997572
1.19528
1.4647
1.59219
1.54899
1.38788
0.863103
0.77526
0.681112
0.567115
0.513707
0.501644
0.51051
0.503255
0.486204
0.47425
0.453096
0.421926
0.422541
0.456336
0.617714
0.843834
0.890891
0.938821
0.972056
0.960906
0.681539
0.62507
0.550802
0.464964
0.450291
0.461211
0.47339
0.466288
0.453947
0.439333
0.411259
0.400977
0.435267
0.611459
0.824496
0.941169
0.927931
0.93515
0.962762
0.964968
0.527302
0.510221
0.45824
0.405771
0.401104
0.41421
0.430845
0.42723
0.41937
0.404577
0.388803
0.438061
0.616667
0.836019
0.928916
0.948344
0.938314
0.931292
0.950022
0.964373
0.407576
0.409667
0.376589
0.356774
0.364422
0.381311
0.38523
0.383364
0.382355
0.375277
0.4465
0.646862
0.831509
0.946927
0.945109
0.94579
0.939152
0.930832
0.939725
0.960837
0.316462
0.322398
0.326357
0.325264
0.327281
0.33625
0.343795
0.336506
0.36406
0.484224
0.687318
0.840777
0.929146
0.951678
0.94683
0.94317
0.940894
0.939238
0.945757
0.96019
0.237954
0.259555
0.266268
0.281264
0.302417
0.301064
0.323419
0.424089
0.613052
0.783174
0.861991
0.911556
0.942312
0.948834
0.941532
0.938592
0.947954
0.95734
0.959405
0.963661
0.186003
0.21489
0.225129
0.237567
0.258513
0.340335
0.552693
0.737398
0.820907
0.878604
0.917732
0.927777
0.938883
0.942483
0.935453
0.939116
0.951762
0.963105
0.96583
0.967493
0.135942
0.160108
0.238077
0.328411
0.514145
0.698719
0.76653
0.836936
0.887344
0.907229
0.92738
0.93721
0.941675
0.939724
0.936631
0.943018
0.95878
0.96763
0.969143
0.96844
0.284021
0.408973
0.54482
0.684765
0.773488
0.837148
0.838216
0.846698
0.876607
0.910951
0.936755
0.945316
0.943799
0.938106
0.94173
0.953219
0.967185
0.969548
0.966896
0.964746
0.561032
0.632228
0.706556
0.822432
0.835811
0.853083
0.837789
0.850228
0.882637
0.923548
0.948108
0.951274
0.940902
0.936897
0.952382
0.965413
0.969276
0.965387
0.956836
0.95666
)
;

boundaryField
{
    inlet
    {
        type            fixedValue;
        value           uniform 1;
    }
    outlet
    {
        type            zeroGradient;
    }
    airfoil
    {
        type            zeroGradient;
    }
    top
    {
        type            symmetryPlane;
    }
    bottom
    {
        type            symmetryPlane;
    }
    defaultFaces
    {
        type            empty;
    }
}


// ************************************************************************* //
