/*--------------------------------*- C++ -*----------------------------------*\
  =========                 |
  \\      /  F ield         | OpenFOAM: The Open Source CFD Toolbox
   \\    /   O peration     | Website:  https://openfoam.org
    \\  /    A nd           | Version:  7
     \\/     M anipulation  |
\*---------------------------------------------------------------------------*/
FoamFile
{
    version     2.0;
    format      ascii;
    class       volScalarField;
    location    "6.3";
    object      rho;
}
// * * * * * * * * * * * * * * * * * * * * * * * * * * * * * * * * * * * * * //

dimensions      [1 -3 0 0 0 0 0];

internalField   nonuniform List<scalar> 
3700
(
0.142117
0.246304
0.312372
0.387175
0.43176
0.501599
0.553456
0.590955
0.60188
0.602118
0.627742
0.643505
0.660111
0.650513
0.661667
0.695622
0.700484
0.714544
0.727339
0.712621
0.104539
0.11524
0.140646
0.159386
0.15283
0.160242
0.182333
0.201976
0.184308
0.165386
0.183479
0.210289
0.233862
0.244097
0.253997
0.272253
0.295167
0.317797
0.313677
0.280658
0.120226
0.11921
0.112891
0.0958091
0.079001
0.0702425
0.0698454
0.074918
0.0760747
0.0827138
0.0943207
0.105891
0.120021
0.136762
0.15064
0.159954
0.165181
0.167201
0.167466
0.169482
0.128171
0.117037
0.0996552
0.0811502
0.0762276
0.0799251
0.0832173
0.0942096
0.0918729
0.103207
0.107399
0.117843
0.132177
0.152818
0.175435
0.199075
0.221745
0.236458
0.244571
0.244795
0.130235
0.100788
0.0858577
0.0763402
0.0755247
0.0831341
0.0955142
0.115649
0.132036
0.158279
0.149464
0.154698
0.151629
0.160377
0.182318
0.213379
0.246928
0.279883
0.311645
0.335469
0.125842
0.0910122
0.0772366
0.0686708
0.069584
0.0811136
0.0948482
0.120537
0.155108
0.184951
0.207009
0.227282
0.223712
0.229348
0.229449
0.239396
0.266629
0.317225
0.368034
0.44475
0.12938
0.0866349
0.0729497
0.0663371
0.0676398
0.0781871
0.0907008
0.114724
0.159449
0.199754
0.242288
0.269254
0.301674
0.330033
0.342266
0.354472
0.37095
0.394191
0.439457
0.557075
0.135696
0.0842276
0.070319
0.0675003
0.0697955
0.0847386
0.0975545
0.116512
0.154569
0.199357
0.257071
0.298094
0.358097
0.407062
0.454873
0.500126
0.538792
0.57398
0.610112
0.739822
0.131822
0.0791702
0.069943
0.0735483
0.0844967
0.11714
0.137931
0.166419
0.195929
0.219509
0.262623
0.31879
0.401764
0.474747
0.55066
0.634409
0.713932
0.7947
0.846744
1.01602
0.114047
0.0643786
0.0614178
0.0749207
0.0934248
0.143574
0.191972
0.250825
0.297702
0.348829
0.391276
0.444289
0.508944
0.587679
0.671288
0.781489
0.914836
1.04493
1.17004
1.3422
0.0813251
0.0497396
0.0475301
0.0624264
0.0887039
0.14863
0.218842
0.30257
0.389312
0.501941
0.593165
0.686014
0.776069
0.866717
0.940012
1.03689
1.17986
1.34183
1.62778
1.60557
0.0564276
0.0381656
0.0359403
0.0533171
0.0818857
0.137991
0.216482
0.312106
0.438429
0.620939
0.775324
0.924558
1.07507
1.2061
1.33885
1.48679
1.64577
1.81939
2.14195
2.10681
0.0390339
0.0284301
0.0290547
0.0488302
0.0796881
0.143639
0.236155
0.342348
0.548471
0.788104
1.02092
1.22983
1.44107
1.62348
1.84939
2.08911
2.32457
2.5486
2.90624
2.89134
0.028149
0.0211191
0.0245978
0.0454599
0.118535
0.311972
0.522645
0.746405
1.05181
1.34259
1.60819
1.83518
2.06215
2.28339
2.58029
2.91396
3.24927
3.59446
3.8789
4.17336
0.0210231
0.0163815
0.0234712
0.0726943
0.315526
0.646642
0.942911
1.30168
1.72331
2.13481
2.45848
2.75986
3.05675
3.36648
3.7643
4.15124
4.53373
4.86794
5.07252
5.24892
0.0174928
0.0135346
0.0700701
0.251128
0.640975
1.04532
1.47321
2.01838
2.63327
3.17326
3.58322
3.97805
4.35924
4.76256
5.20257
5.50138
5.68563
5.74698
5.61854
5.44452
0.0108885
0.0326585
0.231205
0.619367
1.21316
1.9445
2.72791
3.51621
4.34659
4.89727
5.24747
5.58054
5.86272
6.06891
6.19067
6.08904
5.79472
5.06753
3.89243
2.6491
0.0383561
0.213144
0.725272
1.64237
2.87199
3.99907
4.95443
5.92403
6.62371
6.70847
6.61014
6.59709
6.53743
6.301
5.59276
4.26263
2.9117
1.86168
1.42561
1.38998
0.435228
1.22452
2.76765
4.41975
5.80987
6.71789
7.51662
8.16678
7.96665
7.33524
6.73597
6.00288
4.73404
3.25599
2.00227
1.44395
1.38532
1.39297
1.39628
1.39922
3.22393
5.05465
6.79941
7.88714
8.56477
8.88633
9.08966
8.68326
6.33233
4.46822
3.30255
2.1783
1.50752
1.38185
1.38982
1.39471
1.39882
1.39997
1.40003
1.40002
9.66178
9.59726
9.54274
9.49881
9.5927
9.39619
8.35634
3.3331
0.882487
1.40001
1.40001
1.40001
1.40001
1.40001
1.40001
1.40001
1.40001
1.40001
1.40001
1.40001
9.64693
9.56309
9.47189
9.36585
9.34616
8.02995
3.67495
1.43477
1.40001
1.40001
1.40001
1.40001
1.40001
1.40001
1.40001
1.40001
1.40001
1.40001
1.40001
1.40001
9.44997
9.50311
9.47809
9.35698
8.98588
4.59715
1.43232
1.3995
1.40001
1.40001
1.40001
1.40001
1.40001
1.40001
1.40001
1.40001
1.40001
1.40001
1.40001
1.40001
9.2868
9.46563
9.4531
9.02201
6.49441
1.94664
1.39315
1.40013
1.4
1.40001
1.40001
1.40001
1.40001
1.40001
1.40001
1.40001
1.40001
1.40001
1.40001
1.40001
9.07727
9.46712
9.44739
8.34081
3.91377
1.36399
1.40049
1.4
1.40001
1.40001
1.40001
1.40001
1.40001
1.40001
1.40001
1.40001
1.40001
1.40001
1.40001
1.40001
8.89811
9.41759
9.46886
7.03507
2.01314
1.40001
1.40001
1.40001
1.40001
1.40001
1.40001
1.40001
1.40001
1.40001
1.40001
1.40001
1.40001
1.40001
1.40001
1.40001
8.8092
9.24184
9.242
4.85366
1.36353
1.40001
1.40001
1.40001
1.40001
1.40001
1.40001
1.40001
1.40001
1.40001
1.40001
1.40001
1.40001
1.40001
1.40001
1.40001
8.98232
9.16195
8.34842
2.87508
1.4
1.40001
1.40001
1.40001
1.40001
1.40001
1.40001
1.40001
1.40001
1.40001
1.40001
1.40001
1.40001
1.40001
1.40001
1.40001
9.6968
9.30442
6.81264
1.6268
1.40001
1.40001
1.40001
1.40001
1.40001
1.40001
1.40001
1.40001
1.40001
1.40001
1.40001
1.40001
1.40001
1.40001
1.40001
1.40001
10.0365
8.83929
4.85703
1.38329
1.40001
1.40001
1.40001
1.40001
1.40001
1.40001
1.40001
1.40001
1.40001
1.40001
1.40001
1.40001
1.40001
1.40001
1.40001
1.40001
10.2691
8.30694
3.25311
1.40001
1.40001
1.40001
1.40001
1.40001
1.40001
1.40001
1.40001
1.40001
1.40001
1.40001
1.40001
1.40001
1.40001
1.40001
1.40001
1.40001
10.3682
7.53351
2.2388
1.40001
1.40001
1.40001
1.40001
1.40001
1.40001
1.40001
1.40001
1.40001
1.40001
1.40001
1.40001
1.40001
1.40001
1.40001
1.40001
1.40001
10.4301
6.57649
1.64796
1.40001
1.40001
1.40001
1.40001
1.40001
1.40001
1.40001
1.40001
1.40001
1.40001
1.40001
1.40001
1.40001
1.40001
1.40001
1.40001
1.40001
10.2667
5.55506
1.41339
1.40001
1.40001
1.40001
1.40001
1.40001
1.40001
1.40001
1.40001
1.40001
1.40001
1.40001
1.40001
1.40001
1.40001
1.40001
1.40001
1.40001
10.026
4.38982
1.40001
1.40001
1.40001
1.40001
1.40001
1.40001
1.40001
1.40001
1.40001
1.40001
1.40001
1.40001
1.40001
1.40001
1.40001
1.40001
1.40001
1.40001
9.52548
3.52392
1.40001
1.40001
1.40001
1.40001
1.40001
1.40001
1.40001
1.40001
1.40001
1.40001
1.40001
1.40001
1.40001
1.40001
1.40001
1.40001
1.40001
1.40001
9.24909
2.7115
1.40001
1.40001
1.40001
1.40001
1.40001
1.40001
1.40001
1.40001
1.40001
1.40001
1.40001
1.40001
1.40001
1.40001
1.40001
1.40001
1.40001
1.40001
8.82225
1.91916
1.40001
1.40001
1.40001
1.40001
1.40001
1.40001
1.40001
1.40001
1.40001
1.40001
1.40001
1.40001
1.40001
1.40001
1.40001
1.40001
1.40001
1.40001
7.83599
1.40773
1.40001
1.40001
1.40001
1.40001
1.40001
1.40001
1.40001
1.40001
1.40001
1.40001
1.40001
1.40001
1.40001
1.40001
1.40001
1.40001
1.40001
1.40001
6.46587
1.40007
1.40001
1.40001
1.40001
1.40001
1.40001
1.40001
1.40001
1.40001
1.40001
1.40001
1.40001
1.40001
1.40001
1.40001
1.40001
1.40001
1.40001
1.40001
6.47586
1.40007
1.40001
1.40001
1.40001
1.40001
1.40001
1.40001
1.40001
1.40001
1.40001
1.40001
1.40001
1.40001
1.40001
1.40001
1.40001
1.40001
1.40001
1.40001
7.8318
1.40742
1.40001
1.40001
1.40001
1.40001
1.40001
1.40001
1.40001
1.40001
1.40001
1.40001
1.40001
1.40001
1.40001
1.40001
1.40001
1.40001
1.40001
1.40001
8.80458
1.90939
1.40001
1.40001
1.40001
1.40001
1.40001
1.40001
1.40001
1.40001
1.40001
1.40001
1.40001
1.40001
1.40001
1.40001
1.40001
1.40001
1.40001
1.40001
9.2778
2.70578
1.40001
1.40001
1.40001
1.40001
1.40001
1.40001
1.40001
1.40001
1.40001
1.40001
1.40001
1.40001
1.40001
1.40001
1.40001
1.40001
1.40001
1.40001
9.52945
3.54899
1.40001
1.40001
1.40001
1.40001
1.40001
1.40001
1.40001
1.40001
1.40001
1.40001
1.40001
1.40001
1.40001
1.40001
1.40001
1.40001
1.40001
1.40001
9.99177
4.39721
1.40001
1.40001
1.40001
1.40001
1.40001
1.40001
1.40001
1.40001
1.40001
1.40001
1.40001
1.40001
1.40001
1.40001
1.40001
1.40001
1.40001
1.40001
10.2813
5.54678
1.40839
1.40001
1.40001
1.40001
1.40001
1.40001
1.40001
1.40001
1.40001
1.40001
1.40001
1.40001
1.40001
1.40001
1.40001
1.40001
1.40001
1.40001
10.4456
6.56884
1.64498
1.40001
1.40001
1.40001
1.40001
1.40001
1.40001
1.40001
1.40001
1.40001
1.40001
1.40001
1.40001
1.40001
1.40001
1.40001
1.40001
1.40001
10.3746
7.52256
2.23217
1.40001
1.40001
1.40001
1.40001
1.40001
1.40001
1.40001
1.40001
1.40001
1.40001
1.40001
1.40001
1.40001
1.40001
1.40001
1.40001
1.40001
10.2654
8.3224
3.24438
1.40001
1.40001
1.40001
1.40001
1.40001
1.40001
1.40001
1.40001
1.40001
1.40001
1.40001
1.40001
1.40001
1.40001
1.40001
1.40001
1.40001
10.0187
8.8327
4.88679
1.38315
1.40001
1.40001
1.40001
1.40001
1.40001
1.40001
1.40001
1.40001
1.40001
1.40001
1.40001
1.40001
1.40001
1.40001
1.40001
1.40001
9.68277
9.3151
6.83385
1.62395
1.40001
1.40001
1.40001
1.40001
1.40001
1.40001
1.40001
1.40001
1.40001
1.40001
1.40001
1.40001
1.40001
1.40001
1.40001
1.40001
8.98727
9.16533
8.36757
2.87945
1.4
1.40001
1.40001
1.40001
1.40001
1.40001
1.40001
1.40001
1.40001
1.40001
1.40001
1.40001
1.40001
1.40001
1.40001
1.40001
8.80789
9.2366
9.20629
4.82189
1.36403
1.40001
1.40001
1.40001
1.40001
1.40001
1.40001
1.40001
1.40001
1.40001
1.40001
1.40001
1.40001
1.40001
1.40001
1.40001
8.88465
9.4032
9.4808
7.05574
1.98905
1.40001
1.40001
1.40001
1.40001
1.40001
1.40001
1.40001
1.40001
1.40001
1.40001
1.40001
1.40001
1.40001
1.40001
1.40001
9.06205
9.47031
9.46552
8.37618
3.93349
1.36353
1.4005
1.4
1.40001
1.40001
1.40001
1.40001
1.40001
1.40001
1.40001
1.40001
1.40001
1.40001
1.40001
1.40001
9.28115
9.47027
9.45035
8.94741
6.50143
1.96558
1.39306
1.40013
1.4
1.40001
1.40001
1.40001
1.40001
1.40001
1.40001
1.40001
1.40001
1.40001
1.40001
1.40001
9.45246
9.50576
9.47633
9.34565
8.98769
4.58932
1.43411
1.39949
1.40001
1.40001
1.40001
1.40001
1.40001
1.40001
1.40001
1.40001
1.40001
1.40001
1.40001
1.40001
9.65404
9.56613
9.47506
9.38915
9.39986
8.03721
3.65366
1.4309
1.40001
1.40001
1.40001
1.40001
1.40001
1.40001
1.40001
1.40001
1.40001
1.40001
1.40001
1.40001
9.67136
9.60124
9.54235
9.50335
9.58656
9.40428
8.36318
3.3275
0.881648
1.40001
1.40001
1.40001
1.40001
1.40001
1.40001
1.40001
1.40001
1.40001
1.40001
1.40001
3.22647
5.05811
6.82001
7.91056
8.53734
8.87547
9.08274
8.68091
6.33344
4.4687
3.30113
2.1757
1.50596
1.38183
1.38984
1.39471
1.39882
1.39997
1.40003
1.40002
0.436993
1.20661
2.72977
4.42237
5.84467
6.7268
7.49576
8.15751
7.96287
7.33585
6.73533
5.99821
4.72652
3.24824
1.99773
1.44307
1.38532
1.39298
1.39629
1.39922
0.0440695
0.227694
0.717507
1.63614
2.84772
3.99575
4.96995
5.93314
6.61683
6.70528
6.59857
6.60384
6.5434
6.30589
5.59613
4.26239
2.90846
1.85935
1.42516
1.38998
0.00949768
0.0475618
0.233787
0.560862
1.19846
1.97068
2.73445
3.52311
4.35098
4.89715
5.24302
5.5788
5.86772
6.08042
6.19739
6.09319
5.795
5.06454
3.88936
2.6479
0.0131525
0.0223385
0.0693198
0.263602
0.620817
1.01435
1.48698
2.04343
2.65265
3.18292
3.58181
3.97389
4.3617
4.7733
5.21404
5.50631
5.68495
5.74579
5.61712
5.44357
0.0247471
0.0215401
0.0253949
0.0980618
0.29908
0.625933
0.940999
1.30324
1.72917
2.13724
2.45554
2.75748
3.05908
3.37346
3.77302
4.15726
4.53502
4.86685
5.07071
5.24785
0.0317324
0.0244928
0.0258053
0.0467749
0.116435
0.315578
0.500211
0.728777
1.037
1.33266
1.59866
1.82843
2.05857
2.2829
2.58098
2.91439
3.24804
3.59275
3.87637
4.17133
0.0425116
0.0300736
0.0294124
0.0488867
0.0868338
0.152462
0.231288
0.338419
0.539699
0.776897
1.01043
1.22184
1.43609
1.62024
1.84799
2.08916
2.32531
2.54819
2.90329
2.88785
0.0621416
0.0393623
0.0372946
0.0539661
0.0880601
0.140701
0.226812
0.315966
0.441725
0.618083
0.773064
0.922025
1.07459
1.20582
1.33981
1.48816
1.64611
1.81793
2.13968
2.10501
0.0906257
0.0499987
0.0487172
0.0668996
0.094506
0.147152
0.230043
0.303268
0.392512
0.502801
0.593925
0.68643
0.776953
0.868327
0.942084
1.03798
1.1784
1.33962
1.62738
1.60917
0.116786
0.0610079
0.0580185
0.0799622
0.101518
0.14132
0.199842
0.25038
0.298904
0.350179
0.391016
0.445112
0.510202
0.589325
0.671823
0.780775
0.91481
1.04628
1.17309
1.34413
0.129724
0.0676268
0.0603861
0.0756346
0.0913953
0.111507
0.138603
0.168667
0.194546
0.220105
0.264623
0.321108
0.402656
0.475508
0.550933
0.635192
0.715675
0.79781
0.848659
1.01352
0.136951
0.0735179
0.0601007
0.0653006
0.0729381
0.0804612
0.0952147
0.121437
0.156892
0.202529
0.258963
0.299189
0.358449
0.407224
0.455081
0.501229
0.539906
0.575328
0.608547
0.733003
0.14193
0.0814865
0.0633195
0.0643406
0.0706397
0.0776394
0.0925516
0.122429
0.163159
0.201676
0.2428
0.268487
0.301066
0.329627
0.343712
0.354296
0.369079
0.390311
0.433347
0.550002
0.137793
0.0935217
0.0733055
0.0700432
0.0748899
0.0839662
0.098559
0.125762
0.158663
0.183584
0.204852
0.225139
0.224834
0.230554
0.229623
0.237451
0.26193
0.312319
0.364786
0.443752
0.130251
0.106652
0.0912327
0.0817164
0.0813794
0.0878195
0.0972868
0.115729
0.133972
0.154856
0.147895
0.154776
0.152812
0.159855
0.17917
0.210056
0.244628
0.279205
0.312137
0.337801
0.122491
0.1171
0.104997
0.0907975
0.0819559
0.083169
0.0801195
0.0835423
0.0904308
0.103025
0.107352
0.11722
0.131212
0.151283
0.173928
0.198309
0.222339
0.237825
0.24738
0.246934
0.108909
0.114484
0.117602
0.10796
0.0885252
0.0742321
0.0680325
0.0689238
0.0742062
0.0817591
0.093576
0.1052
0.119468
0.136803
0.152226
0.162276
0.16784
0.168772
0.168478
0.169813
0.100845
0.125949
0.156393
0.189919
0.219519
0.21565
0.197227
0.176361
0.189121
0.199788
0.201221
0.197942
0.217694
0.259119
0.306121
0.325369
0.302407
0.275171
0.277574
0.28212
0.133054
0.265967
0.317284
0.392199
0.478071
0.551987
0.567584
0.583775
0.611866
0.628622
0.637757
0.63647
0.662396
0.668238
0.680149
0.695993
0.685448
0.682989
0.715766
0.729882
0.780855
0.881978
0.976091
1.1455
1.14996
1.1604
1.15661
1.17987
1.22829
1.27325
1.29622
1.29761
1.28801
1.29516
1.32533
1.33933
1.3332
1.32445
1.31902
1.32531
0.393994
0.588839
0.750522
0.96031
1.06992
1.16204
1.1587
1.17743
1.22416
1.27076
1.3058
1.31026
1.29539
1.28831
1.31126
1.33819
1.34379
1.34099
1.32628
1.32093
0.189212
0.231856
0.331385
0.458688
0.732104
0.974905
1.06439
1.17133
1.22675
1.2583
1.28592
1.29443
1.29336
1.29279
1.30592
1.32534
1.33915
1.3427
1.33911
1.33139
0.258821
0.30086
0.323216
0.334591
0.363485
0.479208
0.774364
1.03254
1.13992
1.21896
1.27341
1.28392
1.28953
1.29962
1.30913
1.32072
1.33481
1.33887
1.33988
1.33783
0.329623
0.365931
0.373105
0.393281
0.418877
0.41789
0.45206
0.595222
0.870234
1.09985
1.21201
1.26468
1.30246
1.31283
1.31146
1.31981
1.33086
1.33223
1.33418
1.34093
0.44125
0.451986
0.460581
0.458811
0.460725
0.47276
0.482968
0.469349
0.520421
0.687753
0.96092
1.17389
1.28589
1.32059
1.31108
1.31931
1.33004
1.32783
1.32937
1.342
0.56672
0.574155
0.533286
0.50167
0.509505
0.53047
0.536218
0.53007
0.524625
0.522879
0.62119
0.896262
1.16365
1.31745
1.306
1.31839
1.32124
1.30982
1.32171
1.3426
0.737463
0.712288
0.647793
0.56895
0.558122
0.579585
0.599993
0.592987
0.580042
0.558338
0.541954
0.608514
0.859761
1.17472
1.27477
1.32307
1.3114
1.30237
1.32887
1.34386
0.952122
0.872646
0.77407
0.658305
0.630408
0.644592
0.658328
0.64842
0.630292
0.606221
0.566369
0.562169
0.611048
0.854341
1.17282
1.30901
1.27547
1.29341
1.3392
1.34392
1.19994
1.083
0.950527
0.788164
0.715145
0.697021
0.705085
0.69931
0.67569
0.652135
0.618239
0.587742
0.59299
0.636747
0.858002
1.16214
1.22335
1.29599
1.34737
1.33808
1.72635
1.33881
1.17851
1.02906
0.851494
0.772799
0.784903
0.79622
0.770318
0.744301
0.709094
0.665085
0.653918
0.653337
0.672038
0.789455
1.04252
1.23636
1.30407
1.32615
2.85282
2.02297
1.58506
1.44213
1.25523
1.00589
0.948044
0.914562
0.858957
0.810892
0.785677
0.753405
0.743341
0.725072
0.68021
0.680892
0.73243
0.892544
1.09848
1.26792
3.48732
3.02989
2.35106
1.87245
1.60086
1.30708
1.11628
1.04877
0.95765
0.927193
0.9251
0.893512
0.854595
0.821798
0.776479
0.732654
0.73742
0.752173
0.811437
1.04475
3.29871
3.27131
3.12128
2.6558
2.16839
1.80716
1.4859
1.35224
1.22735
1.13795
1.06905
0.986701
0.912532
0.873078
0.849134
0.81926
0.799409
0.787609
0.769852
0.814673
2.34701
3.00045
3.09478
3.04903
2.85167
2.50957
2.06837
1.73644
1.51608
1.32697
1.21138
1.10634
0.995561
0.981284
0.982293
0.9547
0.913134
0.867881
0.803315
0.803504
1.55047
2.00815
2.58025
2.94712
2.94383
2.89484
2.70355
2.34574
2.01346
1.70364
1.51014
1.39369
1.25942
1.1814
1.11639
1.03648
0.972846
0.921782
0.881672
0.850391
1.40629
1.4611
1.68755
2.16803
2.59795
2.82016
2.81305
2.74835
2.56758
2.26972
1.93231
1.70815
1.51551
1.35917
1.24716
1.1394
1.06858
1.03821
1.02404
0.973726
1.40013
1.40153
1.41493
1.50918
1.77457
2.19318
2.55293
2.70356
2.69261
2.63487
2.46287
2.20054
1.93346
1.69696
1.53166
1.41692
1.30613
1.23122
1.16616
1.06416
1.40001
1.40002
1.40022
1.4034
1.42642
1.53971
1.80406
2.17755
2.46875
2.59699
2.58733
2.53466
2.40115
2.17122
1.92383
1.71825
1.5422
1.3943
1.28794
1.16277
1.40001
1.40001
1.40001
1.40004
1.40046
1.40544
1.43402
1.55166
1.80003
2.12967
2.38229
2.49727
2.49219
2.4543
2.3433
2.14959
1.93386
1.72027
1.57107
1.3978
1.40001
1.40001
1.40001
1.40001
1.40001
1.40007
1.4007
1.40651
1.4378
1.54723
1.7693
2.06184
2.29311
2.41234
2.40824
2.38017
2.29867
2.13732
1.95125
1.67162
1.40001
1.40001
1.40001
1.40001
1.40001
1.40001
1.40001
1.40009
1.40085
1.40663
1.43523
1.53294
1.72645
1.99013
2.19816
2.33272
2.32961
2.3113
2.25981
2.04752
1.40001
1.40001
1.40001
1.40001
1.40001
1.40001
1.40001
1.40001
1.40001
1.40009
1.4008
1.40612
1.42994
1.51308
1.67538
1.92116
2.10561
2.2427
2.25807
2.22561
1.40001
1.40001
1.40001
1.40001
1.40001
1.40001
1.40001
1.40001
1.40001
1.40001
1.40001
1.40009
1.40068
1.40493
1.42464
1.48766
1.63136
1.83859
2.01845
2.16552
1.40001
1.40001
1.40001
1.40001
1.40001
1.40001
1.40001
1.40001
1.40001
1.40001
1.40001
1.40001
1.40001
1.40007
1.40057
1.40352
1.41989
1.4718
1.58986
1.94075
2.26578
3.42477
3.59439
2.90632
1.83173
1.45166
1.40263
1.40007
1.40001
1.40001
1.40001
1.40001
1.40001
1.40001
1.40001
3.26121
3.91742
3.51971
2.15364
1.46754
1.40114
1.40001
1.4
1.40001
1.40001
1.40001
1.40001
1.40001
1.40001
1.40001
4.07984
3.99528
2.76319
1.61188
1.40724
1.40008
1.40001
1.40001
1.40001
1.40001
1.40001
1.40001
1.40001
1.40001
1.40001
4.52391
3.55986
1.90634
1.42673
1.40026
1.40001
1.40001
1.40001
1.40001
1.40001
1.40001
1.40001
1.40001
1.40001
1.40001
4.61651
2.35065
1.46604
1.40074
1.40001
1.40001
1.40001
1.40001
1.40001
1.40001
1.40001
1.40001
1.40001
1.40001
1.40001
2.88615
1.50182
1.40065
1.4
1.4
1.4
1.40001
1.40001
1.40001
1.40001
1.40001
1.40001
1.40001
1.40001
1.40001
1.54421
1.40082
1.4
1.4
1.40001
1.40001
1.40001
1.40001
1.40001
1.40001
1.40001
1.40001
1.40001
1.40001
1.40001
1.39739
1.39982
1.4
1.4
1.40001
1.40001
1.40001
1.40001
1.40001
1.40001
1.40001
1.40001
1.40001
1.40001
1.40001
1.39996
1.40001
1.40001
1.40001
1.40001
1.40001
1.40001
1.40001
1.40001
1.40001
1.40001
1.40001
1.40001
1.40001
1.40001
1.40001
1.40001
1.40001
1.40001
1.40001
1.40001
1.40001
1.40001
1.40001
1.40001
1.40001
1.40001
1.40001
1.40001
1.40001
1.40001
1.40001
1.40001
1.40001
1.40001
1.40001
1.40001
1.40001
1.40001
1.40001
1.40001
1.40001
1.40001
1.40001
1.40001
1.40001
1.40001
1.40001
1.40001
1.40001
1.40001
1.40001
1.40001
1.40001
1.40001
1.40001
1.40001
1.40001
1.40001
1.40001
1.40001
1.40001
1.40001
1.40001
1.40001
1.40001
1.40001
1.40001
1.40001
1.40001
1.40001
1.40001
1.40001
1.40001
1.40001
1.40001
1.40001
1.40001
1.40001
1.40001
1.40001
1.40001
1.40001
1.40001
1.40001
1.40001
1.40001
1.40001
1.40001
1.40001
1.40001
1.40001
1.40001
1.40001
1.40001
1.40001
1.40001
1.40001
1.40001
1.40001
1.40001
1.40001
1.40001
1.40001
1.40001
1.40001
1.40001
1.40001
1.40001
1.40001
1.40001
1.40001
1.40001
1.40001
1.40001
1.40001
1.40001
1.40001
1.40001
1.40001
1.40001
1.40001
1.40001
1.40001
1.40001
1.40001
1.40001
1.40001
1.40001
1.40001
1.40001
1.40001
1.40001
1.40001
1.40001
1.40001
1.40001
1.40001
1.40001
1.40001
1.40001
1.40001
1.40001
1.40001
1.40001
1.40001
1.40001
1.40001
1.40001
1.40001
1.40001
1.40001
1.40001
1.40001
1.40001
1.40001
1.40001
1.40001
1.40001
1.40001
1.40001
1.40001
1.40001
1.40001
1.40001
1.40001
1.40001
1.40001
1.40001
1.40001
1.40001
1.40001
1.40001
1.40001
1.40001
1.40001
1.40001
1.40001
1.40001
1.40001
1.40001
1.40001
1.40001
1.40001
1.40001
1.40001
1.40001
1.40001
1.40001
1.40001
1.40001
1.40001
1.40001
1.40001
1.40001
1.40001
1.40001
1.40001
1.40001
1.40001
1.40001
1.40001
1.40001
1.40001
1.40001
1.40001
1.40001
1.40001
1.40001
1.40001
1.40001
1.40001
1.40001
1.40001
1.40001
1.40001
1.40001
1.40001
1.40001
1.40001
1.40001
1.40001
1.40001
1.40001
1.40001
1.40001
1.40001
1.40001
1.40001
1.40001
1.40001
1.40001
1.40001
1.40001
1.40001
1.40001
1.40001
1.40001
1.40001
1.40001
1.40001
1.40001
1.40001
1.40001
1.40001
1.40001
1.40001
1.40001
1.40001
1.40001
1.40001
1.40001
1.40001
1.40001
1.40001
1.40001
1.40001
1.40001
1.40001
1.40001
1.40001
1.40001
1.40001
1.40001
1.40001
1.40001
1.40001
1.40001
1.40001
1.40001
1.40001
1.40001
1.40001
1.40001
1.40001
1.40001
1.40001
1.40001
1.40001
1.40001
1.40001
1.40001
1.40001
1.40001
1.40001
1.40001
1.40001
1.40001
1.40001
1.40001
1.40001
1.40001
1.40001
1.40001
1.40001
1.40001
1.40001
1.40001
1.40001
1.40001
1.40001
1.40001
1.40001
1.40001
1.40001
1.40001
1.40001
1.40001
1.40001
1.40001
1.40001
1.40001
1.40001
1.40001
1.40001
1.40001
1.40001
1.40001
1.40001
1.40001
1.40001
1.40001
1.40001
1.40001
1.40001
1.40001
1.40001
1.40001
1.40001
1.40001
1.40001
1.40001
1.40001
1.40001
1.40001
1.40001
1.40001
1.40001
1.40001
1.40001
1.40001
1.40001
1.40001
1.40001
1.40001
1.40001
1.40001
1.40001
1.40001
1.40001
1.40001
1.40001
1.40001
1.40001
1.40001
1.40001
1.40001
1.40001
1.40001
1.40001
1.40001
1.40001
1.40001
1.40001
1.40001
1.40001
1.40001
1.40001
1.40001
1.40001
1.40001
1.40001
1.40001
1.40001
1.40001
1.40001
1.40001
1.40001
1.40001
1.40001
1.40001
1.40001
1.40001
1.40001
1.40001
1.40001
1.40001
1.40001
1.40001
1.40001
1.40001
1.40001
1.40001
1.40001
1.40001
1.40001
1.40001
1.40001
1.40001
1.40001
1.40001
1.40001
1.40001
1.40001
1.40001
1.40001
1.40001
1.40001
1.40001
1.40001
1.40001
1.40001
1.40001
1.40001
1.40001
1.40001
1.40001
1.40001
1.40001
1.40001
1.40001
1.40001
1.40001
1.40001
1.40001
1.40001
1.40001
1.40001
1.40001
1.40001
1.40001
1.40001
1.40001
1.40001
1.40001
1.40001
1.40001
1.40001
1.40001
1.40001
1.40001
1.40001
1.40001
1.40001
1.40001
1.40001
1.40001
1.40001
1.40001
1.40001
1.40001
1.40001
1.40001
1.40001
1.40001
1.40001
1.40001
1.40001
1.40001
1.40001
1.40001
1.40001
1.40001
1.40001
1.40001
1.40001
1.40001
1.40001
1.40001
1.40001
1.40001
1.40001
1.40001
1.40001
1.40001
1.40001
1.40001
1.40001
1.40001
1.40001
1.40001
1.40001
1.40001
1.40001
1.40001
1.40001
1.40001
1.40001
1.40001
1.40001
1.40001
1.40001
1.40001
1.40001
1.40001
1.40001
1.40001
1.40001
1.40001
1.40001
1.40001
1.40001
1.40001
1.40001
1.40001
1.40001
1.40001
1.40001
1.40001
1.40001
1.40001
1.40001
1.40001
1.40001
1.40001
1.40001
1.40001
1.40001
1.40001
1.40001
1.40001
1.40001
1.40001
1.40001
1.40001
1.40001
1.40001
1.40001
1.40001
1.40001
1.40001
1.40001
1.40001
1.40001
1.40001
1.40001
1.40001
1.40001
1.40001
1.40001
1.40001
1.40001
1.40001
1.40001
1.40001
1.40001
1.40001
1.40001
1.40001
1.40001
1.40001
1.40001
1.40001
1.40001
1.40001
1.40001
1.40001
1.40001
1.40001
1.40001
1.40001
1.40001
1.40001
1.40001
1.40001
1.40001
1.40001
1.40001
1.40001
1.40001
1.40001
1.40001
1.40001
1.40001
1.40001
1.40001
1.40001
1.40001
1.40001
1.40001
1.40001
1.40001
1.40001
1.40001
1.40001
1.40001
1.40001
1.40001
1.40001
1.40001
1.40001
1.40001
1.40001
1.40001
1.40001
1.40001
1.40001
1.40001
1.40001
1.40001
1.40001
1.40001
1.40001
1.40001
1.40001
1.40001
1.40001
1.40001
1.40001
1.40001
1.40001
1.40001
1.40001
1.40001
1.40001
1.40001
1.40001
1.40001
1.40001
1.40001
1.40001
1.40001
1.40001
1.40001
1.40001
1.40001
1.40001
1.40001
1.40001
1.40001
1.40001
1.40001
1.40001
1.40001
1.40001
1.40001
1.40001
1.40001
1.40001
1.40001
1.40001
1.40001
1.40001
1.40001
1.40001
1.40001
1.40001
1.40001
1.40001
1.40001
1.40001
1.40001
1.40001
1.40001
1.40001
1.40001
1.40001
1.40001
1.40001
1.40001
1.40001
1.40001
1.40001
1.40001
1.40001
1.40001
1.40001
1.40001
1.40001
1.40001
1.40001
1.40001
1.40001
1.40001
1.40001
1.40001
1.40001
1.40001
1.40001
1.40001
1.40001
1.40001
1.40001
1.40001
1.40001
1.40001
1.40001
1.40001
1.40001
1.40001
1.40001
1.40001
1.40001
1.40001
1.40001
1.40001
1.40001
1.40001
1.40001
1.40001
1.40001
1.40001
1.40001
1.40001
1.40001
1.40001
1.40001
1.40001
1.40001
1.40001
1.40001
1.40001
1.40001
1.40001
1.40001
1.40001
1.40001
1.40001
1.40001
1.40001
1.40001
1.40001
1.40001
1.40001
1.40001
1.40001
1.40001
1.40001
1.40001
1.40001
1.40001
1.40001
1.40001
1.40001
1.40001
1.40001
1.40001
1.40001
1.40001
1.40001
1.40001
1.40001
1.40001
1.40001
1.40001
1.40001
1.40001
1.40001
1.40001
1.40001
1.40001
1.40001
1.40001
1.40001
1.40001
1.40001
1.40001
1.40001
1.40001
1.40001
1.40001
1.40001
1.40001
1.40001
1.40001
1.40001
1.40001
1.40001
1.40001
1.40001
1.40001
1.40001
1.40001
1.40001
1.40001
1.40001
1.40001
1.40001
1.40001
1.40001
1.40001
1.40001
1.40001
1.40001
1.40001
1.40001
1.40001
1.40001
1.40001
1.40001
1.40001
1.40001
1.40001
1.40001
1.40001
1.40001
1.40001
1.40001
1.40001
1.40001
1.40001
1.40001
1.40001
1.40001
1.40001
1.40001
1.40001
1.40001
1.40001
1.40001
1.40001
1.40001
1.40001
1.40001
1.40001
1.40001
1.40001
1.40001
1.40001
1.40001
1.40001
1.40001
1.40001
1.40001
1.40001
1.40001
1.40001
1.40001
1.40001
1.40001
1.40001
1.40001
1.40001
1.40001
1.40001
1.40001
1.40001
1.40001
1.40001
1.40001
1.40001
1.40001
1.40001
1.40001
1.40001
1.39996
1.40001
1.40001
1.40001
1.40001
1.40001
1.40001
1.40001
1.40001
1.40001
1.40001
1.40001
1.40001
1.40001
1.40001
1.39739
1.39982
1.4
1.4
1.40001
1.40001
1.40001
1.40001
1.40001
1.40001
1.40001
1.40001
1.40001
1.40001
1.40001
1.54415
1.40082
1.4
1.4
1.40001
1.40001
1.40001
1.40001
1.40001
1.40001
1.40001
1.40001
1.40001
1.40001
1.40001
2.88647
1.5019
1.40065
1.4
1.4
1.4
1.40001
1.40001
1.40001
1.40001
1.40001
1.40001
1.40001
1.40001
1.40001
4.61643
2.35118
1.46611
1.40074
1.40001
1.40001
1.40001
1.40001
1.40001
1.40001
1.40001
1.40001
1.40001
1.40001
1.40001
4.5242
3.55986
1.90629
1.42676
1.40026
1.40001
1.40001
1.40001
1.40001
1.40001
1.40001
1.40001
1.40001
1.40001
1.40001
4.08055
3.99656
2.7634
1.61158
1.40722
1.40008
1.40001
1.40001
1.40001
1.40001
1.40001
1.40001
1.40001
1.40001
1.40001
3.26164
3.91853
3.52
2.15345
1.46745
1.40114
1.40001
1.4
1.40001
1.40001
1.40001
1.40001
1.40001
1.40001
1.40001
2.26883
3.42552
3.59481
2.9064
1.83185
1.45174
1.40264
1.40007
1.40001
1.40001
1.40001
1.40001
1.40001
1.40001
1.40001
1.71991
2.85333
3.4883
3.2987
2.34476
1.54974
1.40627
1.40013
1.40001
1.40001
1.40001
1.40001
1.40001
1.40001
1.40001
1.33955
2.01374
3.03049
3.27262
3.00658
2.00936
1.46107
1.40153
1.40002
1.40001
1.40001
1.40001
1.40001
1.40001
1.40001
1.18621
1.58995
2.35026
3.11942
3.09405
2.58171
1.68858
1.41501
1.40022
1.40001
1.40001
1.40001
1.40001
1.40001
1.40001
1.03533
1.44982
1.88054
2.65453
3.04571
2.94643
2.16963
1.50961
1.40342
1.40004
1.40001
1.40001
1.40001
1.40001
1.40001
0.847217
1.24281
1.58892
2.17913
2.85567
2.94322
2.59879
1.77518
1.42644
1.40046
1.40001
1.40001
1.40001
1.40001
1.40001
0.775298
1.02389
1.30359
1.7796
2.50297
2.89407
2.81914
2.19367
1.53982
1.40544
1.40007
1.40001
1.40001
1.40001
1.40001
0.780641
0.959635
1.1463
1.48512
2.05059
2.69808
2.81171
2.55163
1.80415
1.43403
1.4007
1.40001
1.40001
1.40001
1.40001
0.783453
0.906809
1.05936
1.36859
1.74717
2.34072
2.74765
2.7028
2.17705
1.55158
1.4065
1.40009
1.40001
1.40001
1.40001
0.761297
0.847794
0.945733
1.21742
1.53143
2.02154
2.56698
2.69309
2.46904
1.79966
1.4377
1.40084
1.40001
1.40001
1.40001
0.744837
0.807029
0.927339
1.12581
1.31631
1.71067
2.27576
2.63581
2.59773
2.1295
1.54691
1.40661
1.40009
1.40001
1.40001
0.714851
0.788286
0.929637
1.06729
1.198
1.50402
1.93981
2.46409
2.58781
2.38222
1.76903
1.4352
1.4008
1.40001
1.40001
0.666673
0.754181
0.900931
1.00013
1.10847
1.37817
1.70315
2.20328
2.53572
2.49716
2.06138
1.53291
1.40613
1.40009
1.40001
0.6456
0.737331
0.85518
0.918978
1.01547
1.26828
1.51252
1.93807
2.39954
2.49173
2.29265
1.72641
1.42994
1.40068
1.40001
0.641984
0.721209
0.814435
0.867336
1.00101
1.19656
1.35561
1.69246
2.17115
2.45372
2.41195
1.99002
1.51314
1.40494
1.40007
0.669752
0.679311
0.767228
0.841771
0.986181
1.12369
1.24366
1.5281
1.92477
2.34264
2.40795
2.19809
1.67534
1.42462
1.40057
0.801405
0.680913
0.721656
0.813495
0.946913
1.03805
1.14408
1.41144
1.71597
2.14994
2.38027
2.3327
1.92105
1.48761
1.40352
1.05071
0.73418
0.726953
0.791774
0.904522
0.966062
1.07544
1.30767
1.54057
1.93548
2.29859
2.32946
2.10528
1.6313
1.41989
1.24678
0.898061
0.749173
0.775918
0.862659
0.915391
1.03394
1.23397
1.39542
1.72016
2.13637
2.31099
2.24242
1.83843
1.4718
1.30876
1.10399
0.813154
0.769151
0.802463
0.879055
1.02183
1.16744
1.28842
1.5685
1.95052
2.25961
2.25791
2.01834
1.58986
1.32469
1.26933
1.04905
0.819283
0.806225
0.844257
0.976894
1.06262
1.1631
1.39565
1.67177
2.04775
2.2257
2.16562
1.941
1.20316
1.08099
0.950033
0.791385
0.717109
0.700417
0.712796
0.702717
0.679001
0.662395
0.632985
0.589629
0.590523
0.637683
0.862408
1.17699
1.24241
1.30902
1.35523
1.33974
0.95066
0.8721
0.768725
0.649181
0.628815
0.644065
0.661063
0.651184
0.634018
0.613709
0.574668
0.560396
0.608205
0.853561
1.14991
1.3121
1.29369
1.30372
1.3421
1.34517
0.735982
0.712247
0.639886
0.566792
0.560311
0.578581
0.60177
0.596737
0.585809
0.565262
0.543351
0.611993
0.860652
1.1657
1.29483
1.32185
1.30792
1.29817
1.3242
1.34413
0.569203
0.572174
0.526157
0.498557
0.509213
0.532746
0.538197
0.535595
0.534229
0.524409
0.623636
0.902509
1.15927
1.31964
1.31711
1.31808
1.30887
1.2973
1.30965
1.33896
0.442198
0.450539
0.456125