/*--------------------------------*- C++ -*----------------------------------*\
  =========                 |
  \\      /  F ield         | OpenFOAM: The Open Source CFD Toolbox
   \\    /   O peration     | Website:  https://openfoam.org
    \\  /    A nd           | Version:  7
     \\/     M anipulation  |
\*---------------------------------------------------------------------------*/
FoamFile
{
    version     2.0;
    format      ascii;
    class       volScalarField;
    location    "6.3";
    object      T;
}
// * * * * * * * * * * * * * * * * * * * * * * * * * * * * * * * * * * * * * //

dimensions      [0 0 0 1 0 0 0];

internalField   nonuniform List<scalar> 
3700
(
100.429
100.625
100.696
100.755
100.803
100.923
101.046
101.084
101.075
101.051
101.053
101.105
101.124
101.105
101.089
101.102
101.12
101.119
101.109
101.068
100.099
100.137
100.222
100.265
100.266
100.39
100.592
100.63
100.546
100.404
100.436
100.553
100.56
100.495
100.455
100.475
100.533
100.589
100.576
100.467
100.125
100.126
100.111
100.053
99.9754
99.9076
99.8862
99.8958
99.89
99.911
99.9447
99.9774
100.007
100.029
100.043
100.046
100.043
100.033
100.015
100.011
100.151
100.132
100.1
100.029
99.9929
99.9865
99.9698
99.9722
99.9369
99.9435
99.94
99.9657
100.003
100.036
100.061
100.078
100.093
100.095
100.09
100.067
100.175
100.131
100.094
100.044
100.02
100.021
100.037
100.061
100.064
100.074
100.039
100.027
100.01
100.025
100.055
100.082
100.104
100.129
100.141
100.15
100.202
100.135
100.08
100.014
99.9961
100.017
100.04
100.086
100.123
100.136
100.138
100.134
100.111
100.099
100.084
100.084
100.098
100.138
100.168
100.206
100.258
100.133
100.031
99.9595
99.9487
99.9746
100.002
100.058
100.13
100.159
100.18
100.18
100.187
100.187
100.183
100.179
100.174
100.174
100.191
100.248
100.283
100.1
99.9743
99.9323
99.928
99.9592
99.988
100.04
100.1
100.147
100.185
100.198
100.224
100.236
100.247
100.259
100.263
100.27
100.276
100.313
100.255
100.033
99.9365
99.9265
99.9408
99.9996
100.012
100.061
100.099
100.139
100.168
100.194
100.237
100.261
100.284
100.308
100.326
100.34
100.35
100.391
100.164
99.9433
99.8839
99.9294
99.9865
100.077
100.119
100.167
100.192
100.226
100.239
100.26
100.276
100.295
100.315
100.343
100.375
100.4
100.423
100.456
100.026
99.8583
99.8068
99.8745
99.9891
100.114
100.188
100.234
100.278
100.324
100.344
100.364
100.382
100.391
100.396
100.405
100.426
100.453
100.503
100.499
99.8947
99.7683
99.7419
99.8493
99.985
100.129
100.229
100.263
100.317
100.379
100.409
100.431
100.453
100.464
100.478
100.493
100.512
100.532
100.572
100.569
99.7719
99.6692
99.7044
99.8522
100.041
100.242
100.305
100.317
100.376
100.425
100.46
100.484
100.508
100.525
100.55
100.574
100.598
100.622
100.655
100.653
99.6642
99.5773
99.6821
99.9064
100.212
100.399
100.424
100.472
100.52
100.548
100.561
100.572
100.584
100.6
100.626
100.656
100.684
100.711
100.726
100.736
99.5707
99.5325
99.7476
100.084
100.395
100.495
100.528
100.572
100.613
100.638
100.649
100.663
100.68
100.702
100.729
100.751
100.77
100.782
100.779
100.774
99.5053
99.5279
99.9957
100.318
100.513
100.564
100.604
100.653
100.692
100.711
100.724
100.744
100.768
100.795
100.815
100.824
100.822
100.815
100.79
100.746
99.3561
99.7737
100.25
100.491
100.607
100.673
100.724
100.763
100.791
100.803
100.814
100.831
100.849
100.856
100.855
100.844
100.791
100.677
100.517
100.281
99.5189
100.129
100.483
100.656
100.757
100.807
100.842
100.868
100.88
100.882
100.881
100.882
100.881
100.859
100.774
100.623
100.357
100.1
100.005
99.9978
100.115
100.522
100.736
100.833
100.883
100.903
100.922
100.927
100.921
100.909
100.893
100.837
100.725
100.474
100.151
100.011
99.9967
99.9985
99.9992
99.9998
100.694
100.834
100.912
100.944
100.957
100.952
100.954
100.935
100.845
100.761
100.572
100.231
100.029
99.9956
99.9977
99.9989
99.9998
100
100
100
100.997
100.994
100.99
100.984
100.974
100.951
100.891
100.475
99.8347
100
100
100
100
100
100
100
100
100
100
100
100.998
100.995
100.989
100.975
100.949
100.852
100.489
100.017
100
100
100
100
100
100
100
100
100
100
100
100
100.993
100.994
100.99
100.971
100.92
100.618
100.025
99.9996
100
100
100
100
100
100
100
100
100
100
100
100
100.988
100.993
100.989
100.955
100.792
100.227
99.9969
100
100
100
100
100
100
100
100
100
100
100
100
100
100.981
100.993
100.987
100.918
100.586
99.9918
100
100
100
100
100
100
100
100
100
100
100
100
100
100
100.974
100.988
100.984
100.839
100.258
100
100
100
100
100
100
100
100
100
100
100
100
100
100
100
100.971
100.977
100.966
100.694
99.9927
100
100
100
100
100
100
100
100
100
100
100
100
100
100
100
100.979
100.971
100.913
100.472
100
100
100
100
100
100
100
100
100
100
100
100
100
100
100
100
101.005
100.973
100.818
100.123
100
100
100
100
100
100
100
100
100
100
100
100
100
100
100
100
101.017
100.943
100.687
99.9965
100
100
100
100
100
100
100
100
100
100
100
100
100
100
100
100
101.026
100.908
100.512
100
100
100
100
100
100
100
100
100
100
100
100
100
100
100
100
100
101.029
100.859
100.317
100
100
100
100
100
100
100
100
100
100
100
100
100
100
100
100
100
101.032
100.799
100.12
100
100
100
100
100
100
100
100
100
100
100
100
100
100
100
100
100
101.021
100.733
100.005
100
100
100
100
100
100
100
100
100
100
100
100
100
100
100
100
100
101.01
100.654
100
100
100
100
100
100
100
100
100
100
100
100
100
100
100
100
100
100
100.988
100.571
100
100
100
100
100
100
100
100
100
100
100
100
100
100
100
100
100
100
100.963
100.456
100
100
100
100
100
100
100
100
100
100
100
100
100
100
100
100
100
100
100.911
100.239
100
100
100
100
100
100
100
100
100
100
100
100
100
100
100
100
100
100
100.851
100.005
100
100
100
100
100
100
100
100
100
100
100
100
100
100
100
100
100
100
100.811
100
100
100
100
100
100
100
100
100
100
100
100
100
100
100
100
100
100
100
100.812
100
100
100
100
100
100
100
100
100
100
100
100
100
100
100
100
100
100
100
100.851
100.005
100
100
100
100
100
100
100
100
100
100
100
100
100
100
100
100
100
100
100.908
100.234
100
100
100
100
100
100
100
100
100
100
100
100
100
100
100
100
100
100
100.964
100.455
100
100
100
100
100
100
100
100
100
100
100
100
100
100
100
100
100
100
100.989
100.576
100
100
100
100
100
100
100
100
100
100
100
100
100
100
100
100
100
100
101.011
100.655
100
100
100
100
100
100
100
100
100
100
100
100
100
100
100
100
100
100
101.022
100.731
100.003
100
100
100
100
100
100
100
100
100
100
100
100
100
100
100
100
100
101.031
100.797
100.119
100
100
100
100
100
100
100
100
100
100
100
100
100
100
100
100
100
101.029
100.857
100.315
100
100
100
100
100
100
100
100
100
100
100
100
100
100
100
100
100
101.025
100.908
100.511
100
100
100
100
100
100
100
100
100
100
100
100
100
100
100
100
100
101.017
100.943
100.69
99.9965
100
100
100
100
100
100
100
100
100
100
100
100
100
100
100
100
101.005
100.974
100.821
100.123
100
100
100
100
100
100
100
100
100
100
100
100
100
100
100
100
100.981
100.972
100.914
100.474
100
100
100
100
100
100
100
100
100
100
100
100
100
100
100
100
100.97
100.977
100.964
100.691
99.9928
100
100
100
100
100
100
100
100
100
100
100
100
100
100
100
100.973
100.986
100.983
100.839
100.25
100
100
100
100
100
100
100
100
100
100
100
100
100
100
100
100.98
100.992
100.987
100.919
100.587
99.9917
100
100
100
100
100
100
100
100
100
100
100
100
100
100
100.988
100.993
100.989
100.953
100.794
100.234
99.9968
100
100
100
100
100
100
100
100
100
100
100
100
100
100.993
100.994
100.99
100.971
100.922
100.619
100.026
99.9996
100
100
100
100
100
100
100
100
100
100
100
100
100.998
100.995
100.989
100.976
100.951
100.851
100.485
100.015
100
100
100
100
100
100
100
100
100
100
100
100
100.997
100.995
100.991
100.984
100.973
100.951
100.889
100.474
99.8356
100
100
100
100
100
100
100
100
100
100
100
100.695
100.834
100.913
100.945
100.956
100.951
100.953
100.934
100.846
100.761
100.572
100.23
100.029
99.9956
99.9977
99.9989
99.9998
100
100
100
100.121
100.521
100.733
100.833
100.885
100.904
100.92
100.926
100.921
100.91
100.893
100.837
100.723
100.471
100.149
100.011
99.9967
99.9985
99.9992
99.9998
99.5312
100.133
100.476
100.66
100.757
100.808
100.842
100.869
100.88
100.882
100.881
100.882
100.881
100.859
100.773
100.622
100.357
100.1
100.005
99.9978
99.3296
99.7844
100.207
100.455
100.609
100.683
100.727
100.764
100.792
100.804
100.814
100.831
100.849
100.856
100.855
100.844
100.791
100.676
100.517
100.281
99.4748
99.6495
99.9946
100.305
100.494
100.562
100.612
100.659
100.696
100.713
100.725
100.744
100.767
100.795
100.816
100.824
100.822
100.815
100.79
100.746
99.6567
99.5979
99.7502
100.09
100.364
100.489
100.531
100.576
100.617
100.64
100.649
100.663
100.68
100.702
100.73
100.752
100.77
100.782
100.779
100.774
99.7268
99.6272
99.6656
99.879
100.187
100.384
100.419
100.47
100.518
100.547
100.56
100.571
100.584
100.6
100.627
100.656
100.685
100.71
100.726
100.736
99.8138
99.679
99.6738
99.8484
100.044
100.237
100.282
100.303
100.367
100.421
100.458
100.483
100.507
100.525
100.55
100.575
100.599
100.622
100.654
100.652
99.9287
99.7558
99.7196
99.8574
99.9813
100.126
100.225
100.256
100.315
100.377
100.409
100.431
100.453
100.464
100.479
100.494
100.513
100.531
100.571
100.568
100.055
99.8401
99.8003
99.9076
99.9873
100.109
100.193
100.231
100.28
100.325
100.346
100.365
100.383
100.392
100.397
100.406
100.426
100.452
100.502
100.499
100.169
99.915
99.8555
99.9396
99.9894
100.072
100.129
100.171
100.198
100.231
100.241
100.262
100.28
100.298
100.316
100.342
100.374
100.399
100.423
100.457
100.252
99.9691
99.8787
99.9161
99.9484
99.984
100.026
100.076
100.104
100.143
100.172
100.2
100.241
100.263
100.284
100.307
100.325
100.34
100.35
100.391
100.298
100.024
99.8999
99.915
99.9321
99.9483
99.992
100.054
100.102
100.151
100.188
100.201
100.226
100.235
100.246
100.257
100.262
100.268
100.274
100.31
100.303
100.093
99.9478
99.9313
99.9484
99.9627
100.007
100.076
100.129
100.158
100.18
100.178
100.184
100.183
100.18
100.175
100.169
100.17
100.185
100.245
100.264
100.134
100.031
100.001
100.001
100.019
100.048
100.088
100.121
100.127
100.129
100.123
100.104
100.093
100.079
100.08
100.094
100.133
100.166
100.206
100.206
100.141
100.087
100.046
100.028
100.029
100.035
100.052
100.056
100.057
100.023
100.015
100.003
100.02
100.049
100.078
100.101
100.129
100.143
100.153
100.166
100.146
100.102
100.049
100.006
99.9927
99.9537
99.9351
99.9216
99.9259
99.9314
99.9605
99.9978
100.032
100.058
100.076
100.094
100.099
100.096
100.072
100.129
100.141
100.128
100.084
100.013
99.9232
99.8748
99.8706
99.8845
99.9075
99.9415
99.9738
100.006
100.029
100.044
100.05
100.049
100.038
100.021
100.013
100.14
100.216
100.303
100.391
100.522
100.599
100.587
100.543
100.587
100.603
100.541
100.422
100.434
100.512
100.609
100.628
100.583
100.464
100.434
100.447
100.448
100.678
100.724
100.798
100.908
101.027
101.072
101.088
101.12
101.115
101.1
101.07
101.073
101.117
101.143
101.142
101.122
101.076
101.057
101.056
101.042
101.031
101.004
100.987
100.962
100.938
100.906
100.888
100.886
100.884
100.875
100.863
100.849
100.84
100.837
100.831
100.819
100.811
100.806
100.802
100.56
100.661
100.701
100.725
100.766
100.802
100.801
100.801
100.805
100.811
100.811
100.807
100.8
100.796
100.795
100.792
100.786
100.783
100.78
100.779
100.022
100.085
100.179
100.267
100.418
100.518
100.582
100.628
100.645
100.661
100.679
100.683
100.686
100.693
100.698
100.7
100.703
100.709
100.714
100.72
100.072
100.083
100.095
100.094
100.113
100.208
100.374
100.459
100.491
100.524
100.554
100.564
100.571
100.58
100.588
100.595
100.604
100.614
100.623
100.634
100.126
100.137
100.124
100.127
100.135
100.138
100.172
100.264
100.374
100.435
100.467
100.49
100.505
100.509
100.512
100.519
100.528
100.536
100.543
100.554
100.192
100.183
100.173
100.164
100.165
100.173
100.179
100.173
100.206
100.283
100.373
100.437
100.469
100.478
100.475
100.478
100.485
100.488
100.491
100.498
100.246
100.239
100.207
100.188
100.192
100.204
100.209
100.207
100.197
100.187
100.234
100.342
100.423
100.458
100.454
100.456
100.458
100.457
100.46
100.466
100.305
100.29
100.261
100.228
100.219
100.228
100.235
100.232
100.222
100.198
100.179
100.21
100.314
100.408
100.431
100.442
100.439
100.437
100.443
100.446
100.368
100.344
100.314
100.275
100.254
100.254
100.254
100.249
100.238
100.218
100.186
100.175
100.194
100.293
100.389
100.421
100.414
100.42
100.431
100.43
100.431
100.405
100.371
100.324
100.289
100.268
100.267
100.262
100.249
100.232
100.207
100.179
100.177
100.19
100.278
100.366
100.384
100.404
100.416
100.412
100.526
100.453
100.416
100.38
100.327
100.287
100.285
100.283
100.269
100.254
100.234
100.207
100.191
100.181
100.182
100.225
100.311
100.36
100.372
100.378
100.62
100.537
100.471
100.443
100.408
100.348
100.318
100.298
100.275
100.257
100.244
100.224
100.207
100.189
100.166
100.155
100.17
100.222
100.276
100.319
100.609
100.588
100.534
100.475
100.436
100.388
100.34
100.313
100.282
100.272
100.264
100.244
100.22
100.199
100.175
100.153
100.144
100.136
100.148
100.221
100.488
100.547
100.542
100.513
100.469
100.425
100.376
100.346
100.315
100.291
100.267
100.238
100.208
100.187
100.172
100.153
100.136
100.12
100.102
100.107
100.25
100.377
100.446
100.481
100.472
100.45
100.409
100.364
100.327
100.29
100.261
100.233
100.201
100.187
100.179
100.162
100.142
100.117
100.093
100.073
100.043
100.145
100.254
100.337
100.387
100.416
100.406
100.379
100.345
100.302
100.27
100.248
100.219
100.195
100.172
100.145
100.121
100.101
100.084
100.062
100.002
100.015
100.066
100.156
100.233
100.289
100.33
100.348
100.34
100.317
100.279
100.247
100.216
100.186
100.161
100.133
100.111
100.099
100.09
100.067
100
100
100.003
100.025
100.078
100.148
100.209
100.25
100.28
100.291
100.281
100.259
100.228
100.196
100.17
100.148
100.125
100.105
100.087
100.056
100
100
100
100.001
100.006
100.03
100.08
100.139
100.187
100.217
100.24
100.244
100.236
100.216
100.187
100.158
100.13
100.102
100.079
100.048
100
100
100
100
100
100.001
100.008
100.033
100.079
100.129
100.169
100.192
100.211
100.21
100.202
100.183
100.156
100.126
100.101
100.069
100
100
100
100
100
100
100
100.001
100.008
100.032
100.073
100.118
100.154
100.174
100.186
100.184
100.178
100.161
100.137
100.097
100
100
100
100
100
100
100
100
100
100.001
100.008
100.029
100.065
100.107
100.14
100.16
100.168
100.167
100.162
100.139
100
100
100
100
100
100
100
100
100
100
100
100.001
100.007
100.025
100.056
100.097
100.127
100.146
100.155
100.152
100
100
100
100
100
100
100
100
100
100
100
100
100
100.001
100.006
100.019
100.049
100.084
100.113
100.137
100
100
100
100
100
100
100
100
100
100
100
100
100
100
100
100.001
100.004
100.016
100.04
100.105
100.599
100.653
100.61
100.416
100.142
100.017
100.001
100
100
100
100
100
100
100
100
100.671
100.663
100.518
100.218
100.022
100
100
100
100
100
100
100
100
100
100
100.704
100.635
100.373
100.074
100.002
100
100
100
100
100
100
100
100
100
100
100.72
100.518
100.167
100.009
100
100
100
100
100
100
100
100
100
100
100
100.651
100.284
100.025
100
100
100
100
100
100
100
100
100
100
100
100
100.395
100.038
100
100
100
100
100
100
100
100
100
100
100
100
100
100.043
100
100
100
100
100
100
100
100
100
100
100
100
100
100
99.9995
100
100
100
100
100
100
100
100
100
100
100
100
100
100
100
100
100
100
100
100
100
100
100
100
100
100
100
100
100
100
100
100
100
100
100
100
100
100
100
100
100
100
100
100
100
100
100
100
100
100
100
100
100
100
100
100
100
100
100
100
100
100
100
100
100
100
100
100
100
100
100
100
100
100
100
100
100
100
100
100
100
100
100
100
100
100
100
100
100
100
100
100
100
100
100
100
100
100
100
100
100
100
100
100
100
100
100
100
100
100
100
100
100
100
100
100
100
100
100
100
100
100
100
100
100
100
100
100
100
100
100
100
100
100
100
100
100
100
100
100
100
100
100
100
100
100
100
100
100
100
100
100
100
100
100
100
100
100
100
100
100
100
100
100
100
100
100
100
100
100
100
100
100
100
100
100
100
100
100
100
100
100
100
100
100
100
100
100
100
100
100
100
100
100
100
100
100
100
100
100
100
100
100
100
100
100
100
100
100
100
100
100
100
100
100
100
100
100
100
100
100
100
100
100
100
100
100
100
100
100
100
100
100
100
100
100
100
100
100
100
100
100
100
100
100
100
100
100
100
100
100
100
100
100
100
100
100
100
100
100
100
100
100
100
100
100
100
100
100
100
100
100
100
100
100
100
100
100
100
100
100
100
100
100
100
100
100
100
100
100
100
100
100
100
100
100
100
100
100
100
100
100
100
100
100
100
100
100
100
100
100
100
100
100
100
100
100
100
100
100
100
100
100
100
100
100
100
100
100
100
100
100
100
100
100
100
100
100
100
100
100
100
100
100
100
100
100
100
100
100
100
100
100
100
100
100
100
100
100
100
100
100
100
100
100
100
100
100
100
100
100
100
100
100
100
100
100
100
100
100
100
100
100
100
100
100
100
100
100
100
100
100
100
100
100
100
100
100
100
100
100
100
100
100
100
100
100
100
100
100
100
100
100
100
100
100
100
100
100
100
100
100
100
100
100
100
100
100
100
100
100
100
100
100
100
100
100
100
100
100
100
100
100
100
100
100
100
100
100
100
100
100
100
100
100
100
100
100
100
100
100
100
100
100
100
100
100
100
100
100
100
100
100
100
100
100
100
100
100
100
100
100
100
100
100
100
100
100
100
100
100
100
100
100
100
100
100
100
100
100
100
100
100
100
100
100
100
100
100
100
100
100
100
100
100
100
100
100
100
100
100
100
100
100
100
100
100
100
100
100
100
100
100
100
100
100
100
100
100
100
100
100
100
100
100
100
100
100
100
100
100
100
100
100
100
100
100
100
100
100
100
100
100
100
100
100
100
100
100
100
100
100
100
100
100
100
100
100
100
100
100
100
100
100
100
100
100
100
100
100
100
100
100
100
100
100
100
100
100
100
100
100
100
100
100
100
100
100
100
100
100
100
100
100
100
100
100
100
100
100
100
100
100
100
100
100
100
100
100
100
100
100
100
100
100
100
100
100
100
100
100
100
100
100
100
100
100
100
100
100
100
100
100
100
100
100
100
100
100
100
100
100
100
100
100
100
100
100
100
100
100
100
100
100
100
100
100
100
100
100
100
100
100
100
100
100
100
100
100
100
100
100
100
100
100
100
100
100
100
100
100
100
100
100
100
100
100
100
100
100
100
100
100
100
100
100
100
100
100
100
100
100
100
100
100
100
100
100
100
100
100
100
100
100
100
100
100
100
100
100
100
100
100
100
100
100
100
100
100
100
100
100
100
100
100
100
100
100
100
100
100
100
100
100
100
100
100
100
100
100
100
100
100
100
100
100
100
100
100
100
100
100
100
100
100
100
100
100
100
100
100
100
100
100
100
100
100
100
100
100
100
100
100
100
100
100
100
100
100
100
100
100
100
100
100
100
100
100
100
100
100
100
100
100
100
100
100
100
100
100
100
100
100
100
100
100
100
100
100
100
100
100
100
100
100
100
100
100
100
100
100
100
100
100
100
100
100
100
100
100
100
100
100
100
100
100
100
100
100
100
100
100
100
100
99.9995
100
100
100
100
100
100
100
100
100
100
100
100
100
100
100.043
100
100
100
100
100
100
100
100
100
100
100
100
100
100
100.395
100.038
100
100
100
100
100
100
100
100
100
100
100
100
100
100.651
100.285
100.025
100
100
100
100
100
100
100
100
100
100
100
100
100.72
100.518
100.167
100.009
100
100
100
100
100
100
100
100
100
100
100
100.704
100.635
100.373
100.073
100.002
100
100
100
100
100
100
100
100
100
100
100.671
100.663
100.518
100.217
100.022
100
100
100
100
100
100
100
100
100
100
100.599
100.654
100.61
100.416
100.142
100.017
100.001
100
100
100
100
100
100
100
100
100.525
100.62
100.609
100.488
100.25
100.043
100.002
100
100
100
100
100
100
100
100
100.453
100.536
100.588
100.547
100.377
100.145
100.015
100
100
100
100
100
100
100
100
100.417
100.471
100.534
100.541
100.446
100.254
100.066
100.003
100
100
100
100
100
100
100
100.382
100.444
100.476
100.513
100.481
100.337
100.156
100.025
100.001
100
100
100
100
100
100
100.327
100.406
100.435
100.47
100.473
100.388
100.233
100.078
100.006
100
100
100
100
100
100
100.288
100.352
100.386
100.421
100.45
100.415
100.289
100.148
100.031
100.001
100
100
100
100
100
100.282
100.322
100.346
100.376
100.406
100.405
100.33
100.209
100.08
100.008
100
100
100
100
100
100.278
100.296
100.316
100.35
100.365
100.378
100.348
100.25
100.139
100.033
100.001
100
100
100
100
100.264
100.272
100.28
100.314
100.33
100.346
100.34
100.28
100.187
100.078
100.008
100
100
100
100
100.253
100.254
100.271
100.288
100.289
100.304
100.317
100.291
100.217
100.129
100.031
100.001
100
100
100
100.235
100.244
100.264
100.266
100.259
100.27
100.28
100.281
100.24
100.169
100.073
100.008
100
100
100
100.209
100.226
100.246
100.24
100.232
100.244
100.247
100.259
100.244
100.192
100.118
100.029
100.001
100
100
100.189
100.207
100.222
100.21
100.205
100.219
100.215
100.229
100.236
100.21
100.154
100.065
100.007
100
100
100.176
100.188
100.198
100.188
100.193
100.198
100.185
100.196
100.216
100.209
100.174
100.107
100.025
100.001
100
100.18
100.165
100.173
100.171
100.181
100.174
100.16
100.169
100.187
100.202
100.186
100.14
100.056
100.006
100
100.23
100.152
100.147
100.152
100.161
100.146
100.134
100.147
100.158
100.183
100.184
100.16
100.097
100.019
100.001
100.312
100.168
100.139
100.133
100.139
100.12
100.113
100.124
100.129
100.156
100.177
100.168
100.127
100.049
100.004
100.364
100.223
100.133
100.115
100.116
100.1
100.098
100.106
100.102
100.126
100.161
100.167
100.146
100.084
100.016
100.374
100.277
100.147
100.101
100.092
100.083
100.089
100.087
100.079
100.1
100.137
100.162
100.155
100.113
100.04
100.378
100.319
100.221
100.108
100.073
100.06
100.068
100.055
100.048
100.068
100.097
100.139
100.152
100.137
100.105
100.432
100.405
100.371
100.326
100.29
100.269
100.269
100.262
100.248
100.235
100.214
100.181
100.175
100.187
100.278
100.372
100.39
100.408
100.417
100.413
100.368
100.344
100.312
100.273
100.254
100.254
100.255
100.249
100.238
100.222
100.191
100.174
100.193
100.291
100.382
100.423
100.418
100.421
100.43
100.431
100.305
100.29
100.258
100.227
100.221
100.227
100.235
100.232
100.224
100.203
100.18
100.211
100.312
100.406
100.437
100.441
100.438
100.435
100.441
100.446
100.247
100.238
100.203
100.186
100.192
100.205
100.209
100.209
100.2
100.187
100.235
100.344
100.418
100.46
100.459
100.457
100.455
100.453
100.456
100.464
100.192
100.182
100.17
100.162
100.162
100.171
100.177
100.173
100.201
100.279
100.376
100.437
100.471
100.481
100.479
100.479
100.48
100.482
100.486
100.495
100.129
100.134
100.123
100.126
100.139
100.141
100.172
100.262
100.366
100.432
100.467
100.493
100.509
100.514
100.515
100.519
100.528
100.536
100.541
100.55
100.074
100.088
100.092
100.093
100.11
100.204
100.373
100.462
100.491
100.521
100.553
100.567
100.577
100.585
100.589
100.597
100.608
100.617
100.624
100.632
100.025
100.058
100.184
100.271
100.405
100.508
100.581
100.632
100.649
100.658
100.674
100.683
100.691
100.697
100.7
100.704
100.71
100.714
100.718
100.72
100.57
100.624
100.708
100.731
100.76
100.788
100.799
100.802
100.807
100.81
100.81
100.808
100.804
100.799
100.796
100.794
100.792
100.789
100.785
100.782
101.045
101.018
101.003
100.989
100.962
100.939
100.905
100.888
100.887
100.888
100.882
100.87
100.854
100.841
100.837
100.833
100.825
100.816
100.808
100.802
)
;

boundaryField
{
    inlet
    {
        type            fixedValue;
        value           uniform 100;
    }
    outlet
    {
        type            inletOutlet;
        inletValue      uniform 100;
        value           nonuniform List<scalar> 
50
(
100.378
100.319
100.221
100.107
100.073
100.062
100.066
100.056
100.048
100.069
100.097
100.139
100.152
100.137
100.105
100.802
100.779
100.72
100.634
100.554
100.498
100.466
100.446
100.43
100.412
100.413
100.431
100.446
100.464
100.495
100.55
100.632
100.72
100.782
100.802
100.378
100.319
100.221
100.108
100.073
100.06
100.068
100.055
100.048
100.068
100.097
100.139
100.152
100.137
100.105
)
;
    }
    airfoil
    {
        type            zeroGradient;
    }
    top
    {
        type            symmetryPlane;
    }
    bottom
    {
        type            symmetryPlane;
    }
    defaultFaces
    {
        type            empty;
    }
}


// ************************************************************************* //
