/*--------------------------------*- C++ -*----------------------------------*\
  =========                 |
  \\      /  F ield         | OpenFOAM: The Open Source CFD Toolbox
   \\    /   O peration     | Website:  https://openfoam.org
    \\  /    A nd           | Version:  7
     \\/     M anipulation  |
\*---------------------------------------------------------------------------*/
FoamFile
{
    version     2.0;
    format      ascii;
    class       volVectorField;
    location    "6.3";
    object      U;
}
// * * * * * * * * * * * * * * * * * * * * * * * * * * * * * * * * * * * * * //

dimensions      [0 1 -1 0 0 0 0];

internalField   nonuniform List<vector> 
3700
(
(1.51329 -0.611083 0)
(1.30961 -0.718183 0)
(1.32815 -0.473727 0)
(1.40522 -0.43332 0)
(1.51797 -0.40123 0)
(1.54996 -0.274533 0)
(1.55519 -0.117996 0)
(1.56019 -0.0959539 0)
(1.57162 -0.155024 0)
(1.58686 -0.265338 0)
(1.55526 -0.288605 0)
(1.52735 -0.187354 0)
(1.59705 -0.13241 0)
(1.64947 -0.190059 0)
(1.72243 -0.261092 0)
(1.73273 -0.24946 0)
(1.7142 -0.20215 0)
(1.7295 -0.112992 0)
(1.78795 -0.0978221 0)
(1.84578 -0.203819 0)
(1.60391 -1.47754 0)
(1.56932 -1.5824 0)
(1.58918 -1.51852 0)
(1.7098 -1.52576 0)
(1.788 -1.59481 0)
(1.7543 -1.39227 0)
(1.72759 -1.13995 0)
(1.746 -1.12953 0)
(1.8523 -1.30662 0)
(1.91897 -1.56556 0)
(1.86752 -1.61918 0)
(1.82462 -1.38313 0)
(1.9045 -1.26595 0)
(2.02058 -1.3085 0)
(2.11879 -1.3229 0)
(2.16319 -1.24986 0)
(2.1801 -1.12093 0)
(2.22318 -0.961002 0)
(2.25479 -0.899886 0)
(2.38017 -1.06704 0)
(1.46731 -1.46428 0)
(1.57443 -1.67437 0)
(1.63778 -1.85337 0)
(1.69786 -2.05586 0)
(1.80423 -2.19538 0)
(1.8782 -2.25001 0)
(1.936 -2.18492 0)
(1.95285 -2.22793 0)
(2.034 -2.18171 0)
(2.12836 -2.14267 0)
(2.16262 -2.16078 0)
(2.20621 -2.05853 0)
(2.23666 -1.96754 0)
(2.25793 -1.91998 0)
(2.31893 -1.83627 0)
(2.41488 -1.78077 0)
(2.51426 -1.70769 0)
(2.62757 -1.64289 0)
(2.70404 -1.54923 0)
(2.74764 -1.51917 0)
(1.36915 -1.46138 0)
(1.47451 -1.75702 0)
(1.67338 -2.11059 0)
(1.72114 -2.29071 0)
(1.78427 -2.32078 0)
(1.8249 -2.37453 0)
(1.94872 -2.16787 0)
(2.02941 -2.14443 0)
(2.18994 -1.96104 0)
(2.35158 -1.93917 0)
(2.48096 -1.83251 0)
(2.51279 -1.84215 0)
(2.52481 -1.79957 0)
(2.4496 -1.82085 0)
(2.44412 -1.74681 0)
(2.4765 -1.69536 0)
(2.52049 -1.5759 0)
(2.59729 -1.46988 0)
(2.68337 -1.36237 0)
(2.80147 -1.18346 0)
(1.2425 -1.46506 0)
(1.4808 -1.88945 0)
(1.74263 -2.20436 0)
(1.82188 -2.34005 0)
(1.94739 -2.32612 0)
(1.96277 -2.40561 0)
(2.07619 -2.15902 0)
(2.03106 -2.13737 0)
(2.12565 -1.96572 0)
(2.25449 -1.89625 0)
(2.41552 -1.70437 0)
(2.58283 -1.6117 0)
(2.68571 -1.44275 0)
(2.69088 -1.44447 0)
(2.68134 -1.41501 0)
(2.63904 -1.47403 0)
(2.61235 -1.42747 0)
(2.61145 -1.32231 0)
(2.64705 -1.33633 0)
(2.71557 -1.12912 0)
(1.25738 -1.49009 0)
(1.56489 -1.96856 0)
(1.89578 -2.218 0)
(2.05629 -2.27605 0)
(2.21476 -2.19324 0)
(2.18075 -2.28876 0)
(2.26344 -2.08381 0)
(2.20969 -2.06952 0)
(2.1938 -1.95359 0)
(2.24059 -1.86448 0)
(2.33997 -1.69533 0)
(2.51839 -1.58903 0)
(2.59571 -1.44277 0)
(2.74738 -1.32477 0)
(2.79267 -1.10022 0)
(2.79869 -1.02141 0)
(2.7615 -1.02865 0)
(2.75971 -0.958463 0)
(2.69586 -1.0881 0)
(2.68859 -0.986297 0)
(1.32903 -1.58448 0)
(1.64435 -2.04354 0)
(1.99408 -2.24578 0)
(2.09079 -2.22261 0)
(2.24433 -2.06995 0)
(2.28177 -2.13242 0)
(2.3889 -1.97823 0)
(2.44688 -1.81739 0)
(2.40396 -1.84452 0)
(2.38307 -1.78208 0)
(2.41066 -1.64661 0)
(2.49761 -1.54101 0)
(2.54791 -1.36028 0)
(2.66244 -1.27655 0)
(2.70078 -1.09318 0)
(2.78104 -0.90855 0)
(2.82349 -0.752605 0)
(2.83923 -0.569913 0)
(2.77219 -0.609549 0)
(2.72632 -0.627937 0)
(1.45581 -1.73665 0)
(1.70267 -2.12089 0)
(1.95239 -2.25369 0)
(2.03799 -2.17885 0)
(2.19118 -1.96727 0)
(2.32891 -1.95595 0)
(2.50391 -1.89113 0)
(2.57827 -1.65705 0)
(2.55632 -1.64042 0)
(2.63856 -1.46454 0)
(2.58888 -1.5168 0)
(2.62829 -1.35277 0)
(2.60771 -1.23675 0)
(2.63943 -1.14811 0)
(2.6662 -0.992374 0)
(2.70118 -0.863502 0)
(2.76228 -0.748407 0)
(2.7984 -0.53232 0)
(2.79855 -0.385411 0)
(2.74044 -0.296892 0)
(1.53591 -1.80914 0)
(1.70353 -2.16604 0)
(1.78934 -2.26294 0)
(1.8865 -2.09981 0)
(1.98782 -1.80391 0)
(2.10741 -1.8289 0)
(2.29546 -1.76368 0)
(2.5046 -1.4944 0)
(2.63877 -1.45557 0)
(2.70812 -1.14436 0)
(2.74039 -1.13782 0)
(2.76293 -0.925541 0)
(2.73016 -0.915306 0)
(2.73004 -0.818274 0)
(2.7225 -0.730381 0)
(2.70478 -0.631912 0)
(2.7071 -0.573096 0)
(2.74068 -0.494324 0)
(2.71986 -0.297415 0)
(2.68133 -0.118474 0)
(1.58881 -1.78709 0)
(1.56274 -2.04149 0)
(1.64829 -2.1067 0)
(1.75937 -2.06672 0)
(1.88406 -1.71787 0)
(1.93087 -1.77137 0)
(2.10738 -1.6524 0)
(2.27321 -1.5221 0)
(2.42173 -1.39854 0)
(2.54428 -1.139 0)
(2.65584 -0.898083 0)
(2.70332 -0.639735 0)
(2.7192 -0.499201 0)
(2.73741 -0.377381 0)
(2.73594 -0.282528 0)
(2.71626 -0.25464 0)
(2.69035 -0.21641 0)
(2.68576 -0.278685 0)
(2.64996 -0.1784 0)
(2.614 -0.00877484 0)
(1.51905 -1.53388 0)
(1.47897 -1.71142 0)
(1.56275 -1.87115 0)
(1.62844 -1.90975 0)
(1.8812 -1.53271 0)
(1.94102 -1.69611 0)
(2.1575 -1.5645 0)
(2.2708 -1.4659 0)
(2.37211 -1.25111 0)
(2.44087 -1.11824 0)
(2.54097 -0.915718 0)
(2.60891 -0.692836 0)
(2.65029 -0.463338 0)
(2.70986 -0.299934 0)
(2.66863 -0.053481 0)
(2.65407 0.0480845 0)
(2.61902 0.169764 0)
(2.59653 0.0883711 0)
(2.5512 0.120067 0)
(2.58362 0.0487174 0)
(1.40019 -1.25842 0)
(1.49883 -1.3378 0)
(1.63934 -1.54604 0)
(1.64044 -1.80842 0)
(1.91516 -1.48428 0)
(2.03413 -1.50491 0)
(2.3659 -1.31414 0)
(2.48809 -1.24078 0)
(2.55736 -0.897229 0)
(2.55701 -0.833398 0)
(2.58836 -0.624775 0)
(2.60313 -0.459624 0)
(2.60008 -0.294657 0)
(2.62957 -0.191546 0)
(2.58814 0.00386705 0)
(2.5936 0.105824 0)
(2.53145 0.298961 0)
(2.48164 0.368628 0)
(2.42719 0.401377 0)
(2.46209 0.314026 0)
(1.2535 -1.05776 0)
(1.43334 -1.04484 0)
(1.65873 -1.26816 0)
(1.70375 -1.69465 0)
(1.99509 -1.48842 0)
(2.41972 -1.27571 0)
(2.72014 -0.933268 0)
(2.77352 -0.512171 0)
(2.7059 -0.308301 0)
(2.65884 -0.218969 0)
(2.64203 -0.072921 0)
(2.60969 0.057831 0)
(2.57505 0.148786 0)
(2.54487 0.217366 0)
(2.49813 0.282181 0)
(2.47823 0.297084 0)
(2.43268 0.369254 0)
(2.37194 0.484533 0)
(2.30004 0.59675 0)
(2.2974 0.571267 0)
(1.02415 -0.922057 0)
(1.20148 -0.905826 0)
(1.6666 -1.1634 0)
(1.88417 -1.44379 0)
(2.51358 -1.24485 0)
(2.63695 -0.95575 0)
(2.66467 -0.854186 0)
(2.62281 -0.346474 0)
(2.59435 -0.256233 0)
(2.57462 -0.0202874 0)
(2.56997 0.157646 0)
(2.4936 0.366567 0)
(2.44796 0.484145 0)
(2.37988 0.597939 0)
(2.33413 0.63625 0)
(2.29823 0.639483 0)
(2.25998 0.655362 0)
(2.24415 0.661861 0)
(2.17911 0.740707 0)
(2.13467 0.787534 0)
(0.790885 -0.77899 0)
(1.09146 -0.720461 0)
(1.81087 -1.21857 0)
(2.63085 -0.704433 0)
(2.39619 -0.978054 0)
(2.43758 -0.828611 0)
(2.46203 -0.507311 0)
(2.45897 -0.233552 0)
(2.44572 -0.0419635 0)
(2.45303 0.134473 0)
(2.42293 0.329531 0)
(2.34838 0.514852 0)
(2.2965 0.637024 0)
(2.21812 0.7577 0)
(2.16163 0.817816 0)
(2.11411 0.848052 0)
(2.06152 0.905062 0)
(2.05647 0.905674 0)
(2.04028 0.928178 0)
(2.06238 0.950598 0)
(0.599423 -0.611336 0)
(1.27364 -0.494371 0)
(2.19502 -1.13332 0)
(2.32882 -0.763486 0)
(2.32654 -0.630809 0)
(2.44248 -0.326417 0)
(2.39977 0.138876 0)
(2.37606 0.306385 0)
(2.31921 0.454244 0)
(2.30553 0.581289 0)
(2.21393 0.734118 0)
(2.13851 0.837992 0)
(2.08212 0.898014 0)
(2.02711 0.952297 0)
(1.99122 0.959355 0)
(1.95868 0.981729 0)
(1.95468 1.01373 0)
(1.96846 0.997884 0)
(1.99264 0.998044 0)
(2.06951 0.980921 0)
(0.862093 -0.449066 0)
(1.86699 -0.120206 0)
(2.15609 -0.738156 0)
(2.28638 -0.287532 0)
(2.36744 0.083068 0)
(2.32223 0.410408 0)
(2.28518 0.55162 0)
(2.18217 0.727603 0)
(2.12928 0.805153 0)
(2.07943 0.920122 0)
(1.97247 1.0213 0)
(1.91084 1.07341 0)
(1.87766 1.09022 0)
(1.86518 1.0932 0)
(1.87112 1.05605 0)
(1.89948 1.04534 0)
(1.96456 1.01748 0)
(2.16435 0.900098 0)
(2.37814 0.793058 0)
(2.77425 0.446962 0)
(1.16361 -0.128426 0)
(1.89696 -0.0522212 0)
(2.27718 0.222432 0)
(2.23219 0.588243 0)
(2.20547 0.653926 0)
(2.13678 0.773698 0)
(2.03469 0.901332 0)
(1.96468 0.960512 0)
(1.91484 1.02877 0)
(1.85728 1.11858 0)
(1.79292 1.15724 0)
(1.79226 1.15067 0)
(1.80866 1.13116 0)
(1.84567 1.08961 0)
(2.03611 0.954777 0)
(2.25882 0.829659 0)
(2.66625 0.502358 0)
(3.03763 0.090007 0)
(3.05614 -0.0246505 0)
(3.00415 -0.00478131 0)
(0.998337 0.0428746 0)
(1.92111 0.76916 0)
(2.10405 0.833503 0)
(2.01425 0.941174 0)
(1.95512 0.993419 0)
(1.87425 1.0826 0)
(1.78783 1.13725 0)
(1.75553 1.14764 0)
(1.75468 1.16376 0)
(1.7363 1.20552 0)
(1.7241 1.19555 0)
(1.87654 1.06308 0)
(2.10152 0.879346 0)
(2.49549 0.578209 0)
(2.98071 0.140047 0)
(3.07322 -0.0285021 0)
(3.00819 -0.00766661 0)
(3.00294 -0.00381892 0)
(3.00123 -0.00218979 0)
(3.00008 -0.000481231 0)
(1.16423 0.768594 0)
(1.82899 1.15232 0)
(1.84628 1.14947 0)
(1.74153 1.19865 0)
(1.71611 1.20481 0)
(1.65973 1.24661 0)
(1.65092 1.21863 0)
(1.71954 1.16738 0)
(1.74706 1.242 0)
(1.7865 1.15489 0)
(2.27623 0.746167 0)
(2.86056 0.20838 0)
(3.09727 -0.0293646 0)
(3.02096 -0.012721 0)
(3.00477 -0.00561741 0)
(3.0019 -0.00308437 0)
(3.00005 -0.000593857 0)
(2.99998 -2.21036e-05 0)
(2.99999 1.44476e-05 0)
(3 5.94507e-06 0)
(1.58004 1.25525 0)
(1.58612 1.25956 0)
(1.59635 1.26523 0)
(1.60143 1.26902 0)
(1.60905 1.26333 0)
(1.59835 1.26563 0)
(1.87044 1.17168 0)
(2.95383 0.40009 0)
(3.37742 -0.654622 0)
(3 6.41702e-11 0)
(3 -7.67897e-11 0)
(3 7.96486e-11 0)
(3 9.05952e-15 0)
(3 -4.24794e-13 0)
(3 -1.26942e-14 0)
(3 2.2918e-14 0)
(3 -6.48241e-15 0)
(3 2.81455e-15 0)
(3 8.91054e-17 0)
(3 -3.23945e-15 0)
(1.57637 1.23997 0)
(1.59249 1.25244 0)
(1.60592 1.26331 0)
(1.60989 1.27248 0)
(1.64134 1.25905 0)
(1.75483 1.19253 0)
(2.25983 0.7338 0)
(2.99693 0.0129677 0)
(3 6.14685e-08 0)
(3 -2.84054e-11 0)
(3 -3.28626e-15 0)
(3 -4.79612e-16 0)
(3 1.26108e-15 0)
(3 2.34238e-15 0)
(3 3.66863e-15 0)
(3 4.88326e-15 0)
(3 5.51533e-15 0)
(3 3.66871e-15 0)
(3 6.90929e-16 0)
(3 -2.04507e-15 0)
(1.57912 1.24818 0)
(1.60248 1.25473 0)
(1.6156 1.25962 0)
(1.61086 1.2693 0)
(1.75434 1.19298 0)
(2.24166 0.788234 0)
(3.0048 -0.0102567 0)
(2.99997 -0.000251643 0)
(3 6.7513e-07 0)
(3 5.88279e-11 0)
(3 -5.29943e-15 0)
(3 2.53806e-15 0)
(3 1.506e-15 0)
(3 2.26936e-15 0)
(3 4.46169e-15 0)
(3 4.26964e-15 0)
(3 4.53056e-15 0)
(3 2.60651e-15 0)
(3 -6.14342e-16 0)
(3 -1.85745e-15 0)
(1.58104 1.25319 0)
(1.60094 1.25834 0)
(1.62326 1.26606 0)
(1.6083 1.29396 0)
(1.88851 1.0733 0)
(2.76089 0.216668 0)
(3.00409 0.000201259 0)
(2.99993 5.46558e-05 0)
(3 -8.30099e-07 0)
(3 8.60109e-10 0)
(3 -1.21763e-14 0)
(3 2.38438e-15 0)
(3 1.42732e-15 0)
(3 2.12064e-15 0)
(3 4.55649e-15 0)
(3 3.7158e-15 0)
(3 3.83725e-15 0)
(3 1.09356e-15 0)
(3 -9.56865e-16 0)
(3 -1.24219e-15 0)
(1.58243 1.26894 0)
(1.59525 1.27288 0)
(1.62517 1.26847 0)
(1.62041 1.28506 0)
(2.30513 0.677901 0)
(3.02224 -0.0198137 0)
(2.99972 8.78072e-05 0)
(3 -3.97877e-06 0)
(3 7.94884e-08 0)
(3 -8.85653e-10 0)
(3 1.68244e-13 0)
(3 1.9521e-15 0)
(3 1.30157e-15 0)
(3 1.13405e-15 0)
(3 3.10498e-15 0)
(3 3.43294e-15 0)
(3 2.83502e-15 0)
(3 4.01038e-16 0)
(3 -6.47152e-16 0)
(3 -1.05381e-15 0)
(1.58404 1.28591 0)
(1.58863 1.28986 0)
(1.6459 1.25972 0)
(1.83992 1.10958 0)
(2.70508 0.244099 0)
(3 -5.95701e-10 0)
(3 1.36877e-08 0)
(3 -1.22938e-08 0)
(3 5.20504e-10 0)
(3 2.01745e-12 0)
(3 -9.20169e-14 0)
(3 2.06453e-15 0)
(3 1.27626e-15 0)
(3 5.99375e-16 0)
(3 2.84426e-15 0)
(3 2.67466e-15 0)
(3 1.57193e-15 0)
(3 -9.85191e-16 0)
(3 -5.19524e-16 0)
(3 -3.53958e-16 0)
(1.58619 1.29964 0)
(1.55391 1.29964 0)
(1.6778 1.21994 0)
(2.16199 0.816709 0)
(3.0233 -0.0209313 0)
(3 -1.13421e-11 0)
(3 5.79468e-12 0)
(3 7.23985e-12 0)
(3 -3.37889e-12 0)
(3 9.02377e-15 0)
(3 3.15494e-15 0)
(3 1.85774e-15 0)
(3 1.41184e-15 0)
(3 5.42237e-16 0)
(3 1.20343e-15 0)
(3 -6.57764e-17 0)
(3 6.17274e-16 0)
(3 1.00251e-16 0)
(3 -4.06472e-16 0)
(3 -6.80684e-16 0)
(1.5939 1.32892 0)
(1.50259 1.3324 0)
(1.72414 1.19104 0)
(2.38329 0.553294 0)
(3 -5.93273e-08 0)
(3 2.52087e-11 0)
(3 1.94159e-14 0)
(3 -5.05616e-15 0)
(3 1.13601e-14 0)
(3 6.12561e-16 0)
(3 8.80053e-16 0)
(3 2.08641e-15 0)
(3 1.0928e-15 0)
(3 4.97941e-16 0)
(3 3.10344e-16 0)
(3 -3.11787e-16 0)
(3 -3.40282e-16 0)
(3 8.61912e-16 0)
(3 -1.92848e-16 0)
(3 -8.72411e-16 0)
(1.58424 1.29995 0)
(1.47423 1.33665 0)
(2.01212 1.022 0)
(2.89992 0.100384 0)
(3 -4.67422e-09 0)
(3 4.00018e-11 0)
(3 -2.20272e-13 0)
(3 5.21255e-15 0)
(3 1.07442e-15 0)
(3 1.7491e-15 0)
(3 1.67778e-15 0)
(3 1.51018e-15 0)
(3 1.81221e-15 0)
(3 1.86101e-15 0)
(3 2.24933e-15 0)
(3 2.63272e-15 0)
(3 1.3721e-15 0)
(3 1.74913e-15 0)
(3 6.50646e-16 0)
(3 -3.28522e-16 0)
(1.59827 1.29237 0)
(1.46776 1.39426 0)
(2.14115 0.850003 0)
(3.01057 -0.00842632 0)
(3 2.10359e-08 0)
(3 -4.8455e-11 0)
(3 1.51008e-13 0)
(3 3.0439e-16 0)
(3 2.03511e-15 0)
(3 2.60058e-15 0)
(3 2.77518e-15 0)
(3 2.50361e-15 0)
(3 2.07507e-15 0)
(3 2.25036e-15 0)
(3 2.66878e-15 0)
(3 2.96525e-15 0)
(3 3.38115e-15 0)
(3 2.65538e-15 0)
(3 2.01196e-15 0)
(3 5.77286e-16 0)
(1.61786 1.28145 0)
(1.55493 1.3251 0)
(2.40352 0.55535 0)
(3 -3.64292e-12 0)
(3 -1.39221e-11 0)
(3 2.9527e-13 0)
(3 -4.91871e-15 0)
(3 5.78639e-16 0)
(3 1.13025e-15 0)
(3 1.50927e-15 0)
(3 2.3835e-15 0)
(3 1.98247e-15 0)
(3 1.2849e-15 0)
(3 9.02898e-16 0)
(3 1.47236e-15 0)
(3 1.23622e-15 0)
(3 3.96588e-15 0)
(3 4.05879e-15 0)
(3 2.68961e-15 0)
(3 2.64577e-15 0)
(1.63652 1.26663 0)
(1.66124 1.23147 0)
(2.65359 0.28737 0)
(3 2.34344e-12 0)
(3 -2.26747e-13 0)
(3 -7.76334e-15 0)
(3 -2.07276e-15 0)
(3 -6.37775e-16 0)
(3 1.3479e-16 0)
(3 5.03157e-16 0)
(3 6.31232e-16 0)
(3 1.11294e-15 0)
(3 1.06639e-15 0)
(3 9.9484e-16 0)
(3 1.09266e-15 0)
(3 1.36224e-15 0)
(3 1.66294e-15 0)
(3 2.41299e-15 0)
(3 4.11678e-15 0)
(3 2.70697e-15 0)
(1.65312 1.23784 0)
(1.79812 1.10214 0)
(2.86587 0.0962056 0)
(3 -6.42942e-14 0)
(3 -5.98763e-15 0)
(3 -6.39483e-15 0)
(3 -3.46152e-15 0)
(3 -2.11472e-15 0)
(3 -1.24393e-15 0)
(3 -8.03723e-16 0)
(3 -2.67372e-16 0)
(3 4.05482e-16 0)
(3 5.0689e-16 0)
(3 5.04108e-16 0)
(3 7.96217e-16 0)
(3 1.08901e-15 0)
(3 2.07079e-15 0)
(3 2.59878e-15 0)
(3 2.13463e-15 0)
(3 3.24236e-15 0)
(1.67161 1.20322 0)
(1.90157 0.970361 0)
(2.99059 0.00538999 0)
(3 -2.3288e-15 0)
(3 -7.3314e-15 0)
(3 -7.16989e-15 0)
(3 -5.09386e-15 0)
(3 -4.54844e-15 0)
(3 -3.16373e-15 0)
(3 -1.66388e-15 0)
(3 -1.09262e-15 0)
(3 -9.26961e-16 0)
(3 -4.67669e-16 0)
(3 -5.21996e-16 0)
(3 -1.16851e-16 0)
(3 5.8951e-16 0)
(3 1.98587e-15 0)
(3 2.31422e-15 0)
(3 2.73735e-15 0)
(3 2.9994e-15 0)
(1.73561 1.16728 0)
(2.07464 0.818792 0)
(3 -7.81324e-15 0)
(3 -7.72893e-15 0)
(3 -8.01773e-15 0)
(3 -8.32264e-15 0)
(3 -9.38583e-15 0)
(3 -7.39355e-15 0)
(3 -5.31048e-15 0)
(3 -3.16836e-15 0)
(3 -2.36393e-15 0)
(3 -2.52437e-15 0)
(3 -2.38167e-15 0)
(3 -1.84614e-15 0)
(3 -2.17687e-15 0)
(3 -1.86821e-15 0)
(3 -1.06676e-15 0)
(3 -1.98272e-16 0)
(3 -8.22535e-18 0)
(3 5.15175e-16 0)
(1.7437 1.09764 0)
(2.21981 0.657668 0)
(3 -7.51086e-15 0)
(3 -8.3105e-15 0)
(3 -8.48341e-15 0)
(3 -8.6007e-15 0)
(3 -8.49616e-15 0)
(3 -7.968e-15 0)
(3 -6.23417e-15 0)
(3 -6.05483e-15 0)
(3 -5.96318e-15 0)
(3 -4.9056e-15 0)
(3 -4.73131e-15 0)
(3 -4.75473e-15 0)
(3 -3.17803e-15 0)
(3 -2.58761e-15 0)
(3 -2.36911e-15 0)
(3 -1.55927e-15 0)
(3 -1.31879e-15 0)
(3 -1.53315e-15 0)
(1.80486 1.01374 0)
(2.4172 0.460979 0)
(3 -7.31854e-15 0)
(3 -8.20161e-15 0)
(3 -8.80962e-15 0)
(3 -9.73914e-15 0)
(3 -9.10641e-15 0)
(3 -8.37697e-15 0)
(3 -7.75885e-15 0)
(3 -6.9392e-15 0)
(3 -6.586e-15 0)
(3 -4.47253e-15 0)
(3 -3.26147e-15 0)
(3 -2.77672e-15 0)
(3 -3.62124e-15 0)
(3 -3.9412e-15 0)
(3 -3.59677e-15 0)
(3 -3.34907e-15 0)
(3 -2.85725e-15 0)
(3 -2.41186e-15 0)
(1.95085 0.887038 0)
(2.70625 0.215435 0)
(3 -4.93008e-15 0)
(3 -5.11778e-15 0)
(3 -5.49478e-15 0)
(3 -6.48681e-15 0)
(3 -6.68452e-15 0)
(3 -5.70841e-15 0)
(3 -4.36641e-15 0)
(3 -4.06457e-15 0)
(3 -3.50138e-15 0)
(3 -2.85765e-15 0)
(3 -2.51469e-15 0)
(3 -2.07086e-15 0)
(3 -5.40911e-16 0)
(3 1.91592e-16 0)
(3 9.35881e-16 0)
(3 1.35316e-15 0)
(3 1.15338e-15 0)
(3 2.07905e-15 0)
(2.10428 0.642015 0)
(2.99129 0.000274417 0)
(3 -4.42091e-15 0)
(3 -3.90906e-15 0)
(3 -3.6279e-15 0)
(3 -3.74813e-15 0)
(3 -3.85435e-15 0)
(3 -3.86481e-15 0)
(3 -3.81017e-15 0)
(3 -3.77228e-15 0)
(3 -3.57294e-15 0)
(3 -3.50265e-15 0)
(3 -3.61615e-15 0)
(3 -3.63056e-15 0)
(3 -3.31977e-15 0)
(3 -2.49251e-15 0)
(3 -1.52502e-15 0)
(3 -7.75443e-16 0)
(3 -2.20618e-17 0)
(3 2.4087e-16 0)
(1.99532 0.376373 0)
(2.99994 -7.76735e-06 0)
(3 -4.20623e-15 0)
(3 -3.5025e-15 0)
(3 -2.88904e-15 0)
(3 -2.59124e-15 0)
(3 -2.18005e-15 0)
(3 -1.79316e-15 0)
(3 -1.67186e-15 0)
(3 -1.87734e-15 0)
(3 -1.8764e-15 0)
(3 -1.92199e-15 0)
(3 -2.06964e-15 0)
(3 -2.1609e-15 0)
(3 -2.2681e-15 0)
(3 -2.43604e-15 0)
(3 -2.48841e-15 0)
(3 -2.58723e-15 0)
(3 -2.58495e-15 0)
(3 -2.60263e-15 0)
(1.99467 -0.377115 0)
(2.99994 7.79862e-06 0)
(3 -3.09484e-15 0)
(3 -2.69685e-15 0)
(3 -2.44744e-15 0)
(3 -1.95582e-15 0)
(3 -1.63342e-15 0)
(3 -1.45423e-15 0)
(3 -8.56445e-16 0)
(3 -3.98213e-16 0)
(3 -4.08391e-16 0)
(3 -5.77042e-16 0)
(3 -6.05897e-16 0)
(3 -6.81464e-16 0)
(3 -8.47612e-16 0)
(3 -1.43994e-15 0)
(3 -1.90919e-15 0)
(3 -2.41689e-15 0)
(3 -2.81578e-15 0)
(3 -3.01114e-15 0)
(2.10126 -0.639761 0)
(2.99164 -0.000272605 0)
(3 -4.09707e-15 0)
(3 -3.18114e-15 0)
(3 -2.85828e-15 0)
(3 -2.57995e-15 0)
(3 -2.27395e-15 0)
(3 -1.42385e-15 0)
(3 -6.93685e-16 0)
(3 -6.71258e-16 0)
(3 -1.1768e-15 0)
(3 -1.4268e-15 0)
(3 -1.42358e-15 0)
(3 -1.53164e-15 0)
(3 -1.88122e-15 0)
(3 -2.53162e-15 0)
(3 -2.43444e-15 0)
(3 -2.50404e-15 0)
(3 -3.24163e-15 0)
(3 -3.8535e-15 0)
(1.95567 -0.885371 0)
(2.71185 -0.211738 0)
(3 -3.48648e-15 0)
(3 -3.17771e-15 0)
(3 -2.94902e-15 0)
(3 -2.70516e-15 0)
(3 -2.4849e-15 0)
(3 -2.33185e-15 0)
(3 -2.36488e-15 0)
(3 -2.38044e-15 0)
(3 -2.40049e-15 0)
(3 -2.40166e-15 0)
(3 -2.35859e-15 0)
(3 -2.81488e-15 0)
(3 -4.05509e-15 0)
(3 -4.52907e-15 0)
(3 -4.60738e-15 0)
(3 -4.99455e-15 0)
(3 -5.40414e-15 0)
(3 -5.78931e-15 0)
(1.81 -1.01436 0)
(2.41901 -0.460318 0)
(3 -3.22278e-15 0)
(3 -2.89609e-15 0)
(3 -2.27687e-15 0)
(3 -1.90223e-15 0)
(3 -1.69619e-15 0)
(3 -2.48464e-15 0)
(3 -2.95519e-15 0)
(3 -3.37873e-15 0)
(3 -4.06007e-15 0)
(3 -4.89959e-15 0)
(3 -5.34189e-15 0)
(3 -5.68157e-15 0)
(3 -5.42896e-15 0)
(3 -4.88459e-15 0)
(3 -4.40512e-15 0)
(3 -3.77221e-15 0)
(3 -3.77722e-15 0)
(3 -3.43834e-15 0)
(1.73714 -1.1006 0)
(2.21373 -0.66012 0)
(3 -8.20987e-16 0)
(3 -6.7607e-16 0)
(3 3.9311e-16 0)
(3 6.95452e-16 0)
(3 -4.52638e-17 0)
(3 -8.6682e-16 0)
(3 -9.90968e-16 0)
(3 -2.31855e-16 0)
(3 -1.27092e-16 0)
(3 -6.84932e-16 0)
(3 -4.71167e-16 0)
(3 -3.33691e-16 0)
(3 1.98339e-17 0)
(3 6.4751e-16 0)
(3 6.48901e-16 0)
(3 2.21253e-16 0)
(3 -1.21139e-16 0)
(3 -2.66837e-16 0)
(1.73447 -1.1651 0)
(2.0713 -0.821579 0)
(3 7.3144e-16 0)
(3 8.5432e-16 0)
(3 5.98596e-16 0)
(3 3.35544e-16 0)
(3 2.33232e-16 0)
(3 1.38676e-16 0)
(3 1.07735e-15 0)
(3 1.24649e-15 0)
(3 -1.12685e-17 0)
(3 -8.35111e-16 0)
(3 -7.85035e-16 0)
(3 -4.07388e-17 0)
(3 6.8417e-16 0)
(3 8.48895e-16 0)
(3 4.28938e-16 0)
(3 3.57834e-16 0)
(3 6.27036e-16 0)
(3 6.40651e-16 0)
(1.67405 -1.20293 0)
(1.90783 -0.968326 0)
(2.99453 -0.00276222 0)
(3 -5.35251e-14 0)
(3 1.31311e-15 0)
(3 9.27673e-16 0)
(3 6.93168e-16 0)
(3 1.75311e-15 0)
(3 1.65398e-15 0)
(3 2.34097e-16 0)
(3 -8.09219e-16 0)
(3 -3.02156e-16 0)
(3 4.99966e-16 0)
(3 1.80022e-15 0)
(3 1.86102e-15 0)
(3 1.72443e-15 0)
(3 1.76831e-15 0)
(3 1.666e-15 0)
(3 1.60711e-15 0)
(3 2.13163e-15 0)
(1.65303 -1.23872 0)
(1.79436 -1.10235 0)
(2.86673 -0.0945446 0)
(3 5.67187e-13 0)
(3 2.06896e-15 0)
(3 3.0366e-15 0)
(3 2.73122e-15 0)
(3 1.32568e-15 0)
(3 2.1445e-15 0)
(3 1.4751e-15 0)
(3 2.55424e-15 0)
(3 2.33969e-15 0)
(3 2.36736e-15 0)
(3 2.66633e-15 0)
(3 1.77071e-15 0)
(3 2.36528e-15 0)
(3 2.25226e-15 0)
(3 1.86883e-15 0)
(3 9.20482e-16 0)
(3 4.26766e-17 0)
(1.63679 -1.26526 0)
(1.66217 -1.22969 0)
(2.655 -0.285246 0)
(3 -1.66167e-12 0)
(3 1.14932e-13 0)
(3 6.87543e-15 0)
(3 3.48867e-15 0)
(3 3.14143e-15 0)
(3 2.03187e-15 0)
(3 2.46866e-15 0)
(3 2.69874e-15 0)
(3 2.45556e-15 0)
(3 2.7871e-15 0)
(3 3.44508e-15 0)
(3 2.53385e-15 0)
(3 2.37232e-15 0)
(3 1.3551e-15 0)
(3 8.61391e-16 0)
(3 -2.62846e-17 0)
(3 -3.99784e-16 0)
(1.61859 -1.28185 0)
(1.56044 -1.32112 0)
(2.40766 -0.549486 0)
(3 2.07336e-12 0)
(3 9.65634e-12 0)
(3 -2.20171e-13 0)
(3 7.17488e-15 0)
(3 3.16072e-15 0)
(3 3.12322e-15 0)
(3 3.14821e-15 0)
(3 2.989e-15 0)
(3 3.25894e-15 0)
(3 3.42492e-15 0)
(3 3.96227e-15 0)
(3 3.24048e-15 0)
(3 2.60051e-15 0)
(3 9.81098e-16 0)
(3 4.75671e-16 0)
(3 -4.79489e-17 0)
(3 2.4903e-16 0)
(1.59857 -1.29377 0)
(1.46937 -1.3976 0)
(2.12877 -0.859334 0)
(3.01071 0.00860848 0)
(3 -1.62372e-08 0)
(3 4.29791e-11 0)
(3 -1.44663e-13 0)
(3 3.91441e-15 0)
(3 3.27976e-15 0)
(3 3.55951e-15 0)
(3 3.96897e-15 0)
(3 4.68349e-15 0)
(3 4.69376e-15 0)
(3 4.6121e-15 0)
(3 3.39011e-15 0)
(3 2.48099e-15 0)
(3 1.32136e-15 0)
(3 4.11412e-16 0)
(3 2.93532e-16 0)
(3 2.04903e-15 0)
(1.58284 -1.30004 0)
(1.47234 -1.33503 0)
(2.01638 -1.02608 0)
(2.901 -0.103483 0)
(3 3.32907e-09 0)
(3 -2.54668e-11 0)
(3 1.99477e-13 0)
(3 3.47189e-16 0)
(3 3.79138e-15 0)
(3 4.10574e-15 0)
(3 4.58072e-15 0)
(3 4.68228e-15 0)
(3 4.41112e-15 0)
(3 2.86288e-15 0)
(3 2.47322e-15 0)
(3 2.23449e-15 0)
(3 8.58326e-16 0)
(3 7.19827e-16 0)
(3 1.88913e-15 0)
(3 3.0147e-15 0)
(1.59172 -1.3274 0)
(1.50196 -1.33021 0)
(1.72695 -1.19164 0)
(2.38653 -0.553409 0)
(3 3.75985e-08 0)
(3 -3.64226e-11 0)
(3 -1.31268e-13 0)
(3 6.65695e-14 0)
(3 -1.86169e-14 0)
(3 3.65612e-15 0)
(3 4.09337e-15 0)
(3 4.14861e-15 0)
(3 4.22402e-15 0)
(3 2.59967e-15 0)
(3 1.77354e-15 0)
(3 1.32108e-15 0)
(3 -1.67004e-16 0)
(3 1.37131e-15 0)
(3 1.99701e-15 0)
(3 2.8313e-15 0)
(1.587 -1.29968 0)
(1.55365 -1.29614 0)
(1.67437 -1.21899 0)
(2.14388 -0.819534 0)
(3.02348 0.0203377 0)
(3 1.42632e-11 0)
(3 4.0646e-12 0)
(3 -2.03087e-11 0)
(3 3.6317e-12 0)
(3 7.09609e-17 0)
(3 2.26001e-15 0)
(3 3.88417e-15 0)
(3 2.94995e-15 0)
(3 1.61831e-15 0)
(3 1.49514e-15 0)
(3 3.77948e-16 0)
(3 -5.52741e-16 0)
(3 1.09812e-15 0)
(3 1.40877e-15 0)
(3 1.77969e-15 0)
(1.58524 -1.28665 0)
(1.58926 -1.28948 0)
(1.64659 -1.25704 0)
(1.86247 -1.09584 0)
(2.71679 -0.235415 0)
(3 5.95411e-10 0)
(3 -1.36347e-08 0)
(3 1.22418e-08 0)
(3 -5.18455e-10 0)
(3 -1.93744e-12 0)
(3 1.06712e-13 0)
(3 2.93866e-15 0)
(3 2.63347e-15 0)
(3 1.21012e-15 0)
(3 9.42721e-16 0)
(3 1.32666e-15 0)
(3 1.66854e-15 0)
(3 4.31267e-16 0)
(3 -1.8682e-16 0)
(3 9.92613e-16 0)
(1.58294 -1.26986 0)
(1.59651 -1.27329 0)
(1.62735 -1.26806 0)
(1.61957 -1.2817 0)
(2.30425 -0.679283 0)
(3.02253 0.0201328 0)
(2.99971 -8.25212e-05 0)
(3 3.95775e-06 0)
(3 -7.90499e-08 0)
(3 8.80993e-10 0)
(3 -3.67145e-13 0)
(3 4.9228e-15 0)
(3 2.67066e-15 0)
(3 1.97027e-15 0)
(3 3.09604e-16 0)
(3 -6.73151e-16 0)
(3 -1.24414e-15 0)
(3 -2.74223e-16 0)
(3 -1.67279e-16 0)
(3 2.20403e-16 0)
(1.58117 -1.25414 0)
(1.60054 -1.25935 0)
(1.6213 -1.26704 0)
(1.59302 -1.30751 0)
(1.87718 -1.08193 0)
(2.75336 -0.223588 0)
(3.00409 -0.000171329 0)
(2.99993 -5.31957e-05 0)
(3 8.01892e-07 0)
(3 -8.55976e-10 0)
(3 2.60283e-13 0)
(3 1.70823e-15 0)
(3 2.16841e-15 0)
(3 1.2929e-15 0)
(3 4.95209e-16 0)
(3 -1.50919e-15 0)
(3 -2.79197e-15 0)
(3 1.97646e-16 0)
(3 -7.10396e-16 0)
(3 3.30752e-16 0)
(1.57931 -1.2493 0)
(1.6014 -1.25581 0)
(1.61405 -1.2607 0)
(1.60835 -1.26937 0)
(1.76279 -1.19106 0)
(2.23579 -0.797877 0)
(3.00322 0.00877114 0)
(2.99999 0.000251979 0)
(3 -6.40079e-07 0)
(3 -5.89001e-11 0)
(3 7.30961e-15 0)
(3 3.16963e-15 0)
(3 1.36791e-15 0)
(3 9.77406e-16 0)
(3 -7.28289e-16 0)
(3 -1.53911e-15 0)
(3 -3.14777e-15 0)
(3 -1.4138e-15 0)
(3 -1.01062e-15 0)
(3 1.0089e-15 0)
(1.57604 -1.2402 0)
(1.5917 -1.2532 0)
(1.60579 -1.26404 0)
(1.61181 -1.27082 0)
(1.64645 -1.25125 0)
(1.7604 -1.19056 0)
(2.27015 -0.728396 0)
(2.9984 -0.0113781 0)
(3 -6.35968e-08 0)
(3 2.99061e-11 0)
(3 5.98642e-15 0)
(3 5.21149e-15 0)
(3 1.16435e-15 0)
(3 -8.57687e-16 0)
(3 -1.24326e-15 0)
(3 -1.75952e-15 0)
(3 -3.63409e-15 0)
(3 -2.75072e-15 0)
(3 -6.52694e-16 0)
(3 6.87422e-16 0)
(1.57962 -1.25435 0)
(1.58599 -1.25891 0)
(1.59642 -1.26529 0)
(1.60189 -1.26901 0)
(1.61006 -1.26333 0)
(1.60088 -1.26467 0)
(1.8685 -1.16841 0)
(2.95168 -0.394227 0)
(3.38032 0.652599 0)
(3 -6.44486e-11 0)
(3 7.71704e-11 0)
(3 -7.98775e-11 0)
(3 -6.28827e-15 0)
(3 4.23454e-13 0)
(3 1.31322e-14 0)
(3 -1.53731e-14 0)
(3 5.30961e-15 0)
(3 -3.12152e-15 0)
(3 -3.34593e-15 0)
(3 6.61321e-15 0)
(1.16963 -0.760988 0)
(1.82912 -1.149 0)
(1.84015 -1.15137 0)
(1.74753 -1.18993 0)
(1.71643 -1.20503 0)
(1.65953 -1.24784 0)
(1.65077 -1.21919 0)
(1.71885 -1.16691 0)
(1.74585 -1.24115 0)
(1.78393 -1.15555 0)
(2.27649 -0.74746 0)
(2.8618 -0.208229 0)
(3.09681 0.0291029 0)
(3.02066 0.0125808 0)
(3.00478 0.00559429 0)
(3.00191 0.00308643 0)
(3.00005 0.000598268 0)
(2.99998 2.25382e-05 0)
(2.99999 -1.4418e-05 0)
(3 -5.93786e-06 0)
(1.02631 -0.0102026 0)
(1.9196 -0.795472 0)
(2.11592 -0.830714 0)
(1.99557 -0.97621 0)
(1.96429 -0.984362 0)
(1.88045 -1.07414 0)
(1.78491 -1.13899 0)
(1.75309 -1.14801 0)
(1.75216 -1.16414 0)
(1.7337 -1.20627 0)
(1.72375 -1.19617 0)
(1.87916 -1.06309 0)
(2.10484 -0.878402 0)
(2.49893 -0.575161 0)
(2.98223 -0.137623 0)
(3.07301 0.0287568 0)
(3.00815 0.00764456 0)
(3.00293 0.0038128 0)
(3.00123 0.00218687 0)
(3.00008 0.000480202 0)
(1.12437 0.0360397 0)
(1.87018 0.187374 0)
(2.25133 -0.276951 0)
(2.24536 -0.531298 0)
(2.205 -0.673526 0)
(2.13347 -0.7936 0)
(2.0413 -0.896347 0)
(1.96412 -0.959204 0)
(1.91285 -1.02901 0)
(1.85498 -1.11964 0)
(1.79298 -1.15577 0)
(1.79361 -1.15104 0)
(1.81006 -1.13104 0)
(1.84621 -1.08937 0)
(2.03551 -0.955117 0)
(2.25877 -0.829867 0)
(2.66754 -0.501173 0)
(3.03807 -0.0890123 0)
(3.05599 0.0247359 0)
(3.00414 0.00477509 0)
(1.10338 0.467869 0)
(1.84315 0.447641 0)
(2.11404 0.891674 0)
(2.30066 0.0879151 0)
(2.36639 -0.127406 0)
(2.34565 -0.36534 0)
(2.28201 -0.563542 0)
(2.17984 -0.733921 0)
(2.12883 -0.804619 0)
(2.07747 -0.918895 0)
(1.97239 -1.01908 0)
(1.91267 -1.07154 0)
(1.87876 -1.08947 0)
(1.86555 -1.09377 0)
(1.87046 -1.05703 0)
(1.89884 -1.04619 0)
(1.96461 -1.01762 0)
(2.16503 -0.899374 0)
(2.37875 -0.792116 0)
(2.77444 -0.446285 0)
(1.03666 0.820539 0)
(1.41656 1.48046 0)
(2.3809 0.800027 0)
(2.21159 0.863763 0)
(2.3023 0.695589 0)
(2.42562 0.258559 0)
(2.4142 -0.115383 0)
(2.38026 -0.292659 0)
(2.32179 -0.444347 0)
(2.30658 -0.574207 0)
(2.21334 -0.730608 0)
(2.14024 -0.834923 0)
(2.08299 -0.897491 0)
(2.02711 -0.954259 0)
(1.99042 -0.961669 0)
(1.95852 -0.982875 0)
(1.95512 -1.01349 0)
(1.96872 -0.997438 0)
(1.99274 -0.997627 0)
(2.06929 -0.98079 0)
(0.913024 1.10649 0)
(1.4491 1.43824 0)
(2.1219 0.969452 0)
(2.36305 1.22774 0)
(2.43908 0.913188 0)
(2.41867 0.801424 0)
(2.45889 0.52273 0)
(2.46381 0.220389 0)
(2.45168 0.0390625 0)
(2.45486 -0.138555 0)
(2.42378 -0.330919 0)
(2.3509 -0.514105 0)
(2.29838 -0.637341 0)
(2.21968 -0.758557 0)
(2.16187 -0.820095 0)
(2.11543 -0.848177 0)
(2.06229 -0.904592 0)
(2.05589 -0.906143 0)
(2.03992 -0.928305 0)
(2.06213 -0.950595 0)
(1.10679 1.14333 0)
(1.43674 1.36018 0)
(1.79501 1.31799 0)
(2.02366 1.51491 0)
(2.58522 0.945585 0)
(2.55615 1.07584 0)
(2.65402 0.743832 0)
(2.63091 0.327633 0)
(2.60229 0.238471 0)
(2.5786 0.0123017 0)
(2.57423 -0.158773 0)
(2.49792 -0.366245 0)
(2.45173 -0.483875 0)
(2.38117 -0.600339 0)
(2.33424 -0.638967 0)
(2.29809 -0.641443 0)
(2.25854 -0.6585 0)
(2.24411 -0.661705 0)
(2.18005 -0.738282 0)
(2.13494 -0.786038 0)
(1.23071 1.22636 0)
(1.47307 1.38 0)
(1.75382 1.50251 0)
(1.86494 1.49402 0)
(1.95898 1.43471 0)
(2.38594 1.30583 0)
(2.61116 0.924582 0)
(2.72468 0.531135 0)
(2.68796 0.312934 0)
(2.65526 0.222781 0)
(2.64484 0.079635 0)
(2.61171 -0.0559948 0)
(2.57653 -0.147393 0)
(2.54351 -0.221271 0)
(2.49709 -0.283969 0)
(2.47631 -0.298405 0)
(2.43327 -0.365593 0)
(2.37365 -0.478722 0)
(2.30052 -0.595381 0)
(2.29658 -0.572675 0)
(1.3423 1.39797 0)
(1.47872 1.56097 0)
(1.68184 1.66104 0)
(1.77617 1.50296 0)
(1.82736 1.60994 0)
(2.09855 1.4326 0)
(2.33527 1.35722 0)
(2.4564 1.20191 0)
(2.53355 0.918825 0)
(2.54851 0.838326 0)
(2.58463 0.634146 0)
(2.60115 0.463352 0)
(2.59714 0.29623 0)
(2.62594 0.192599 0)
(2.58603 -0.000562156 0)
(2.59316 -0.100802 0)
(2.53345 -0.291479 0)
(2.48252 -0.370702 0)
(2.42649 -0.405124 0)
(2.46071 -0.317961 0)
(1.49115 1.63845 0)
(1.49317 1.84942 0)
(1.59755 1.82885 0)
(1.66643 1.75098 0)
(1.85601 1.7559 0)
(2.05716 1.57239 0)
(2.11723 1.60729 0)
(2.26178 1.41408 0)
(2.35737 1.25074 0)
(2.43302 1.12235 0)
(2.5356 0.915289 0)
(2.60686 0.700203 0)
(2.64622 0.465616 0)
(2.70924 0.305565 0)
(2.6691 0.0561415 0)
(2.65699 -0.0479544 0)
(2.6215 -0.175401 0)
(2.59625 -0.0979872 0)
(2.55054 -0.123456 0)
(2.58392 -0.045173 0)
(1.66319 1.78776 0)
(1.63572 2.0248 0)
(1.63497 2.07965 0)
(1.70948 2.08318 0)
(1.8868 1.9257 0)
(2.0285 1.68137 0)
(2.10991 1.67345 0)
(2.28192 1.48693 0)
(2.42041 1.38598 0)
(2.54705 1.14435 0)
(2.65756 0.89123 0)
(2.7121 0.647603 0)
(2.72638 0.494572 0)
(2.74462 0.374526 0)
(2.74133 0.272382 0)
(2.72107 0.248862 0)
(2.69378 0.208447 0)
(2.68501 0.276219 0)
(2.6509 0.187711 0)
(2.61129 0.0106611 0)
(1.67223 1.78496 0)
(1.80367 2.03351 0)
(1.80212 2.19805 0)
(1.76771 2.1846 0)
(1.97955 1.99163 0)
(2.171 1.77621 0)
(2.31921 1.68773 0)
(2.48821 1.48969 0)
(2.63173 1.43182 0)
(2.71631 1.14698 0)
(2.75645 1.14515 0)
(2.77555 0.923259 0)
(2.74061 0.909582 0)
(2.73698 0.813836 0)
(2.72764 0.728517 0)
(2.70706 0.636345 0)
(2.70504 0.574032 0)
(2.74076 0.504382 0)
(2.7181 0.306086 0)
(2.67958 0.11811 0)
(1.58245 1.72128 0)
(1.90284 1.98898 0)
(1.93117 2.22714 0)
(2.01973 2.29319 0)
(2.15915 2.19951 0)
(2.33236 2.04036 0)
(2.44292 1.82332 0)
(2.48312 1.68884 0)
(2.53174 1.62481 0)
(2.61607 1.47566 0)
(2.57848 1.5272 0)
(2.62332 1.3474 0)
(2.60599 1.23816 0)
(2.63693 1.14673 0)
(2.66543 0.996561 0)
(2.69885 0.867175 0)
(2.75839 0.752478 0)
(2.79865 0.54471 0)
(2.79916 0.385473 0)
(2.73862 0.286932 0)
(1.45744 1.65198 0)
(1.8013 1.94853 0)
(1.98012 2.24735 0)
(2.12629 2.29252 0)
(2.22001 2.2991 0)
(2.32491 2.15992 0)
(2.39681 1.90302 0)
(2.37728 1.83039 0)
(2.35359 1.84822 0)
(2.34735 1.77282 0)
(2.38742 1.64552 0)
(2.4808 1.52895 0)
(2.53941 1.35613 0)