/*--------------------------------*- C++ -*----------------------------------*\
  =========                 |
  \\      /  F ield         | OpenFOAM: The Open Source CFD Toolbox
   \\    /   O peration     | Website:  https://openfoam.org
    \\  /    A nd           | Version:  7
     \\/     M anipulation  |
\*---------------------------------------------------------------------------*/
FoamFile
{
    version     2.0;
    format      ascii;
    class       volScalarField;
    location    "3";
    object      p;
}
// * * * * * * * * * * * * * * * * * * * * * * * * * * * * * * * * * * * * * //

dimensions      [0 2 -2 0 0 0 0];

internalField   nonuniform List<scalar> 
12000
(
-0.354329
-0.336691
-0.320363
-0.307625
-0.29702
-0.28781
-0.279647
-0.272246
-0.265393
-0.258948
-0.252819
-0.246949
-0.241298
-0.235838
-0.23055
-0.225421
-0.22044
-0.215599
-0.210892
-0.206315
-0.201864
-0.197537
-0.193332
-0.189248
-0.185284
-0.181439
-0.177714
-0.174109
-0.170625
-0.167261
-0.164018
-0.160896
-0.157895
-0.155015
-0.152255
-0.149616
-0.147093
-0.144639
-0.142246
-0.140409
-0.309344
-0.311752
-0.305827
-0.298272
-0.290372
-0.282601
-0.27524
-0.268357
-0.26191
-0.255831
-0.250054
-0.244523
-0.239197
-0.234045
-0.229044
-0.224179
-0.219438
-0.214815
-0.210304
-0.205901
-0.201605
-0.197413
-0.193327
-0.189346
-0.185472
-0.181704
-0.178044
-0.174495
-0.171056
-0.16773
-0.164519
-0.161423
-0.158442
-0.155578
-0.15283
-0.150201
-0.147686
-0.145227
-0.142815
-0.141061
-0.296249
-0.300705
-0.299658
-0.295996
-0.290756
-0.284642
-0.278204
-0.271763
-0.265472
-0.25939
-0.253527
-0.247872
-0.242408
-0.237114
-0.231973
-0.226972
-0.2221
-0.21735
-0.212716
-0.208194
-0.203782
-0.199478
-0.195283
-0.191195
-0.187216
-0.183347
-0.179588
-0.175942
-0.17241
-0.168994
-0.165695
-0.162515
-0.159454
-0.156514
-0.153696
-0.151005
-0.148436
-0.145914
-0.143421
-0.14181
-0.285307
-0.289903
-0.290811
-0.289625
-0.286727
-0.282543
-0.277554
-0.272129
-0.266516
-0.260867
-0.255271
-0.249773
-0.244393
-0.239136
-0.234001
-0.228985
-0.224084
-0.219295
-0.214613
-0.210037
-0.205567
-0.2012
-0.196938
-0.192781
-0.188729
-0.184786
-0.180952
-0.177229
-0.173619
-0.170125
-0.166749
-0.163492
-0.160357
-0.157345
-0.15446
-0.151709
-0.149089
-0.146495
-0.143893
-0.142492
-0.276757
-0.28089
-0.282594
-0.282784
-0.28149
-0.27888
-0.27527
-0.270967
-0.266218
-0.261213
-0.256082
-0.250913
-0.245762
-0.240661
-0.23563
-0.230679
-0.225814
-0.221038
-0.216353
-0.21176
-0.20726
-0.202855
-0.198547
-0.194336
-0.190225
-0.186217
-0.182313
-0.178517
-0.17483
-0.171257
-0.167801
-0.164463
-0.161249
-0.158159
-0.155198
-0.152381
-0.149705
-0.147027
-0.14428
-0.143138
-0.270087
-0.2737
-0.275662
-0.276528
-0.276215
-0.274733
-0.272246
-0.268964
-0.265089
-0.260796
-0.256229
-0.251495
-0.246673
-0.241817
-0.236965
-0.232142
-0.227365
-0.222646
-0.217992
-0.213411
-0.208906
-0.204481
-0.20014
-0.195887
-0.191724
-0.187655
-0.183684
-0.179814
-0.17605
-0.172394
-0.168852
-0.165429
-0.162127
-0.158951
-0.155908
-0.153018
-0.15028
-0.147505
-0.144583
-0.143739
-0.264206
-0.267527
-0.269574
-0.270787
-0.271077
-0.270379
-0.268758
-0.266339
-0.263265
-0.259681
-0.255716
-0.251479
-0.247058
-0.242521
-0.237918
-0.233286
-0.228653
-0.22404
-0.219459
-0.214924
-0.210443
-0.206023
-0.201669
-0.197389
-0.193186
-0.189066
-0.185034
-0.181095
-0.177253
-0.173515
-0.169885
-0.166371
-0.162977
-0.15971
-0.156577
-0.153608
-0.150805
-0.147925
-0.144797
-0.144275
-0.258655
-0.261891
-0.264014
-0.26545
-0.266141
-0.265999
-0.265036
-0.26332
-0.260946
-0.258019
-0.254646
-0.250927
-0.246948
-0.242779
-0.238478
-0.23409
-0.229651
-0.225188
-0.220722
-0.216269
-0.211842
-0.207453
-0.203109
-0.19882
-0.194592
-0.190432
-0.186347
-0.182343
-0.178427
-0.174606
-0.170887
-0.167279
-0.163789
-0.160424
-0.157197
-0.154143
-0.151271
-0.148279
-0.144916
-0.144724
-0.253147
-0.256468
-0.258711
-0.260343
-0.261345
-0.261626
-0.261179
-0.260039
-0.258264
-0.255928
-0.253115
-0.249907
-0.246383
-0.24261
-0.238648
-0.234545
-0.230341
-0.226069
-0.221754
-0.217418
-0.213077
-0.208746
-0.204436
-0.200158
-0.195921
-0.191734
-0.187605
-0.183543
-0.179556
-0.175653
-0.171844
-0.168139
-0.164547
-0.16108
-0.15775
-0.154605
-0.15166
-0.148549
-0.144925
-0.145057
-0.247467
-0.251017
-0.253443
-0.255287
-0.256572
-0.257212
-0.257195
-0.25654
-0.255284
-0.253477
-0.251182
-0.248466
-0.245395
-0.242031
-0.23843
-0.234642
-0.230706
-0.22666
-0.222531
-0.218345
-0.214121
-0.209876
-0.205624
-0.201379
-0.197151
-0.192952
-0.188791
-0.184678
-0.180625
-0.176641
-0.17274
-0.168933
-0.165234
-0.161655
-0.158215
-0.154969
-0.151944
-0.148706
-0.144791
-0.145223
-0.241464
-0.245373
-0.248043
-0.250134
-0.251707
-0.252682
-0.253048
-0.252822
-0.252027
-0.250698
-0.248884
-0.246635
-0.244007
-0.241055
-0.237828
-0.234374
-0.230733
-0.226941
-0.22303
-0.219024
-0.214946
-0.210816
-0.206649
-0.20246
-0.198262
-0.194067
-0.189887
-0.185733
-0.181619
-0.177556
-0.17356
-0.169645
-0.165829
-0.162127
-0.158562
-0.155202
-0.152084
-0.148708
-0.144471
-0.145157
-0.235049
-0.239431
-0.242399
-0.244775
-0.246655
-0.247961
-0.24869
-0.248858
-0.248485
-0.247598
-0.246231
-0.244426
-0.242228
-0.239684
-0.236837
-0.233731
-0.230405
-0.226892
-0.223224
-0.219428
-0.215527
-0.21154
-0.207485
-0.203378
-0.199233
-0.195062
-0.190879
-0.186697
-0.182528
-0.178388
-0.174293
-0.170263
-0.166316
-0.162474
-0.158763
-0.155266
-0.152035
-0.148502
-0.143905
-0.14478
-0.228185
-0.23314
-0.236448
-0.23914
-0.241347
-0.24299
-0.244072
-0.244616
-0.24464
-0.244165
-0.24322
-0.241838
-0.240057
-0.237914
-0.235449
-0.2327
-0.229702
-0.226488
-0.223088
-0.219528
-0.215831
-0.212018
-0.208105
-0.204108
-0.200042
-0.19592
-0.191755
-0.187559
-0.183347
-0.179135
-0.17494
-0.170783
-0.166689
-0.16268
-0.158793
-0.155122
-0.151741
-0.148019
-0.143011
-0.143981
-0.220897
-0.226507
-0.230178
-0.233205
-0.235753
-0.237737
-0.239167
-0.240073
-0.240473
-0.240388
-0.239843
-0.238865
-0.237484
-0.235735
-0.233649
-0.231261
-0.228602
-0.225703
-0.222591
-0.219292
-0.215827
-0.212216
-0.208476
-0.204621
-0.200667
-0.196623
-0.192503
-0.188318
-0.184081
-0.179807
-0.175513
-0.171221
-0.166958
-0.162751
-0.158641
-0.154741
-0.151151
-0.14718
-0.141682
-0.142618
-0.213284
-0.21961
-0.22364
-0.227002
-0.229887
-0.232203
-0.23397
-0.235221
-0.235977
-0.236261
-0.236093
-0.235498
-0.234503
-0.233134
-0.231421
-0.229394
-0.22708
-0.224507
-0.2217
-0.218683
-0.215475
-0.212096
-0.208561
-0.204884
-0.201077
-0.19715
-0.193112
-0.188972
-0.18474
-0.180427
-0.176047
-0.171621
-0.167172
-0.16273
-0.158339
-0.15413
-0.150237
-0.145915
-0.139794
-0.140506
-0.205541
-0.212603
-0.216941
-0.220601
-0.223786
-0.226401
-0.228477
-0.230046
-0.231131
-0.231756
-0.231941
-0.231707
-0.231077
-0.230075
-0.228726
-0.227056
-0.225088
-0.222849
-0.22036
-0.217642
-0.214716
-0.211597
-0.208301
-0.204839
-0.201221
-0.197455
-0.193547
-0.189502
-0.185323
-0.181016
-0.176586
-0.172047
-0.167415
-0.162712
-0.157979
-0.153361
-0.149026
-0.144183
-0.13722
-0.137412
-0.198049
-0.205803
-0.210352
-0.214224
-0.217612
-0.220449
-0.222778
-0.224617
-0.225986
-0.226912
-0.227415
-0.227512
-0.227222
-0.226566
-0.225565
-0.224241
-0.222615
-0.22071
-0.218545
-0.216141
-0.213513
-0.210679
-0.207651
-0.20444
-0.201054
-0.1975
-0.193778
-0.189891
-0.185834
-0.181604
-0.177196
-0.172607
-0.167837
-0.162888
-0.157782
-0.152657
-0.147705
-0.142095
-0.133924
-0.133046
-0.191831
-0.199792
-0.204447
-0.208527
-0.211965
-0.214911
-0.217407
-0.219424
-0.220988
-0.222137
-0.222889
-0.223255
-0.223252
-0.222895
-0.222203
-0.221193
-0.219883
-0.218293
-0.216439
-0.21434
-0.212011
-0.209468
-0.206722
-0.203783
-0.20066
-0.197357
-0.193874
-0.190209
-0.186354
-0.182297
-0.178018
-0.173497
-0.168708
-0.163615
-0.158193
-0.152537
-0.146845
-0.140204
-0.130218
-0.127301
-0.188419
-0.194311
-0.198008
-0.202494
-0.205692
-0.208429
-0.21102
-0.213143
-0.214827
-0.21615
-0.217118
-0.217732
-0.218004
-0.217943
-0.217561
-0.216873
-0.215893
-0.214635
-0.213115
-0.211348
-0.209349
-0.207131
-0.204707
-0.202087
-0.199279
-0.196289
-0.19312
-0.189768
-0.186226
-0.182479
-0.1785
-0.174255
-0.16969
-0.164722
-0.159249
-0.153283
-0.14694
-0.138953
-0.125899
-0.118924
-0.191764
-0.19187
-0.192636
-0.194745
-0.197513
-0.198557
-0.201386
-0.203621
-0.205461
-0.207025
-0.208289
-0.20924
-0.209878
-0.210207
-0.210232
-0.209962
-0.209405
-0.208574
-0.20748
-0.206136
-0.204556
-0.202752
-0.200737
-0.198522
-0.196118
-0.193533
-0.190774
-0.187844
-0.184742
-0.18146
-0.177982
-0.174278
-0.170296
-0.165932
-0.161039
-0.15553
-0.14921
-0.139993
-0.123203
-0.109737
-0.234825
-0.22641
-0.222621
-0.22115
-0.220743
-0.220739
-0.221218
-0.221737
-0.222255
-0.222691
-0.222974
-0.223067
-0.222949
-0.222608
-0.222036
-0.221233
-0.220199
-0.218938
-0.217457
-0.215763
-0.213865
-0.211773
-0.209495
-0.207041
-0.204422
-0.201647
-0.198725
-0.195664
-0.192474
-0.18916
-0.185731
-0.182194
-0.178553
-0.174808
-0.170968
-0.167113
-0.163251
-0.158731
-0.152806
-0.149473
-0.233696
-0.228048
-0.224174
-0.221874
-0.220503
-0.219787
-0.219518
-0.219536
-0.219697
-0.219881
-0.220011
-0.220034
-0.21991
-0.219613
-0.219126
-0.218438
-0.217545
-0.216445
-0.215139
-0.213632
-0.21193
-0.210039
-0.207969
-0.205728
-0.203326
-0.200774
-0.198082
-0.195261
-0.192324
-0.189283
-0.186154
-0.182955
-0.179708
-0.176442
-0.173206
-0.170081
-0.167135
-0.164445
-0.162522
-0.161827
-0.231675
-0.228545
-0.225851
-0.22376
-0.222159
-0.221023
-0.220284
-0.219839
-0.219577
-0.219409
-0.219259
-0.21907
-0.218796
-0.218403
-0.217865
-0.217166
-0.216293
-0.215241
-0.214006
-0.212588
-0.21099
-0.209216
-0.207272
-0.205168
-0.20291
-0.200509
-0.197977
-0.195326
-0.19257
-0.189724
-0.186808
-0.183842
-0.180854
-0.17788
-0.174968
-0.172171
-0.169553
-0.167365
-0.166133
-0.164715
-0.231465
-0.229312
-0.22725
-0.225442
-0.223874
-0.222583
-0.221572
-0.220794
-0.220191
-0.219701
-0.219265
-0.218833
-0.21836
-0.217811
-0.217158
-0.216381
-0.215462
-0.214393
-0.213164
-0.211774
-0.210221
-0.208508
-0.206638
-0.204618
-0.202454
-0.200156
-0.197735
-0.195202
-0.192573
-0.189864
-0.187093
-0.184285
-0.181465
-0.17867
-0.17594
-0.173311
-0.170837
-0.168786
-0.167534
-0.165299
-0.231184
-0.229378
-0.22763
-0.226057
-0.224604
-0.223305
-0.222185
-0.221233
-0.220419
-0.219707
-0.219055
-0.218424
-0.217778
-0.217084
-0.216316
-0.215452
-0.214473
-0.213368
-0.212126
-0.210742
-0.209212
-0.207536
-0.205716
-0.203756
-0.201662
-0.199441
-0.197103
-0.19466
-0.192125
-0.189513
-0.186843
-0.184134
-0.181413
-0.178708
-0.176051
-0.173464
-0.170988
-0.168875
-0.167405
-0.164575
-0.230911
-0.229234
-0.227644
-0.226215
-0.224853
-0.223578
-0.222417
-0.221371
-0.220425
-0.219559
-0.218745
-0.217955
-0.217161
-0.216334
-0.215453
-0.214495
-0.213444
-0.212286
-0.21101
-0.209609
-0.208077
-0.206413
-0.204616
-0.202689
-0.200637
-0.198464
-0.19618
-0.193794
-0.191319
-0.188767
-0.186154
-0.183499
-0.180821
-0.178145
-0.175494
-0.172878
-0.170325
-0.168068
-0.166331
-0.163066
-0.230647
-0.228996
-0.227463
-0.226098
-0.224783
-0.223524
-0.22234
-0.221235
-0.220201
-0.219226
-0.21829
-0.217373
-0.216453
-0.21551
-0.214522
-0.213471
-0.212342
-0.21112
-0.209796
-0.208359
-0.206806
-0.205131
-0.203334
-0.201416
-0.199379
-0.197229
-0.19497
-0.192613
-0.190166
-0.187642
-0.185052
-0.182413
-0.17974
-0.177052
-0.174365
-0.171682
-0.169024
-0.166602
-0.164606
-0.161032
-0.230329
-0.228652
-0.227119
-0.225768
-0.224464
-0.223201
-0.221993
-0.220843
-0.219742
-0.218683
-0.217651
-0.216632
-0.215608
-0.214562
-0.213477
-0.212337
-0.211128
-0.209837
-0.208454
-0.20697
-0.20538
-0.203677
-0.201861
-0.199931
-0.197888
-0.195735
-0.193479
-0.191124
-0.18868
-0.186156
-0.183561
-0.180909
-0.178212
-0.175484
-0.172737
-0.169968
-0.167195
-0.164611
-0.162379
-0.158589
-0.229927
-0.228198
-0.226635
-0.225266
-0.223946
-0.222661
-0.221421
-0.220224
-0.219065
-0.217935
-0.216823
-0.215716
-0.214601
-0.213464
-0.212289
-0.211064
-0.209776
-0.208413
-0.206965
-0.205424
-0.203784
-0.20204
-0.200188
-0.198228
-0.19616
-0.193986
-0.19171
-0.189336
-0.186872
-0.184325
-0.181703
-0.179016
-0.176274
-0.173488
-0.170666
-0.167804
-0.164915
-0.162178
-0.159734
-0.155796
-0.229427
-0.227631
-0.226019
-0.224611
-0.223255
-0.221932
-0.220649
-0.219403
-0.218185
-0.216989
-0.215803
-0.214617
-0.213419
-0.212197
-0.210938
-0.209631
-0.208263
-0.206825
-0.205308
-0.203702
-0.202003
-0.200205
-0.198304
-0.196299
-0.194189
-0.191977
-0.189663
-0.187252
-0.18475
-0.182162
-0.179494
-0.176756
-0.173954
-0.171097
-0.168193
-0.165235
-0.162235
-0.159357
-0.156723
-0.152688
-0.228821
-0.226946
-0.225272
-0.223812
-0.222405
-0.221031
-0.219695
-0.218392
-0.217113
-0.215849
-0.214591
-0.213329
-0.212052
-0.210748
-0.209408
-0.208019
-0.206571
-0.205056
-0.203464
-0.201787
-0.20002
-0.198158
-0.196197
-0.194134
-0.191969
-0.189703
-0.187337
-0.184874
-0.182318
-0.179673
-0.176947
-0.174144
-0.171271
-0.168337
-0.165346
-0.162292
-0.159188
-0.15618
-0.153375
-0.149282
-0.228104
-0.226142
-0.224394
-0.222871
-0.221402
-0.219967
-0.218569
-0.217202
-0.215855
-0.214521
-0.213189
-0.21185
-0.210493
-0.209109
-0.207685
-0.206214
-0.204684
-0.203088
-0.201417
-0.199663
-0.197821
-0.195886
-0.193854
-0.191723
-0.189491
-0.187159
-0.184728
-0.182199
-0.179577
-0.176864
-0.174067
-0.17119
-0.16824
-0.165223
-0.162143
-0.158996
-0.155793
-0.152666
-0.149707
-0.145584
-0.227272
-0.225215
-0.223387
-0.221791
-0.220252
-0.218746
-0.217276
-0.215837
-0.214417
-0.213007
-0.211597
-0.210178
-0.208739
-0.20727
-0.205762
-0.204205
-0.20259
-0.200908
-0.199152
-0.197315
-0.195391
-0.193375
-0.191264
-0.189055
-0.186746
-0.184337
-0.181829
-0.179224
-0.176525
-0.173735
-0.170859
-0.167901
-0.164867
-0.161764
-0.158595
-0.155357
-0.152062
-0.148826
-0.145727
-0.141595
-0.226322
-0.224165
-0.222251
-0.220575
-0.218956
-0.21737
-0.215822
-0.214302
-0.212801
-0.211308
-0.209815
-0.20831
-0.206783
-0.205226
-0.203629
-0.201982
-0.200277
-0.198504
-0.196658
-0.194731
-0.192718
-0.190614
-0.188414
-0.186118
-0.183723
-0.181228
-0.178635
-0.175945
-0.17316
-0.170285
-0.167322
-0.164278
-0.161157
-0.157965
-0.154708
-0.151382
-0.147999
-0.144662
-0.141437
-0.137312
-0.225254
-0.222992
-0.220987
-0.219225
-0.217518
-0.215845
-0.214208
-0.2126
-0.211009
-0.209426
-0.207841
-0.206243
-0.204624
-0.202972
-0.20128
-0.199537
-0.197735
-0.195866
-0.193923
-0.191899
-0.189789
-0.187589
-0.185294
-0.182902
-0.180412
-0.177823
-0.175136
-0.172353
-0.169476
-0.166508
-0.163455
-0.16032
-0.157108
-0.153828
-0.150482
-0.147071
-0.143606
-0.140175
-0.136832
-0.132728
-0.224065
-0.221699
-0.219601
-0.217745
-0.215943
-0.214172
-0.212437
-0.21073
-0.20904
-0.207358
-0.205672
-0.203974
-0.202253
-0.2005
-0.198704
-0.196858
-0.194953
-0.19298
-0.190933
-0.188805
-0.186591
-0.184287
-0.181888
-0.179393
-0.176801
-0.17411
-0.171322
-0.168439
-0.165463
-0.162399
-0.159249
-0.15602
-0.152717
-0.149346
-0.145913
-0.14242
-0.138878
-0.135359
-0.131909
-0.127835
-0.222764
-0.220299
-0.218107
-0.21615
-0.214242
-0.212363
-0.210518
-0.208701
-0.206901
-0.205107
-0.203311
-0.201502
-0.19967
-0.197806
-0.195899
-0.193941
-0.191924
-0.189839
-0.18768
-0.18544
-0.183114
-0.180698
-0.178188
-0.175583
-0.17288
-0.170081
-0.167186
-0.164196
-0.161116
-0.157949
-0.1547
-0.151374
-0.147977
-0.144516
-0.140998
-0.137425
-0.133809
-0.130209
-0.126659
-0.122624
-0.221364
-0.218827
-0.21655
-0.214487
-0.212461
-0.210461
-0.208492
-0.206551
-0.204628
-0.202712
-0.200794
-0.198863
-0.19691
-0.194924
-0.192896
-0.190818
-0.188679
-0.186473
-0.184193
-0.181832
-0.179384
-0.176847
-0.174217
-0.171492
-0.168671
-0.165755
-0.162744
-0.159642
-0.156451
-0.153176
-0.149822
-0.146395
-0.142901
-0.139349
-0.135744
-0.132092
-0.128404
-0.124725
-0.12108
-0.117088
-0.219796
-0.217198
-0.214824
-0.212627
-0.210455
-0.208306
-0.206191
-0.204105
-0.202039
-0.199984
-0.197929
-0.195864
-0.193778
-0.191661
-0.189502
-0.187294
-0.185027
-0.182693
-0.180284
-0.177796
-0.175223
-0.172561
-0.169807
-0.16696
-0.164018
-0.160983
-0.157856
-0.154641
-0.15134
-0.147959
-0.144503
-0.14098
-0.137395
-0.133757
-0.130073
-0.12635
-0.122599
-0.118851
-0.11512
-0.11118
-0.218473
-0.215575
-0.212931
-0.210491
-0.208096
-0.20574
-0.203432
-0.201166
-0.198928
-0.196709
-0.194496
-0.192279
-0.190045
-0.187783
-0.185484
-0.183138
-0.180736
-0.178269
-0.175731
-0.173115
-0.170417
-0.167632
-0.164758
-0.161793
-0.158737
-0.155591
-0.152357
-0.149037
-0.145638
-0.142163
-0.138618
-0.135011
-0.13135
-0.127642
-0.123896
-0.12012
-0.116325
-0.112527
-0.108737
-0.104887
-0.22091
-0.217203
-0.214164
-0.211514
-0.208959
-0.206465
-0.20403
-0.20164
-0.199276
-0.196924
-0.194571
-0.192202
-0.189807
-0.187375
-0.184894
-0.182355
-0.17975
-0.17707
-0.17431
-0.171464
-0.168528
-0.165499
-0.162375
-0.159156
-0.155844
-0.152439
-0.148947
-0.145371
-0.141718
-0.137993
-0.134205
-0.130362
-0.126472
-0.122544
-0.118589
-0.114617
-0.110637
-0.10665
-0.102648
-0.0987115
-0.219388
-0.215337
-0.212001
-0.209081
-0.206272
-0.20354
-0.200882
-0.198279
-0.195712
-0.193164
-0.190619
-0.188065
-0.185488
-0.182878
-0.180222
-0.177511
-0.174737
-0.171891
-0.168967
-0.165961
-0.162868
-0.159685
-0.156412
-0.153049
-0.149596
-0.146058
-0.142437
-0.13874
-0.134973
-0.131142
-0.127257
-0.123325
-0.119357
-0.115361
-0.111349
-0.107332
-0.10332
-0.0992984
-0.0952548
-0.0914401
-0.217393
-0.213193
-0.209731
-0.206641
-0.203643
-0.200721
-0.197874
-0.195084
-0.192333
-0.189602
-0.186877
-0.184144
-0.18139
-0.178603
-0.175771
-0.172885
-0.169936
-0.166916
-0.16382
-0.160641
-0.157377
-0.154025
-0.150585
-0.147058
-0.143445
-0.139751
-0.135981
-0.13214
-0.128236
-0.124276
-0.12027
-0.116228
-0.112159
-0.108073
-0.103981
-0.0998983
-0.0958324
-0.0917543
-0.0876407
-0.0838914
-0.21531
-0.210914
-0.207325
-0.204073
-0.200893
-0.197783
-0.194746
-0.191765
-0.18882
-0.185897
-0.182979
-0.180053
-0.177106
-0.174125
-0.171099
-0.168019
-0.164876
-0.161662
-0.158372
-0.155002
-0.151548
-0.148009
-0.144385
-0.140678
-0.136891
-0.133029
-0.129097
-0.125102
-0.121053
-0.116958
-0.112828
-0.108673
-0.104503
-0.100328
-0.0961616
-0.0920182
-0.0879064
-0.0837826
-0.0796132
-0.0759482
-0.213078
-0.208409
-0.204678
-0.201255
-0.197885
-0.194581
-0.191348
-0.188169
-0.185025
-0.1819
-0.178779
-0.175649
-0.172496
-0.169309
-0.166077
-0.162789
-0.159439
-0.156019
-0.152524
-0.14895
-0.145294
-0.141557
-0.13774
-0.133844
-0.129875
-0.125838
-0.121739
-0.117587
-0.113391
-0.109161
-0.104907
-0.100641
-0.0963736
-0.0921161
-0.0878807
-0.0836846
-0.0795358
-0.0753761
-0.0711605
-0.0675883
-0.210718
-0.205706
-0.201833
-0.198233
-0.194661
-0.191155
-0.187719
-0.184333
-0.180979
-0.177642
-0.174307
-0.170961
-0.16759
-0.164182
-0.160728
-0.157219
-0.153646
-0.150004
-0.146287
-0.142494
-0.138623
-0.134675
-0.130651
-0.126555
-0.122394
-0.118173
-0.1139
-0.109586
-0.10524
-0.100872
-0.0964956
-0.0921209
-0.0877602
-0.0834248
-0.0791274
-0.0748865
-0.0707101
-0.0665254
-0.0622743
-0.058802
-0.208247
-0.202811
-0.1988
-0.195015
-0.191232
-0.187513
-0.183863
-0.180259
-0.176684
-0.173123
-0.169559
-0.165981
-0.162375
-0.15873
-0.155037
-0.151287
-0.147474
-0.143591
-0.139636
-0.135607
-0.131504
-0.127328
-0.123084
-0.118776
-0.114412
-0.109999
-0.105547
-0.101066
-0.0965668
-0.0920623
-0.0875643
-0.0830851
-0.0786369
-0.0742311
-0.0698807
-0.0656052
-0.061413
-0.0572188
-0.052947
-0.0495792
-0.205601
-0.199757
-0.195587
-0.191603
-0.187597
-0.183656
-0.179781
-0.175948
-0.172138
-0.168337
-0.164529
-0.160701
-0.156842
-0.15294
-0.148987
-0.144975
-0.140899
-0.136755
-0.132541
-0.128256
-0.123903
-0.119484
-0.115004
-0.110472
-0.105894
-0.101281
-0.0966425
-0.0919913
-0.0873394
-0.0826994
-0.0780838
-0.073506
-0.0689782
-0.064511
-0.0601173
-0.0558181
-0.051625
-0.0474452
-0.0431654
-0.0398612
-0.202726
-0.196575
-0.1922
-0.187997
-0.183762
-0.179589
-0.175478
-0.171404
-0.167345
-0.163287
-0.159215
-0.155117
-0.150981
-0.146798
-0.14256
-0.138261
-0.133898
-0.129468
-0.12497
-0.120408
-0.115783
-0.111102
-0.106371
-0.1016
-0.096798
-0.0919767
-0.0871481
-0.0823247
-0.0775207
-0.0727488
-0.0680213
-0.0633532
-0.0587578
-0.0542439
-0.0498203
-0.0455128
-0.0413389
-0.0371799
-0.0328971
-0.0294594
-0.199601
-0.193284
-0.188649
-0.184198
-0.179735
-0.175325
-0.170967
-0.166636
-0.162311
-0.157976
-0.153618
-0.149223
-0.144783
-0.140288
-0.135735
-0.131118
-0.126437
-0.121691
-0.116883
-0.112017
-0.107098
-0.102134
-0.0971355
-0.0921118
-0.087075
-0.0820391
-0.0770166
-0.0720205
-0.0670685
-0.0621757
-0.0573537
-0.0526162
-0.0479817
-0.043439
-0.0390241
-0.0347675
-0.0306851
-0.026337
-0.0221404
-0.0190366
-0.196323
-0.189835
-0.184946
-0.180221
-0.175508
-0.170875
-0.166264
-0.161661
-0.15705
-0.152414
-0.147738
-0.143014
-0.138233
-0.133391
-0.128484
-0.123511
-0.118476
-0.113379
-0.108228
-0.103029
-0.09779
-0.0925218
-0.0872367
-0.0819468
-0.0766651
-0.07141
-0.0661975
-0.0610398
-0.0559589
-0.0509784
-0.0460571
-0.0413061
-0.0366944
-0.0319752
-0.0275503
-0.0233427
-0.0192828
-0.015217
-0.0110318
-0.00821187
-0.192912
-0.186199
-0.181056
-0.176221
-0.171052
-0.166244
-0.161381
-0.156497
-0.151581
-0.146612
-0.141582
-0.136484
-0.131315
-0.126075
-0.120766
-0.115392
-0.109957
-0.10447
-0.0989376
-0.0933727
-0.0877861
-0.0821896
-0.0766019
-0.071039
-0.0655138
-0.0600542
-0.0546863
-0.0493491
-0.0442129
-0.0392651
-0.0338637
-0.0291466
-0.0245317
-0.0200096
-0.0156635
-0.0115063
-0.0075296
-0.00357687
0.000515897
0.00309703
-0.189318
-0.182387
-0.176964
-0.171861
-0.166701
-0.161627
-0.15636
-0.151153
-0.145927
-0.140567
-0.135139
-0.129615
-0.123999
-0.118299
-0.112526
-0.106691
-0.100804
-0.0948774
-0.0889221
-0.0829579
-0.0770018
-0.0710654
-0.0651777
-0.0593659
-0.0535722
-0.0479726
-0.0425937
-0.0365782
-0.0314153
-0.0263354
-0.0213144
-0.0165149
-0.0118929
-0.00744543
-0.00318973
0.00085463
0.0046915
0.00849904
0.0124512
0.0147903
-0.185531
-0.178406
-0.172781
-0.167503
-0.162169
-0.156808
-0.151366
-0.145856
-0.140287
-0.134244
-0.12836
-0.122366
-0.116196
-0.109981
-0.103676
-0.0973115
-0.0909153
-0.0845051
-0.0780915
-0.0717083
-0.06539
-0.0590726
-0.0529257
-0.0469803
-0.040448
-0.0346606
-0.0290213
-0.0234291
-0.0180781
-0.0129095
-0.0079291
-0.00316178
0.00138533
0.00571427
0.00982224
0.0136947
0.0173389
0.0209487
0.0247114
0.0267915
-0.181503
-0.174268
-0.168553
-0.163206
-0.157744
-0.152151
-0.146393
-0.140437
-0.134286
-0.127916
-0.121449
-0.114873
-0.107709
-0.100977
-0.0940804
-0.0871108
-0.0801803
-0.0732769
-0.0663203
-0.0595499
-0.0529514
-0.0457737
-0.039273
-0.0329715
-0.0267195
-0.020702
-0.0148759
-0.00924963
-0.00385176
0.00130565
0.00621744
0.0108755
0.015277
0.0194251
0.0233222
0.0269586
0.0303465
0.0336916
0.0371975
0.0389921
-0.177089
-0.169994
-0.164386
-0.159121
-0.1536
-0.147768
-0.141603
-0.135098
-0.128279
-0.121195
-0.11391
-0.106489
-0.0989406
-0.0914662
-0.0837088
-0.0758605
-0.068409
-0.0610476
-0.0529287
-0.045822
-0.0387049
-0.0316483
-0.02484
-0.0182301
-0.0118265
-0.00566341
0.00024295
0.00588184
0.0112395
0.0163077
0.0210821
0.02556
0.0297421
0.0336342
0.0372426
0.0405624
0.04361
0.0465974
0.0497469
0.051217
-0.172316
-0.165929
-0.160738
-0.155723
-0.150159
-0.143962
-0.137177
-0.129872
-0.122141
-0.114089
-0.105813
-0.0973956
-0.088913
-0.0804299
-0.0719415
-0.0634816
-0.0551478
-0.0469768
-0.0389051
-0.0311409
-0.0235624
-0.0162059
-0.00911266
-0.00229485
0.0042339
0.0104554
0.016358
0.021933
0.0271724
0.0320717
0.0366292
0.0408453
0.0447236
0.0482723
0.0515009
0.0544096
0.057017
0.0595251
0.062169
0.0632559
-0.167544
-0.163275
-0.159171
-0.154473
-0.148622
-0.141645
-0.13376
-0.125187
-0.116123
-0.106743
-0.0971869
-0.0875636
-0.0779552
-0.0684169
-0.0589833
-0.0496976
-0.0406154
-0.0317816
-0.0232278
-0.01497
-0.00701407
0.000622905
0.00791993
0.0148633
0.02144
0.0276395
0.0334574
0.0388885
0.0439266
0.0485712
0.0528257
0.0566942
0.0601825
0.0632997
0.0660573
0.0684605
0.0705217
0.0723848
0.0742378
0.0747493
-0.158737
-0.160069
-0.158238
-0.153574
-0.146755
-0.138295
-0.1287
-0.118388
-0.107662
-0.0967439
-0.0857879
-0.0749009
-0.0641616
-0.0536058
-0.0432591
-0.033201
-0.0234973
-0.0141675
-0.00521697
0.00335117
0.0115222
0.0192841
0.0266299
0.0335511
0.0400292
0.0460544
0.0516352
0.0567847
0.0614993
0.0657713
0.0696048
0.0730073
0.0759828
0.0785329
0.080659
0.0823566
0.0835901
0.0843171
0.0845426
0.083794
-0.152228
-0.158832
-0.156743
-0.149773
-0.140257
-0.12923
-0.11735
-0.105077
-0.092703
-0.0804086
-0.0683042
-0.0564661
-0.0450204
-0.0339334
-0.0231256
-0.012725
-0.00279278
0.00667541
0.0156853
0.0242479
0.0323364
0.039925
0.0470294
0.0536672
0.0598077
0.0654212
0.0705919
0.0752766
0.0794786
0.0832311
0.0865081
0.0893074
0.0916259
0.0934442
0.0947328
0.0954468
0.0954184
0.0942138
0.091699
0.0892827
-0.247617
-0.232773
-0.21902
-0.203002
-0.18558
-0.167722
-0.149816
-0.132094
-0.114726
-0.0978304
-0.0814774
-0.0657147
-0.0505751
-0.0360995
-0.0223039
-0.00919903
0.0031925
0.0148302
0.0257204
0.0359184
0.0454167
0.054136
0.0621731
0.0695584
0.0761496
0.0819903
0.0878719
0.0929281
0.0969089
0.100435
0.10346
0.105954
0.107933
0.109409
0.110409
0.110992
0.111102
0.110183
0.108631
0.113751
-0.250819
-0.222161
-0.199086
-0.177607
-0.156226
-0.135499
-0.115575
-0.0964598
-0.0781678
-0.0607159
-0.0441347
-0.0284264
-0.013542
0.000478419
0.0136038
0.0259065
0.037419
0.0480037
0.0576671
0.0669112
0.0750083
0.0823655
0.0896591
0.096531
0.101676
0.106377
0.110613
0.114245
0.117286
0.119846
0.121948
0.123604
0.124851
0.12573
0.126306
0.126685
0.126885
0.126603
0.12663
0.132681
-0.23878
-0.203888
-0.17773
-0.153756
-0.130365
-0.108036
-0.0868562
-0.0667786
-0.0477667
-0.0298019
-0.0129546
0.00277931
0.0175511
0.0313391
0.0440232
0.0559016
0.0667563
0.0764764
0.0847675
0.0959004
0.10235
0.10874
0.11469
0.119923
0.124386
0.128273
0.131604
0.134374
0.136624
0.138409
0.139774
0.14076
0.141415
0.141796
0.141976
0.142053
0.14202
0.141625
0.141701
0.146889
-0.219073
-0.180269
-0.153047
-0.127418
-0.10253
-0.0789784
-0.0567967
-0.0359799
-0.0164526
0.00188283
0.0187973
0.0341949
0.0492253
0.0622663
0.0741801
0.0869751
0.0973439
0.106287
0.114378
0.121963
0.128308
0.133945
0.138931
0.143183
0.146752
0.149711
0.15211
0.153985
0.155385
0.156365
0.156975
0.157268
0.157293
0.157107
0.156778
0.156384
0.155892
0.15506
0.154695
0.15875
-0.193134
-0.150946
-0.123172
-0.0961748
-0.070204
-0.045845
-0.0230567
-0.00194908
0.0176912
0.0361131
0.0525827
0.0661357
0.0855783
0.0964614
0.10761
0.118146
0.127349
0.13549
0.142749
0.149069
0.154487
0.159101
0.162981
0.166157
0.168679
0.170615
0.172021
0.17295
0.173456
0.173594
0.173415
0.172971
0.172312
0.171486
0.170551
0.169568
0.168484
0.167087
0.166163
0.169113
-0.161827
-0.117968
-0.0895968
-0.0614442
-0.0349778
-0.00984165
0.0131268
0.0341327
0.0544103
0.0741405
0.0899637
0.104358
0.118134
0.129687
0.140158
0.149562
0.157747
0.164819
0.170898
0.176029
0.180265
0.183694
0.186389
0.188412
0.189825
0.190694
0.191079
0.191039
0.190629
0.189902
0.188911
0.187702
0.186322
0.184812
0.183221
0.181595
0.179875
0.177878
0.176371
0.178276
-0.126695
-0.0821549
-0.0529724
-0.0235295
0.00271602
0.030761
0.0538425
0.0747886
0.0940002
0.111421
0.126858
0.140772
0.153082
0.163825
0.173201
0.181314
0.188197
0.193947
0.19867
0.202452
0.205371
0.207513
0.208957
0.209773
0.210033
0.209801
0.209142
0.208114
0.206772
0.205169
0.203352
0.201366
0.19925
0.197042
0.194781
0.192504
0.190149
0.187567
0.185489
0.186403
-0.0879262
-0.0427203
-0.0117612
0.0193773
0.0467833
0.0722662
0.0950038
0.115626
0.134222
0.150721
0.165248
0.177985
0.189008
0.198399
0.206324
0.212914
0.218271
0.222508
0.225737
0.228057
0.229562
0.230341
0.230478
0.230048
0.229125
0.227775
0.226062
0.224042
0.22177
0.219294
0.216658
0.213902
0.211061
0.208165
0.205248
0.202339
0.199378
0.196246
0.193624
0.193605
-0.045201
0.00192106
0.0334442
0.0637648
0.0913854
0.116316
0.138671
0.158598
0.176184
0.19149
0.204646
0.215827
0.225191
0.232889
0.23909
0.243948
0.247598
0.250169
0.251782
0.252548
0.252567
0.251931
0.250727
0.249033
0.24692
0.244456
0.241699
0.238706
0.235524
0.232199
0.22877
0.225272
0.221733
0.21818
0.214642
0.211138
0.207614
0.203976
0.200847
0.199959
0.00105691
0.0495747
0.0810248
0.111125
0.138566
0.162996
0.184556
0.203349
0.219492
0.233139
0.244484
0.253743
0.261125
0.266834
0.271065
0.273993
0.275776
0.276556
0.276462
0.275609
0.274101
0.272031
0.269482
0.266533
0.263251
0.259699
0.255933
0.252003
0.247953
0.243822
0.239643
0.235447
0.231257
0.227094
0.222981
0.218932
0.214896
0.210803
0.207208
0.205521
0.0506581
0.100215
0.131543
0.161453
0.188461
0.21201
0.232285
0.249435
0.263642
0.27515
0.284235
0.291178
0.296247
0.299689
0.301727
0.302558
0.302353
0.301259
0.299408
0.296914
0.293878
0.290389
0.286527
0.282363
0.27796
0.273375
0.268656
0.263848
0.25899
0.254112
0.249245
0.24441
0.239627
0.234912
0.230282
0.225745
0.221256
0.216761
0.212747
0.210335
0.103666
0.154112
0.185276
0.214774
0.240956
0.263116
0.281508
0.296388
0.308054
0.316868
0.323207
0.327433
0.32987
0.330805
0.33048
0.329102
0.326843
0.32385
0.320246
0.316138
0.311619
0.306769
0.30166
0.296355
0.290908
0.285367
0.279776
0.27417
0.26858
0.263032
0.257549
0.252147
0.246841
0.24164
0.236558
0.231597
0.226716
0.221877
0.217494
0.214437
0.160347
0.211602
0.24247
0.271193
0.295955
0.315985
0.331684
0.343495
0.351894
0.357398
0.3605
0.361639
0.361187
0.359448
0.356669
0.35305
0.34875
0.343901
0.338611
0.332973
0.327064
0.320955
0.314703
0.308361
0.301975
0.295583
0.289219
0.282911
0.276683
0.270555
0.264541
0.258653
0.2529
0.247287
0.241823
0.236505
0.231298
0.226173
0.221475
0.217854
0.22119
0.273176
0.303508
0.330805
0.353195
0.370003
0.381916
0.389671
0.39399
0.395564
0.394996
0.392777
0.389291
0.384832
0.379622
0.373833
0.367595
0.361013
0.354173
0.347145
0.339991
0.332763
0.325508
0.318266
0.31107
0.30395
0.296931
0.290033
0.283273
0.276663
0.270211
0.263926
0.257809
0.251863
0.24609
0.240485
0.235017
0.229666
0.224709
0.220609
0.286975
0.339485
0.368788
0.393478
0.411963
0.423978
0.430701
0.433284
0.432726
0.429868
0.425366
0.419703
0.413221
0.406159
0.398685