/*--------------------------------*- C++ -*----------------------------------*\
  =========                 |
  \\      /  F ield         | OpenFOAM: The Open Source CFD Toolbox
   \\    /   O peration     | Website:  https://openfoam.org
    \\  /    A nd           | Version:  7
     \\/     M anipulation  |
\*---------------------------------------------------------------------------*/
FoamFile
{
    version     2.0;
    format      ascii;
    class       surfaceScalarField;
    location    "3";
    object      phi;
}
// * * * * * * * * * * * * * * * * * * * * * * * * * * * * * * * * * * * * * //

dimensions      [0 3 -1 0 0 0 0];

internalField   nonuniform List<scalar> 
23750
(
1.62851e-06
-1.62851e-06
-2.87466e-13
5.82005e-06
-4.19154e-06
-6.04933e-13
1.17769e-05
-5.95687e-06
-8.29681e-13
1.90925e-05
-7.31554e-06
-9.96294e-13
2.75579e-05
-8.46548e-06
-1.14208e-12
3.70778e-05
-9.51987e-06
-1.24749e-12
4.76072e-05
-1.05294e-05
-1.3461e-12
5.91253e-05
-1.15181e-05
-1.45041e-12
7.16244e-05
-1.24991e-05
-1.54426e-12
8.51039e-05
-1.34795e-05
-1.63037e-12
9.95677e-05
-1.44638e-05
-1.72709e-12
0.000115023
-1.5455e-05
-1.83693e-12
0.000131478
-1.64553e-05
-1.94839e-12
0.000148944
-1.74664e-05
-2.05826e-12
0.000167434
-1.84896e-05
-2.1738e-12
0.00018696
-1.95262e-05
-2.29934e-12
0.000207537
-2.0577e-05
-2.43165e-12
0.00022918
-2.16426e-05
-2.56729e-12
0.000251903
-2.27232e-05
-2.70803e-12
0.000275722
-2.38188e-05
-2.85792e-12
0.000300651
-2.49289e-05
-3.01812e-12
0.000326703
-2.60527e-05
-3.18658e-12
0.000353892
-2.71887e-05
-3.36176e-12
0.000382227
-2.83348e-05
-3.54502e-12
0.000411715
-2.94885e-05
-3.73901e-12
0.000442362
-3.06462e-05
-3.94479e-12
0.000474165
-3.18037e-05
-4.16132e-12
0.000507121
-3.29557e-05
-4.38755e-12
0.000541217
-3.40958e-05
-4.62325e-12
0.000576433
-3.52164e-05
-4.86732e-12
0.000612742
-3.63086e-05
-5.11738e-12
0.000650104
-3.73619e-05
-5.37311e-12
0.000688468
-3.83643e-05
-5.63852e-12
0.000727771
-3.93023e-05
-5.91732e-12
0.000767931
-4.01603e-05
-6.2064e-12
0.000808852
-4.09215e-05
-6.49878e-12
0.000850419
-4.15666e-05
-6.79202e-12
0.000892492
-4.20735e-05
-7.08312e-12
0.000934914
-4.2422e-05
-7.37592e-12
-4.25928e-05
-7.67169e-12
0.000977507
2.89389e-07
-1.9179e-06
2.66017e-06
-6.56232e-06
6.9391e-06
-1.02358e-05
1.28914e-05
-1.32679e-05
2.0298e-05
-1.5872e-05
2.89942e-05
-1.82161e-05
3.88704e-05
-2.04056e-05
4.98581e-05
-2.25058e-05
6.19172e-05
-2.45581e-05
7.5026e-05
-2.65884e-05
8.91751e-05
-2.86129e-05
0.000104363
-3.06426e-05
0.000120592
-3.2685e-05
0.000137872
-3.47455e-05
0.00015621
-3.68281e-05
0.00017562
-3.89361e-05
0.000196115
-4.10718e-05
0.000217709
-4.32368e-05
0.000240418
-4.54321e-05
0.000264257
-4.76579e-05
0.000289242
-4.99136e-05
0.000315387
-5.21978e-05
0.000342706
-5.45077e-05
0.000371211
-5.68398e-05
0.000400911
-5.91888e-05
0.000431813
-6.1548e-05
0.000463918
-6.39091e-05
0.000497224
-6.62616e-05
0.000531721
-6.85928e-05
0.000567392
-7.08876e-05
0.000604212
-7.3128e-05
0.000642143
-7.52929e-05
0.000681137
-7.73582e-05
0.00072113
-7.92959e-05
0.000762044
-8.10746e-05
0.000803782
-8.26591e-05
0.000846225
-8.40099e-05
0.000889234
-8.50818e-05
0.000932642
-8.58305e-05
-8.62247e-05
0.000976274
3.20795e-07
-2.23869e-06
1.92932e-06
-8.17084e-06
5.09209e-06
-1.33986e-05
9.8586e-06
-1.80344e-05
1.61621e-05
-2.21756e-05
2.38985e-05
-2.59525e-05
3.29668e-05
-2.94739e-05
4.32852e-05
-3.28242e-05
5.47933e-05
-3.60663e-05
6.74503e-05
-3.92453e-05
8.12307e-05
-4.23933e-05
9.61208e-05
-4.55327e-05
0.000112116
-4.86798e-05
0.000129216
-5.18463e-05
0.000147429
-5.50409e-05
0.000166763
-5.82703e-05
0.000187231
-6.15395e-05
0.000208846
-6.4852e-05
0.000231624
-6.82101e-05
0.000255582
-7.1615e-05
0.000280734
-7.50662e-05
0.000307099
-7.85622e-05
0.00033469
-8.20996e-05
0.000363524
-8.56732e-05
0.000393611
-8.92758e-05
0.000424961
-9.28978e-05
0.000457578
-9.6527e-05
0.000491465
-0.000100148
0.000526613
-0.000103742
0.000563011
-0.000107286
0.000600636
-0.000110753
0.000639455
-0.000114112
0.000679422
-0.000117325
0.000720476
-0.00012035
0.00076254
-0.000123139
0.000805518
-0.000125636
0.000849289
-0.000127781
0.000893708
-0.000129501
0.000938603
-0.000130725
-0.000131411
0.000983789
2.87248e-07
-2.52594e-06
1.616e-06
-9.49959e-06
4.22081e-06
-1.60034e-05
8.23987e-06
-2.20534e-05
1.372e-05
-2.76557e-05
2.06447e-05
-3.28772e-05
2.89664e-05
-3.77956e-05
3.86285e-05
-4.24864e-05
4.95784e-05
-4.70162e-05
6.17728e-05
-5.14397e-05
7.51798e-05
-5.58003e-05
8.9778e-05
-6.0131e-05
0.000105556
-6.44575e-05
0.000122508
-6.87989e-05
0.000140638
-7.31703e-05
0.000159951
-7.7583e-05
0.000180457
-8.20457e-05
0.00020217
-8.65648e-05
0.000225104
-9.11448e-05
0.000249278
-9.57884e-05
0.000274707
-0.000100496
0.000301412
-0.000105267
0.000329409
-0.000110096
0.000358715
-0.000114979
0.000389346
-0.000119907
0.000421315
-0.000124866
0.00045463
-0.000129842
0.000489297
-0.000134815
0.000525314
-0.000139759
0.000562673
-0.000144644
0.000601356
-0.000149436
0.000641334
-0.00015409
0.000682566
-0.000158557
0.000724996
-0.00016278
0.000768548
-0.000166691
0.000813126
-0.000170214
0.00085861
-0.000173265
0.00090485
-0.000175741
0.000951665
-0.00017754
-0.000178617
0.000998871
2.91428e-07
-2.81737e-06
1.5186e-06
-1.07268e-05
3.85878e-06
-1.83436e-05
7.45293e-06
-2.56476e-05
1.23947e-05
-3.25975e-05
1.87262e-05
-3.92087e-05
2.64521e-05
-4.55215e-05
3.55542e-05
-5.15884e-05
4.60037e-05
-5.74656e-05
5.77702e-05
-6.32063e-05
7.0827e-05
-6.8857e-05
8.51534e-05
-7.44574e-05
0.000100736
-8.00398e-05
0.000117567
-8.56303e-05
0.000135647
-9.12499e-05
0.000154979
-9.69152e-05
0.000175572
-0.000102639
0.00019744
-0.000108432
0.000220597
-0.000114301
0.00024506
-0.000120252
0.000270849
-0.000126285
0.000297984
-0.000132401
0.000326485
-0.000138597
0.000356372
-0.000144867
0.000387665
-0.0001512
0.00042038
-0.000157581
0.000454531
-0.000163994
0.000490129
-0.000170412
0.000527176
-0.000176807
0.000565672
-0.00018314
0.000605603
-0.000189367
0.000646948
-0.000195435
0.00068967
-0.000201279
0.000733717
-0.000206827
0.000779017
-0.000211991
0.000825479
-0.000216676
0.000872981
-0.000220767
0.00092137
-0.00022413
0.000970458
-0.000226629
-0.000228228
0.00102007
3.10587e-07
-3.12795e-06
1.52511e-06
-1.19413e-05
3.76621e-06
-2.05847e-05
7.15266e-06
-2.9034e-05
1.17853e-05
-3.72301e-05
1.7734e-05
-4.51575e-05
2.50388e-05
-5.28263e-05
3.37152e-05
-6.02649e-05
4.37624e-05
-6.75128e-05
5.51703e-05
-7.46141e-05
6.79254e-05
-8.16122e-05
8.20152e-05
-8.85472e-05
9.74302e-05
-9.54548e-05
0.000114165
-0.000102365
0.00013222
-0.000109305
0.0001516
-0.000116294
0.000172312
-0.000123351
0.000194369
-0.00013049
0.000217788
-0.00013772
0.000242586
-0.00014505
0.000268785
-0.000152483
0.000296405
-0.000160022
0.000325471
-0.000167663
0.000356006
-0.000175402
0.000388032
-0.000183226
0.000421572
-0.000191121
0.000456644
-0.000199066
0.000493265
-0.000207033
0.000531444
-0.000214986
0.000571186
-0.000222882
0.000612486
-0.000230667
0.000655329
-0.000238277
0.000699685
-0.000245635
0.000745509
-0.00025265
0.000792734
-0.000259217
0.000841273
-0.000265214
0.000891005
-0.0002705
0.000941776
-0.000274901
0.000993394
-0.000278246
-0.000280526
0.00104569
3.28236e-07
-3.45619e-06
1.56472e-06
-1.31778e-05
3.79118e-06
-2.28111e-05
7.10004e-06
-3.23429e-05
1.15819e-05
-4.17119e-05
1.73135e-05
-5.08891e-05
2.43529e-05
-5.98657e-05
3.27389e-05
-6.86508e-05
4.2494e-05
-7.72679e-05
5.36288e-05
-8.57489e-05
6.61465e-05
-9.41299e-05
8.00469e-05
-0.000102448
9.53292e-05
-0.000110737
0.000111994
-0.00011903
0.000130045
-0.000127356
0.000149489
-0.000135738
0.000170335
-0.000144198
0.000192599
-0.000152753
0.000216296
-0.000161417
0.000241447
-0.0001702
0.000268073
-0.00017911
0.0002962
-0.000188149
0.000325852
-0.000197316
0.000357057
-0.000206607
0.000389842
-0.000216011
0.000424233
-0.000225512
0.000460254
-0.000235087
0.000497929
-0.000244707
0.000537273
-0.000254331
0.0005783
-0.000263909
0.000621013
-0.00027338
0.000665404
-0.000282669
0.000711453
-0.000291684
0.000759122
-0.000300319
0.000808353
-0.000308448
0.000859063
-0.000315923
0.000911136
-0.000322573
0.000964415
-0.000328181
0.00101871
-0.000332539
-0.000335675
0.00107386
3.4451e-07
-3.8007e-06
1.6131e-06
-1.44464e-05
3.86135e-06
-2.50594e-05
7.16005e-06
-3.56416e-05
1.15854e-05
-4.61373e-05
1.72107e-05
-5.65143e-05
2.41e-05
-6.6755e-05
3.23051e-05
-7.6856e-05
4.1865e-05
-8.68278e-05
5.28072e-05
-9.66912e-05
6.51509e-05
-0.000106474
7.89092e-05
-0.000116206
9.40921e-05
-0.00012592
0.000110708
-0.000135647
0.000128768
-0.000145415
0.000148282
-0.000155252
0.000169263
-0.00016518
0.000191728
-0.000175219
0.000215697
-0.000185386
0.000241189
-0.000195693
0.000268231
-0.000206151
0.000296848
-0.000216765
0.000327068
-0.000227536
0.000358922
-0.000238461
0.00039244
-0.000249529
0.000427654
-0.000260726
0.000464594
-0.000272027
0.000503289
-0.000283401
0.000543763
-0.000294805
0.000586038
-0.000306183
0.000630125
-0.000317467
0.000676029
-0.000328572
0.000723738
-0.000339393
0.000773225
-0.000349806
0.00082444
-0.000359664
0.000877309
-0.000368792
0.000931723
-0.000376986
0.000987526
-0.000383984
0.00104452
-0.000389534
-0.000393719
0.00110256
3.5813e-07
-4.15883e-06
1.65666e-06
-1.57449e-05
3.93512e-06
-2.73378e-05
7.24947e-06
-3.89559e-05
1.16632e-05
-5.05511e-05
1.72428e-05
-6.2094e-05
2.40523e-05
-7.35645e-05
3.21493e-05
-8.49529e-05
4.15826e-05
-9.62611e-05
5.23922e-05
-0.000107501
6.46101e-05
-0.000118691
7.82616e-05
-0.000129857
9.33677e-05
-0.000141026
0.000109946
-0.000152225
0.000128014
-0.000163483
0.000147589
-0.000174826
0.000168687
-0.000186278
0.000191329
-0.000197861
0.000215537
-0.000209593
0.000241333
-0.00022149
0.000268745
-0.000233563
0.0002978
-0.000245821
0.00032853
-0.000258266
0.000360967
-0.000270898
0.000395146
-0.000283708
0.000431102
-0.000296682
0.00046887
-0.000309796
0.000508487
-0.000323018
0.000549984
-0.000336303
0.000593392
-0.000349592
0.000638734
-0.00036281
0.000686025
-0.000375862
0.000735265
-0.000388634
0.000786441
-0.000400982
0.000839515
-0.000412737
0.000894423
-0.0004237
0.000951065
-0.000433628
0.00100929
-0.000442208
0.0010689
-0.000449142
-0.000454585
0.00112976
3.67251e-07
-4.52608e-06
1.68491e-06
-1.70626e-05
3.98367e-06
-2.96366e-05
7.31078e-06
-4.2283e-05
1.17209e-05
-5.49611e-05
1.72741e-05
-6.76472e-05
2.40322e-05
-8.03226e-05
3.20545e-05
-9.29752e-05
4.13953e-05
-0.000105602
5.21028e-05
-0.000118208
6.42184e-05
-0.000130807
7.77776e-05
-0.000143417
9.28108e-05
-0.000156059
0.000109345
-0.000168759
0.000127404
-0.000181542
0.00014701
-0.000194433
0.000168188
-0.000207455
0.000190959
-0.000220632
0.000215348
-0.000233982
0.000241382
-0.000247523
0.000269088
-0.000261269
0.000298496
-0.000275229
0.000329639
-0.000289409
0.000362552
-0.000303811
0.000397271
-0.000318427
0.000433836
-0.000333246
0.000472287
-0.000348246
0.000512664
-0.000363395
0.00055501
-0.000378648
0.000599362
-0.000393944
0.000645756
-0.000409203
0.000694218
-0.000424325
0.000744767
-0.000439182
0.000797401
-0.000453616
0.0008521
-0.000467437
0.000908815
-0.000480415
0.000967457
-0.00049227
0.00102788
-0.000502634
0.0010899
-0.000511156
-0.000518076
0.00115339
3.70165e-07
-4.89625e-06
1.68914e-06
-1.83815e-05
3.98462e-06
-3.19321e-05
7.30049e-06
-4.55989e-05
1.16866e-05
-5.93473e-05
1.71993e-05
-7.31599e-05
2.3898e-05
-8.70213e-05
3.18423e-05
-0.000100919
4.10895e-05
-0.000114849
5.16926e-05
-0.000128811
6.36999e-05
-0.000142814
7.71543e-05
-0.000156871
9.20941e-05
-0.000170999
0.000108553
-0.000185218
0.000126563
-0.000199552
0.000146151
-0.000214021
0.000167346
-0.00022865
0.000190175
-0.00024346
0.000214663
-0.000258471
0.00024084
-0.0002737
0.000268735
-0.000289164
0.000298378
-0.000304872
0.000329803
-0.000320834
0.000363046
-0.000337053
0.000398144
-0.000353525
0.000435138
-0.000370241
0.000474073
-0.000387181
0.000514994
-0.000404317
0.000557949
-0.000421603
0.000602986
-0.000438981
0.000650151
-0.000456368
0.000699487
-0.000473661
0.000751026
-0.000490722
0.000804789
-0.000507379
0.000860775
-0.000523422
0.000918953
-0.000538593
0.000979255
-0.000552572
0.00104155
-0.000564927
0.00110564
-0.00057525
-0.000583877
0.00117144
3.65125e-07
-5.26137e-06
1.66135e-06
-1.96778e-05
3.91871e-06
-3.41894e-05
7.18258e-06
-4.88628e-05
1.15023e-05
-6.3667e-05
1.69331e-05
-7.85907e-05
2.35338e-05
-9.3622e-05
3.13643e-05
-0.00010875
4.04834e-05
-0.000123968
5.09475e-05
-0.000139276
6.28094e-05
-0.000154676
7.61174e-05
-0.000170179
9.09155e-05
-0.000185797
0.000107244
-0.000201547
0.000125138
-0.000217446
0.000144633
-0.000233516
0.00016576
-0.000249777
0.000188548
-0.000266248
0.000213027
-0.00028295
0.000239226
-0.0002999
0.000267176
-0.000317113
0.000296906
-0.000334603
0.00032845
-0.000352379
0.000361843
-0.000370446
0.000397122
-0.000388804
0.000434329
-0.000407448
0.000473508
-0.00042636
0.000514707
-0.000445516
0.000557979
-0.000464875
0.000603381
-0.000484382
0.000650968
-0.000503956
0.0007008
-0.000523492
0.000752928
-0.00054285
0.000807396
-0.000561847
0.000864228
-0.000580254
0.000923422
-0.000597787
0.000984934
-0.000614084
0.00104865
-0.000628646
0.0011144
-0.000640995
-0.000651572
0.00118209
3.50267e-07
-5.61164e-06
1.59367e-06
-2.09212e-05
3.76808e-06
-3.63638e-05
6.92518e-06
-5.20199e-05
1.11179e-05
-6.78597e-05
1.64036e-05
-8.38764e-05
2.28424e-05
-0.000100061
3.04952e-05
-0.000116403
3.94227e-05
-0.000132896
4.96833e-05
-0.000149536
6.13328e-05
-0.000166326
7.44233e-05
-0.00018327
8.9003e-05
-0.000200377
0.000105116
-0.00021766
0.000122804
-0.000235134
0.000142103
-0.000252816
0.000163049
-0.000270723
0.000185674
-0.000288873
0.000210008
-0.000307285
0.000236082
-0.000325974
0.000263926
-0.000344957
0.00029357
-0.000364246
0.000325043
-0.000383852
0.00035838
-0.000403783
0.000393615
-0.000424039
0.000430786
-0.000444619
0.000469936
-0.00046551
0.000511113
-0.000486693
0.000554372
-0.000508134
0.000599772
-0.000529782
0.00064738
-0.000551564
0.000697267
-0.00057338
0.000749508
-0.00059509
0.000804172
-0.00061651
0.000861316
-0.000637398
0.000920976
-0.000657447
0.000983146
-0.000676255
0.00104775
-0.000693248
0.00111462
-0.000707865
-0.000720656
0.0011837
3.23481e-07
-5.93512e-06
1.47786e-06
-2.20755e-05
3.51518e-06
-3.84012e-05
6.49852e-06
-5.50032e-05
1.04886e-05
-7.18498e-05
1.55482e-05
-8.8936e-05
2.17406e-05
-0.000106253
2.91294e-05
-0.000123792
3.77767e-05
-0.000141543
4.77432e-05
-0.000159503
5.90864e-05
-0.000177669
7.18613e-05
-0.000196044
8.61187e-05
-0.000214634
0.000101906
-0.000233447
0.000119267
-0.000252495
0.000138242
-0.000271791
0.000158869
-0.000291349
0.00018118
-0.000311185
0.00020521
-0.000331314
0.000230987
-0.000351751
0.00025854
-0.00037251
0.000287898
-0.000393604
0.000319089
-0.000415043
0.00035214
-0.000436834
0.000387084
-0.000458983
0.000423952
-0.000481487
0.000462783
-0.000504341
0.000503619
-0.000527529
0.000546511
-0.000551026
0.000591519
-0.00057479
0.000638713
-0.000598759
0.000688177
-0.000622843
0.000740001
-0.000646915
0.000794285
-0.000670794
0.000851125
-0.000694239
0.000910607
-0.00071693
0.000972781
-0.000738428
0.00103762
-0.000758086
0.001105
-0.000775244
-0.000790548
0.00117489
2.81962e-07
-6.21708e-06
1.30456e-06
-2.30981e-05
3.14182e-06
-4.02384e-05
5.87376e-06
-5.77352e-05
9.57359e-06
-7.55497e-05
1.43123e-05
-9.36747e-05
2.01586e-05
-0.000112099
2.7179e-05
-0.000130812
3.54382e-05
-0.000149802
4.49983e-05
-0.000169063
5.59187e-05
-0.000188589
6.82556e-05
-0.000208381
8.20619e-05
-0.000228441
9.7387e-05
-0.000248772
0.000114277
-0.000269385
0.000132773
-0.000290287
0.000152915
-0.000311491
0.000174739
-0.000333008
0.000198277
-0.000354852
0.000223559
-0.000377033
0.000250613
-0.000399564
0.000279465
-0.000422456
0.000310139
-0.000445717
0.00034266
-0.000469356
0.000377052
-0.000493375
0.000413341
-0.000517775
0.000451555
-0.000542555
0.000491728
-0.000567702
0.000533901
-0.0005932
0.000578128
-0.000619017
0.000624475
-0.000645106
0.000673026
-0.000671394
0.000723884
-0.000697773
0.000777174
-0.000724084
0.000833037
-0.000750101
0.000891617
-0.000775509
0.000953042
-0.000799853
0.00101737
-0.000822413
0.00108454
-0.000842418
-0.000860593
0.00115459
2.21726e-07
-6.43881e-06
1.06259e-06
-2.3939e-05
2.62876e-06
-4.18046e-05
5.02328e-06
-6.01297e-05
8.33684e-06
-7.88632e-05
1.26515e-05
-9.79894e-05
1.80415e-05
-0.000117489
2.45773e-05
-0.000137348
3.23263e-05
-0.000157551
4.1352e-05
-0.000178088
5.17147e-05
-0.000198952
6.34715e-05
-0.000220138
7.66766e-05
-0.000241646
9.13803e-05
-0.000263476
0.00010763
-0.000285634
0.000125469
-0.000308126
0.000144938
-0.00033096
0.000166073
-0.000354143
0.000188907
-0.000377686
0.000213472
-0.000401597
0.000239793
-0.000425886
0.000267896
-0.000450559
0.000297802
-0.000475623
0.00032953
-0.000501083
0.000363098
-0.000526943
0.000398525
-0.000553202
0.000435828
-0.000579858
0.000475028
-0.000606903
0.000516154
-0.000634325
0.000559241
-0.000662104
0.000604341
-0.000690206
0.000651527
-0.00071858
0.000700901
-0.000747147
0.000752599
-0.000775782
0.000806794
-0.000804297
0.000863698
-0.000832413
0.000923538
-0.000859693
0.000986499
-0.000885374
0.00105265
-0.000908571
-0.000930059
0.00112212
1.32305e-07
-6.57111e-06
7.32568e-07
-2.45393e-05
1.94858e-06
-4.30206e-05
3.91306e-06
-6.20942e-05
6.73995e-06
-8.16901e-05
1.05239e-05
-0.000101773
1.53433e-05
-0.000122309
2.12723e-05
-0.000143277
2.83806e-05
-0.000164659
3.6733e-05
-0.000186441
4.63903e-05
-0.000208609
5.74099e-05
-0.000231158
6.98465e-05
-0.000254082
8.37511e-05
-0.000277381
9.91717e-05
-0.000301055
0.000116153
-0.000325107
0.000134736
-0.000349543
0.000154958
-0.000374366
0.000176853
-0.000399582
0.000200453
-0.000425197
0.000225785
-0.000451217
0.000252871
-0.000477645
0.000281732
-0.000504484
0.000312386
-0.000531737
0.000344844
-0.000559402
0.00037912
-0.000587477
0.000415221
-0.000615959
0.000453156
-0.000644838
0.000492936
-0.000674105
0.000534577
-0.000703744
0.000578104
-0.000733734
0.000623565
-0.000764041
0.000671036
-0.000794618
0.000720638
-0.000825383
0.000772551
-0.000856209
0.000827031
-0.000886894
0.000884411
-0.000917073
0.000945047
-0.00094601
0.00100922
-0.000972747
-0.000998095
0.00107726
-5.77359e-09
-6.56534e-06
2.69115e-07
-2.48142e-05
1.05746e-06
-4.38089e-05
2.49387e-06
-6.35306e-05
4.73503e-06
-8.39313e-05
7.88384e-06
-0.000104922
1.20208e-05
-0.000126446
1.72207e-05
-0.000148477
2.35559e-05
-0.000170995
3.10915e-05
-0.000193976
3.98883e-05
-0.000217406
5.00038e-05
-0.000241273
6.14926e-05
-0.000265571
7.44062e-05
-0.000290294
8.87928e-05
-0.000315442
0.000104698
-0.000341012
0.000122163
-0.000367008
0.000141227
-0.00039343
0.000161925
-0.00042028
0.000184289
-0.000447561
0.000208347
-0.000475275
0.000234124
-0.000503421
0.000261639
-0.000532
0.000290911
-0.000561008
0.000321951
-0.000590442
0.000354768
-0.000620295
0.000389367
-0.000650558
0.000425749
-0.00068122
0.000463911
-0.000712267
0.00050385
-0.000743684
0.000545567
-0.000775451
0.000589072
-0.000807546
0.000634394
-0.00083994
0.000681605
-0.000872593
0.000730838
-0.000905443
0.000782334
-0.00093839
0.000836476
-0.000971214
0.00089378
-0.00100331
0.000954844
-0.00103381
-0.00106374
0.00102049
-1.75753e-07
-6.38959e-06
-2.95689e-07
-2.46942e-05
-3.93013e-08
-4.40653e-05
8.40281e-07
-6.44102e-05
2.42383e-06
-8.55148e-05
4.87426e-06
-0.000107373
8.23576e-06
-0.000129807
1.25939e-05
-0.000152835
1.8027e-05
-0.000176428
2.46008e-05
-0.00020055
3.23766e-05
-0.000225182
4.14126e-05
-0.000250309
5.17634e-05
-0.000275922
6.34807e-05
-0.000302012
7.66133e-05
-0.000328574
9.12067e-05
-0.000355606
0.000107304
-0.000383105
0.000124944
-0.00041107
0.000144163
-0.0004395
0.000164995
-0.000468393
0.00018747
-0.000497749
0.000211613
-0.000527565
0.000237448
-0.000557835
0.000264995
-0.000588555
0.000294269
-0.000619716
0.000325282
-0.000651308
0.000358041
-0.000683316
0.000392548
-0.000715727
0.000428801
-0.00074852
0.000466792
-0.000781675
0.000506508
-0.000815167
0.000547934
-0.000848972
0.000591057
-0.000883063
0.000635878
-0.000917415
0.000682437
-0.000952002
0.00073086
-0.000986813
0.000781427
-0.00102178
0.000834659
-0.00105655
0.000891513
-0.00109066
-0.00112628
0.000954059
-3.8632e-07
-6.00327e-06
-9.47198e-07
-2.41333e-05
-1.15407e-06
-4.38585e-05
-8.80907e-07
-6.46833e-05
4.84257e-08
-8.64441e-05
1.63536e-06
-0.00010896
4.08863e-06
-0.000132261
7.47773e-06
-0.000156224
1.1867e-05
-0.000180817
1.73224e-05
-0.000206006
2.39061e-05
-0.000231766
3.16763e-05
-0.00025808
4.06877e-05
-0.000284933
5.0992e-05
-0.000312316
6.26382e-05
-0.00034022
7.56719e-05
-0.00036864
9.01362e-05
-0.000397569
0.000106071
-0.000427005
0.000123514
-0.000456942
0.000142499
-0.000487379
0.000163058
-0.000518308
0.00018522
-0.000549726
0.00020901
-0.000581626
0.000234452
-0.000613998
0.000261568
-0.000646832
0.000290375
-0.000680115
0.00032089
-0.000713832
0.000353127
-0.000747963
0.000387096
-0.000782489
0.000422805
-0.000817384
0.000460259
-0.000852621
0.000499458
-0.00088817
0.000540395
-0.000924001
0.000583062
-0.000960082
0.00062745
-0.00099639
0.00067357
-0.00103293
0.000721507
-0.00106972
0.000771508
-0.00110655
0.000824226
-0.00114338
-0.00118277
0.000880709
1.79446e-06
-7.79773e-06
4.78872e-06
-2.71276e-05
8.54548e-06
-4.76152e-05
1.30007e-05
-6.91386e-05
1.81737e-05
-9.16172e-05
2.41794e-05
-0.000114965
3.10348e-05
-0.000139116
3.88268e-05
-0.000164016
4.76256e-05
-0.000189616
5.74988e-05
-0.000215879
6.85095e-05
-0.000242776
8.07168e-05
-0.000270287
9.4176e-05
-0.000298392
0.000108939
-0.000327079
0.000125055
-0.000356336
0.000142569
-0.000386154
0.000161524
-0.000416524
0.000181959
-0.00044744
0.000203912
-0.000478895
0.000227415
-0.000510882
0.0002525
-0.000543394
0.000279196
-0.000576422
0.000307529
-0.000609958
0.000337522
-0.000643991
0.000369198
-0.000678508
0.000402579
-0.000713496
0.000437686
-0.000748939
0.000474541
-0.000784818
0.000513169
-0.000821117
0.000553598
-0.000857813
0.000595865
-0.000894888
0.00064002
-0.000932325
0.000686132
-0.000970113
0.000734302
-0.00100825
0.000784687
-0.00104677
0.000837522
-0.00108577
0.0008932
-0.0011254
0.000952602
-0.00116595
0.00101757
-0.00120836
-0.00125537
0.00109018
9.71279e-07
-8.76901e-06
3.45805e-06
-2.96144e-05
7.08913e-06
-5.12463e-05
1.16883e-05
-7.37377e-05
1.71858e-05
-9.71147e-05
2.3575e-05
-0.000121354
3.08812e-05
-0.000146422
3.91454e-05
-0.00017228
4.84197e-05
-0.00019889
5.876e-05
-0.000226219
7.02224e-05
-0.000254239
8.28616e-05
-0.000282926
9.67298e-05
-0.000312261
0.000111877
-0.000342226
0.00012835
-0.000372809
0.000146193
-0.000403997
0.000165448
-0.000435779
0.000186152
-0.000468144
0.000208342
-0.000501085
0.000232051
-0.00053459
0.000257308
-0.000568651
0.000284142
-0.000603256
0.000312578
-0.000638394
0.000342641
-0.000674054
0.000374354
-0.000710221
0.000407739
-0.000746881
0.00044282
-0.000784019
0.00047962
-0.000821619
0.00051817
-0.000859666
0.000558502
-0.000898146
0.000600662
-0.000937048
0.000644706
-0.000976369
0.000690711
-0.00101612
0.000738782
-0.00105632
0.000789056
-0.00109705
0.000841705
-0.00113842
0.000896939
-0.00118063
0.000955034
-0.00122405
0.00101603
-0.00126935
-0.00131761
0.00107827
7.51449e-07
-9.52046e-06
2.87209e-06
-3.1735e-05
6.24138e-06
-5.46156e-05
1.07415e-05
-7.82378e-05
1.62906e-05
-0.000102664
2.28492e-05
-0.000127913
3.04083e-05
-0.000153981
3.89809e-05
-0.000180853
4.85957e-05
-0.000208505
5.92909e-05
-0.000236914
7.11094e-05
-0.000266057
8.40963e-05
-0.000295913
9.82969e-05
-0.000326461
0.000113756
-0.000357685
0.000130515
-0.000389569
0.000148616
-0.000422098
0.000168097
-0.000455259
0.000188993
-0.000489041
0.000211338
-0.00052343
0.000235161
-0.000558414
0.000260491
-0.000593981
0.000287354
-0.000630119
0.000315772
-0.000666812
0.000345766
-0.000704048
0.000377358
-0.000741812
0.000410565
-0.000780088
0.000445406
-0.00081886
0.000481902
-0.000858115
0.000520073
-0.000897837
0.000559943
-0.000938016
0.000601542
-0.000978646
0.000644902
-0.00101973
0.000690065
-0.00106128
0.000737074
-0.00110333
0.000785972
-0.00114595
0.000836783
-0.00118923
0.000889491
-0.00123334
0.000943982
-0.00127854
0.000999821
-0.00132519
-0.00137351
0.00105571
7.07535e-07
-1.0228e-05
2.65818e-06
-3.36857e-05
5.83394e-06
-5.77914e-05
1.01891e-05
-8.2593e-05
1.56738e-05
-0.000108149
2.22522e-05
-0.000134491
2.99055e-05
-0.000161635
3.86318e-05
-0.000189579
4.8443e-05
-0.000218316
5.93616e-05
-0.000247833
7.14167e-05
-0.000278113
8.46421e-05
-0.000309138
9.90737e-05
-0.000340893
0.000114748
-0.00037336
0.000131702
-0.000406522
0.00014997
-0.000440366
0.000169586
-0.000474875
0.000190581
-0.000510036
0.000212984
-0.000545832
0.000236821
-0.000582251
0.000262115
-0.000619276
0.000288889
-0.000656892
0.000317159
-0.000695083
0.000346944
-0.000733833
0.000378256
-0.000773124
0.000411108
-0.00081294
0.00044551
-0.000853263
0.000481473
-0.000894077
0.000519003
-0.000935367
0.000558109
-0.000977122
0.000598796
-0.00101933
0.000641066
-0.001062
0.000684919
-0.00110513
0.00073034
-0.00114875
0.000777296
-0.0011929
0.000825715
-0.00123765
0.000875465
-0.00128309
0.000926305
-0.00132937
0.000977788
-0.00137668
-0.00142485
0.00102914
6.86709e-07
-1.09147e-05
2.54811e-06
-3.55471e-05
5.59697e-06
-6.08402e-05
9.82443e-06
-8.68204e-05
1.521e-05
-0.000113534
2.17333e-05
-0.000141015
2.93801e-05
-0.000169281
3.8145e-05
-0.000198344
4.80322e-05
-0.000228203
5.90538e-05
-0.000258854
7.12286e-05
-0.000290287
8.45804e-05
-0.00032249
9.91357e-05
-0.000355448
0.000114923
-0.000389147
0.000131971
-0.00042357
0.000150308
-0.000458703
0.000169961
-0.000494528
0.000190956
-0.00053103
0.000213315
-0.000568192
0.000237061
-0.000605996
0.00026221
-0.000644425
0.000288779
-0.000683461
0.000316779
-0.000723083
0.000346221
-0.000763275
0.000377111
-0.000804014
0.000409452
-0.000845281
0.000443245
-0.000887056
0.000478487
-0.00092932
0.000515173
-0.000972053
0.000553293
-0.00101524
0.000592829
-0.00105887
0.000633758
-0.00110293
0.000676047
-0.00114742
0.000719644
-0.00119235
0.000764472
-0.00123773
0.000810419
-0.00128359
0.000857318
-0.00132999
0.000904926
-0.00137698
0.000952884
-0.00142464
-0.00147268
0.00100071
6.75942e-07
-1.15906e-05
2.48406e-06
-3.73552e-05
5.44502e-06
-6.38012e-05
9.56679e-06
-9.09422e-05
1.48474e-05
-0.000118815
2.12806e-05
-0.000147448
2.88604e-05
-0.000176861
3.75843e-05
-0.000207068
4.74547e-05
-0.000238074
5.84789e-05
-0.000269879
7.06692e-05
-0.000302478
8.40418e-05
-0.000335863
9.86156e-05
-0.000370022
0.000114411
-0.000404942
0.00013145
-0.000440609
0.000149754
-0.000477006
0.000169342
-0.000514117
0.000190235
-0.000551923
0.000212448
-0.000590405
0.000235997
-0.000629545
0.000260893
-0.000669321
0.000287144
-0.000709712
0.000314757
-0.000750697
0.000343734
-0.000792251
0.000374073
-0.000834353
0.000405769
-0.000876977
0.000438811
-0.000920099
0.000473188
-0.000963696
0.000508878
-0.00100774
0.000545857
-0.00105222
0.000584092
-0.0010971
0.000623541
-0.00114238
0.000664149
-0.00118803
0.000705844
-0.00123404
0.000748531
-0.00128042
0.000792088
-0.00132715
0.000836351
-0.00137425
0.000881107
-0.00142174
0.000926082
-0.00146961
-0.00151755
0.000970951
6.68134e-07
-1.22588e-05
2.43718e-06
-3.91242e-05
5.32895e-06
-6.66929e-05
9.35853e-06
-9.49718e-05
1.45341e-05
-0.00012399
2.0859e-05
-0.000153773
2.83349e-05
-0.000184337
3.69636e-05
-0.000215697
4.67486e-05
-0.000247859
5.7696e-05
-0.000280826
6.98145e-05
-0.000314596
8.31153e-05
-0.000349163
9.76117e-05
-0.000384518
0.000113318
-0.000420649
0.000130249
-0.00045754
0.000148419
-0.000495177
0.000167843
-0.000533541
0.000188532
-0.000572612
0.000210497
-0.00061237
0.000233746
-0.000652794
0.000258284
-0.000693859
0.000284112
-0.00073554
0.000311229
-0.000777814
0.00033963
-0.000820652
0.000369305
-0.000864027
0.00040024
-0.000907912
0.000432417
-0.000952276
0.000465811
-0.00099709
0.000500393
-0.00104233
0.000536127
-0.00108795
0.000572967
-0.00113394
0.000610859
-0.00118027
0.000649737
-0.00122691
0.000689521
-0.00127383
0.000730112
-0.00132101
0.000771389
-0.00136843
0.000813205
-0.00141607
0.00085538
-0.00146391
0.000897699
-0.00151193
-0.00155979
0.00093994
6.59053e-07
-1.29178e-05
2.39237e-06
-4.08575e-05
5.2211e-06
-6.95217e-05
9.16301e-06
-9.89137e-05
1.42312e-05
-0.000129059
2.04351e-05
-0.000159977
2.77816e-05
-0.000191684
3.62762e-05
-0.000224191
4.59245e-05
-0.000257507
5.67328e-05
-0.000291634
6.87082e-05
-0.000326572
8.1859e-05
-0.000362314
9.61941e-05
-0.000398853
0.000111723
-0.000436178
0.000128455
-0.000474273
0.0001464
-0.000513121
0.000165564
-0.000552705
0.000185954
-0.000593002
0.000207574
-0.00063399
0.000230425
-0.000675645
0.000254506
-0.000717939
0.000279811
-0.000760846
0.000306332
-0.000804335
0.000334057
-0.000848377
0.000362968
-0.000892938
0.000393043
-0.000937987
0.000424257
-0.000983489
0.000456577
-0.00102941
0.000489964
-0.00107571
0.000524375
-0.00112236
0.000559755
-0.00116933
0.000596045
-0.00121656
0.000633173
-0.00126404
0.000671056
-0.00131171
0.000709596
-0.00135955
0.000748682
-0.00140751
0.000788183
-0.00145557
0.000827949
-0.00150368
0.000867807
-0.00155179
-0.00159958
0.000907597
6.47552e-07
-1.35654e-05
2.34356e-06
-4.25535e-05
5.10828e-06
-7.22864e-05
8.96033e-06
-0.000102766
1.39152e-05
-0.000134013
1.99855e-05
-0.000166047
2.71814e-05
-0.000198879
3.55112e-05
-0.000232521
4.49825e-05
-0.000266978
5.56018e-05
-0.000302254
6.73758e-05
-0.000338346
8.03107e-05
-0.000375249
9.44127e-05
-0.000412955
0.000109688
-0.000451452
0.00012614
-0.000490725
0.000143775
-0.000530756
0.000162593
-0.000571523
0.000182596
-0.000613005
0.000203781
-0.000655175
0.000226143
-0.000698007
0.000249676
-0.000741471
0.000274366
-0.000785536
0.0003002
-0.000830169
0.000327157
-0.000875334
0.000355214
-0.000920996
0.000384343
-0.000967116
0.00041451
-0.00101366
0.000445677
-0.00106058
0.000477798
-0.00110783
0.000510823
-0.00115539
0.000544695
-0.0012032
0.000579349
-0.00125121
0.00061471
-0.0012994
0.000650698
-0.0013477
0.000687219
-0.00139607
0.00072417
-0.00144447
0.000761438
-0.00149283
0.000798892
-0.00154113
0.000836394
-0.00158929
-0.001637
0.000873823
6.33174e-07
-1.41986e-05
2.28795e-06
-4.42083e-05
4.98384e-06
-7.49823e-05
8.73964e-06
-0.000106522
1.35719e-05
-0.000138846
1.94948e-05
-0.00017197
2.65205e-05
-0.000205905
3.46592e-05