/*--------------------------------*- C++ -*----------------------------------*\
  =========                 |
  \\      /  F ield         | OpenFOAM: The Open Source CFD Toolbox
   \\    /   O peration     | Website:  https://openfoam.org
    \\  /    A nd           | Version:  7
     \\/     M anipulation  |
\*---------------------------------------------------------------------------*/
FoamFile
{
    version     2.0;
    format      ascii;
    class       volVectorField;
    location    "3";
    object      U;
}
// * * * * * * * * * * * * * * * * * * * * * * * * * * * * * * * * * * * * * //

dimensions      [0 1 -1 0 0 0 0];

internalField   nonuniform List<vector> 
12000
(
(0.00148773 -0.00132916 -1.08522e-21)
(0.00662324 -0.00304613 -8.16161e-21)
(0.012807 -0.00367152 -3.39843e-21)
(0.0197364 -0.00394784 -4.50182e-21)
(0.0271449 -0.00414504 1.82774e-21)
(0.0348984 -0.00432486 -5.58758e-21)
(0.0429119 -0.00449957 8.28092e-21)
(0.0511206 -0.00467142 9.16399e-21)
(0.0594758 -0.0048391 -1.16853e-20)
(0.0679411 -0.00500058 6.80302e-21)
(0.0764887 -0.00515448 -1.16974e-21)
(0.0850966 -0.00530016 -7.68645e-21)
(0.0937474 -0.00543751 -7.00632e-21)
(0.102427 -0.00556669 4.46432e-21)
(0.111123 -0.00568798 1.46126e-20)
(0.119825 -0.00580172 -6.9781e-21)
(0.128527 -0.00590818 -3.34026e-22)
(0.13722 -0.0060076 5.57408e-21)
(0.145898 -0.00610009 -1.26133e-20)
(0.154555 -0.00618568 7.74925e-21)
(0.163185 -0.00626427 -3.27749e-21)
(0.171784 -0.00633562 -2.89715e-21)
(0.180344 -0.00639935 9.08796e-21)
(0.18886 -0.00645492 1.47757e-21)
(0.197324 -0.00650163 -6.85529e-21)
(0.20573 -0.00653859 -3.63936e-21)
(0.214067 -0.00656473 8.97449e-22)
(0.222326 -0.00657876 7.18066e-21)
(0.230495 -0.0065792 -1.61351e-21)
(0.23856 -0.00656431 1.40531e-21)
(0.246507 -0.00653216 -1.23341e-21)
(0.254317 -0.00648056 4.27368e-21)
(0.261971 -0.00640711 -8.02948e-21)
(0.269447 -0.00630915 3.29849e-21)
(0.276718 -0.00618384 -2.43484e-21)
(0.283757 -0.00602831 5.47344e-21)
(0.290532 -0.00583969 -4.57185e-21)
(0.297015 -0.00561366 5.03704e-21)
(0.303186 -0.00534285 -4.30239e-21)
(0.308934 -0.00503069 1.15496e-21)
(0.00217209 -0.00223547 3.54268e-21)
(0.00852896 -0.00623926 -1.30704e-20)
(0.0149946 -0.00887216 -7.11929e-22)
(0.0219266 -0.0105827 -8.00673e-21)
(0.0292854 -0.011785 1.5989e-20)
(0.037 -0.0126984 -7.38246e-21)
(0.0450016 -0.0134371 9.84572e-22)
(0.0532257 -0.014065 -1.13264e-21)
(0.0616181 -0.0146173 -2.7876e-21)
(0.0701364 -0.0151136 4.80719e-21)
(0.0787479 -0.0155654 9.35838e-21)
(0.0874271 -0.01598 -2.95452e-21)
(0.0961544 -0.0163624 -8.8684e-21)
(0.104914 -0.0167165 -1.64278e-21)
(0.113694 -0.0170451 -4.69359e-21)
(0.122483 -0.0173506 3.35877e-21)
(0.131274 -0.0176348 1.13955e-20)
(0.140058 -0.017899 -5.67435e-21)
(0.14883 -0.0181442 2.38422e-21)
(0.157583 -0.0183707 -9.47757e-22)
(0.166312 -0.0185785 5.57324e-21)
(0.175012 -0.0187671 -1.1849e-20)
(0.183675 -0.0189355 1.18302e-21)
(0.192296 -0.0190821 6.66604e-21)
(0.200868 -0.019205 -8.77778e-21)
(0.209383 -0.0193014 1.17467e-20)
(0.217831 -0.0193682 -1.01867e-20)
(0.226202 -0.0194015 8.15597e-21)
(0.234484 -0.0193967 -2.52869e-21)
(0.242664 -0.0193487 1.21304e-21)
(0.250725 -0.0192514 3.72594e-21)
(0.258648 -0.0190984 -3.69125e-22)
(0.266415 -0.0188821 -5.77041e-21)
(0.274 -0.0185944 -2.65858e-21)
(0.281378 -0.0182267 6.95755e-21)
(0.288518 -0.0177698 5.19876e-22)
(0.295387 -0.0172146 -3.56294e-21)
(0.301958 -0.0165497 2.60057e-21)
(0.308211 -0.0157585 -4.92949e-22)
(0.314018 -0.0148459 -1.61635e-21)
(0.0026833 -0.00210436 1.74238e-20)
(0.0103576 -0.0071781 -1.38697e-20)
(0.0177279 -0.0112593 9.19784e-22)
(0.0251701 -0.0143889 1.4862e-21)
(0.0328116 -0.0168048 6.40586e-21)
(0.0406945 -0.0187074 -1.28517e-20)
(0.0488158 -0.0202453 1.64738e-20)
(0.057147 -0.0215255 -5.8784e-21)
(0.065651 -0.0226211 -5.41328e-21)
(0.0742918 -0.0235807 -7.66572e-21)
(0.0830375 -0.0244361 -3.37179e-21)
(0.0918621 -0.025209 1.76137e-20)
(0.100744 -0.025914 -1.31039e-20)
(0.109666 -0.0265617 -3.94619e-21)
(0.118616 -0.0271596 2.08858e-20)
(0.12758 -0.0277135 -1.07667e-20)
(0.136552 -0.0282276 8.843e-21)
(0.145522 -0.0287052 -6.78363e-21)
(0.154484 -0.0291484 1.04443e-20)
(0.163432 -0.0295583 -1.26804e-20)
(0.172361 -0.0299355 2.19709e-21)
(0.181264 -0.0302795 -1.90551e-21)
(0.190135 -0.0305889 3.98152e-21)
(0.198968 -0.0308616 2.5821e-21)
(0.207755 -0.0310944 -5.06863e-21)
(0.216488 -0.0312832 -2.98101e-22)
(0.225157 -0.0314228 9.85803e-22)
(0.233752 -0.031507 3.25518e-21)
(0.24226 -0.0315284 -4.77392e-21)
(0.250666 -0.0314784 -8.88596e-22)
(0.258953 -0.0313471 1.90105e-21)
(0.267101 -0.0311235 -1.07363e-21)
(0.275089 -0.0307952 8.4333e-22)
(0.282891 -0.0303484 1.94141e-21)
(0.29048 -0.0297683 -1.90052e-21)
(0.297821 -0.0290391 4.16621e-21)
(0.304878 -0.0281449 -2.36375e-21)
(0.311623 -0.0270653 2.16994e-21)
(0.318042 -0.0257706 3.39376e-21)
(0.323966 -0.024266 -2.27465e-21)
(0.00315897 -0.00220628 2.10751e-21)
(0.0121216 -0.00791101 -1.68907e-20)
(0.0206272 -0.0129307 -3.06862e-21)
(0.0289478 -0.0171401 1.41435e-20)
(0.0372348 -0.0206258 -8.41026e-21)
(0.0455888 -0.023506 6.31851e-21)
(0.0540652 -0.0258988 -2.12501e-21)
(0.0626825 -0.0279107 3.78198e-21)
(0.0714365 -0.0296288 -5.81474e-21)
(0.0803117 -0.0311199 -4.04752e-21)
(0.0892884 -0.0324339 -1.15359e-20)
(0.0983465 -0.033607 1.00398e-20)
(0.107468 -0.0346658 1.42753e-20)
(0.116636 -0.03563 -1.45099e-20)
(0.125839 -0.0365137 1.7402e-20)
(0.135064 -0.0373279 -2.04048e-20)
(0.144303 -0.0380805 1.84649e-20)
(0.153547 -0.0387774 -1.35947e-22)
(0.16279 -0.0394229 -1.70899e-20)
(0.172025 -0.0400194 2.69437e-21)
(0.181247 -0.0405684 1.97495e-21)
(0.190448 -0.0410698 -3.66932e-21)
(0.199624 -0.0415223 5.01446e-21)
(0.208766 -0.0419233 3.12295e-21)
(0.217868 -0.0422687 -4.33183e-21)
(0.22692 -0.0425533 3.48262e-21)
(0.235912 -0.0427699 -6.10779e-22)
(0.244833 -0.0429103 -3.58888e-21)
(0.253669 -0.0429642 6.42005e-21)
(0.262403 -0.0429199 -4.12148e-21)
(0.271019 -0.0427635 4.44596e-21)
(0.279493 -0.0424795 -8.59955e-21)
(0.287803 -0.0420504 6.6513e-21)
(0.29592 -0.0414568 -1.69014e-21)
(0.303813 -0.0406772 -3.99438e-21)
(0.311444 -0.0396891 3.53207e-21)
(0.318772 -0.0384692 -6.69879e-21)
(0.325768 -0.0369865 9.80213e-21)
(0.332423 -0.0351938 -1.44134e-21)
(0.338521 -0.0331013 -3.4769e-21)
(0.00361569 -0.0022844 -3.75532e-21)
(0.0138375 -0.00837421 -3.85731e-22)
(0.0235616 -0.0139842 5.15567e-21)
(0.0329588 -0.0189575 4.84207e-21)
(0.0421515 -0.0232914 -8.7049e-22)
(0.0512484 -0.0270269 9.03893e-21)
(0.0603323 -0.0302308 3.91989e-21)
(0.0694553 -0.0329822 -1.53766e-20)
(0.0786447 -0.0353587 1.03686e-20)
(0.0879102 -0.037429 -6.69786e-21)
(0.0972505 -0.0392505 1.79989e-20)
(0.106659 -0.0408691 -8.42483e-21)
(0.116124 -0.0423211 -8.97582e-21)
(0.125637 -0.0436344 1.01228e-20)
(0.135186 -0.0448309 -1.84623e-20)
(0.144762 -0.0459269 -7.49766e-21)
(0.154358 -0.0469351 1.09137e-20)
(0.163966 -0.0478651 -8.99157e-21)
(0.173578 -0.0487238 1.58251e-20)
(0.18319 -0.0495158 -5.67408e-21)
(0.192794 -0.0502439 -2.39732e-21)
(0.202385 -0.0509089 2.67617e-21)
(0.211956 -0.05151 1.19739e-21)
(0.2215 -0.0520445 1.48337e-21)
(0.231008 -0.0525079 -5.98506e-22)
(0.240473 -0.0528938 -3.57936e-21)
(0.249882 -0.0531938 6.93015e-21)
(0.259223 -0.0533975 -3.90037e-21)
(0.268481 -0.0534921 -7.37677e-21)
(0.277639 -0.0534627 5.43254e-21)
(0.286676 -0.0532918 -9.83345e-22)
(0.295569 -0.0529593 5.13587e-21)
(0.304291 -0.0524426 -5.25092e-21)
(0.312811 -0.0517163 -1.32512e-21)
(0.321093 -0.0507522 3.58546e-21)
(0.329094 -0.0495206 -9.26898e-21)
(0.336766 -0.0479902 5.13961e-21)
(0.344079 -0.046118 -4.29718e-21)
(0.351035 -0.0438345 9.32275e-21)
(0.357353 -0.0411627 -5.10524e-21)
(0.00407553 -0.00234522 9.59388e-21)
(0.0155508 -0.00867111 -1.30091e-20)
(0.0265269 -0.0146521 7.82885e-22)
(0.0371034 -0.0201428 7.88688e-21)
(0.0473656 -0.0250996 -7.13076e-21)
(0.0574062 -0.0295153 1.07715e-20)
(0.0673109 -0.0334123 -1.07696e-20)
(0.0771475 -0.0368358 9.77458e-21)
(0.0869642 -0.039842 -5.88184e-21)
(0.096792 -0.0424885 -6.56476e-21)
(0.106648 -0.0448298 1.01293e-20)
(0.116542 -0.0469138 -7.67544e-21)
(0.126473 -0.0487811 1.74005e-20)
(0.13644 -0.0504654 3.76832e-21)
(0.146439 -0.0519938 -1.42186e-20)
(0.156464 -0.0533882 1.06121e-20)
(0.16651 -0.0546656 -2.40161e-21)
(0.176571 -0.0558395 -1.11037e-20)
(0.186642 -0.0569198 1.94108e-21)
(0.196716 -0.0579136 -7.31834e-22)
(0.20679 -0.0588256 1.6912e-21)
(0.216856 -0.059658 -1.15498e-22)
(0.226908 -0.0604107 3.42058e-21)
(0.236939 -0.0610814 -7.37061e-21)
(0.24694 -0.0616655 6.45953e-21)
(0.256901 -0.062156 -1.0037e-20)
(0.266812 -0.0625433 3.08523e-21)
(0.276658 -0.0628151 7.61133e-21)
(0.286422 -0.0629567 -1.24117e-21)
(0.296087 -0.0629499 7.78493e-21)
(0.30563 -0.0627737 -1.09755e-21)
(0.315024 -0.0624036 -1.35369e-21)
(0.324238 -0.0618119 -9.67354e-21)
(0.333239 -0.060967 3.75258e-21)
(0.341984 -0.0598337 5.17431e-21)
(0.350425 -0.0583749 -1.02579e-20)
(0.358505 -0.0565512 4.29952e-21)
(0.366192 -0.0543055 -1.84817e-22)
(0.373498 -0.051541 -1.53901e-21)
(0.380078 -0.0483022 -1.19439e-21)
(0.00455376 -0.002396 2.53923e-21)
(0.0173025 -0.00886283 5.09141e-21)
(0.0295522 -0.0150708 9.16854e-21)
(0.0413633 -0.020895 -1.38397e-20)
(0.0527921 -0.0262815 1.51955e-21)
(0.0639105 -0.0311999 -1.37239e-20)
(0.0747951 -0.0356436 4.94197e-21)
(0.0855159 -0.0396289 -7.75027e-22)
(0.096131 -0.0431884 1.02212e-20)
(0.106685 -0.0463632 -1.63603e-21)
(0.117211 -0.0491977 -1.16196e-20)
(0.127729 -0.051735 -3.51227e-21)
(0.138255 -0.0540149 2.87049e-21)
(0.148795 -0.0560724 1.41092e-20)
(0.159352 -0.0579375 2.0632e-21)
(0.169927 -0.0596354 -4.67336e-21)
(0.180519 -0.0611866 1.33866e-20)
(0.191124 -0.0626078 -1.93647e-20)
(0.201741 -0.0639119 1.67696e-20)
(0.212363 -0.0651086 4.32122e-21)
(0.222988 -0.0662044 -5.15984e-21)
(0.23361 -0.0672033 2.79924e-21)
(0.244222 -0.0681064 4.34396e-21)
(0.254817 -0.0689121 -5.73976e-21)
(0.265387 -0.0696159 2.68123e-21)
(0.275922 -0.0702106 -1.07093e-21)
(0.286409 -0.0706859 -2.92135e-21)
(0.296833 -0.0710283 -1.41467e-21)
(0.307178 -0.0712206 8.93296e-21)
(0.317423 -0.0712424 -1.61862e-20)
(0.327542 -0.071069 1.71896e-20)
(0.337507 -0.0706717 -5.18106e-21)
(0.347283 -0.0700176 -6.25771e-21)
(0.356831 -0.0690689 -3.66367e-22)
(0.366103 -0.0677834 6.72737e-21)
(0.375043 -0.0661158 3.26058e-23)
(0.383583 -0.0640191 -6.71272e-21)
(0.391688 -0.0614201 -4.76381e-21)
(0.399386 -0.0581891 7.50478e-21)
(0.406255 -0.0544005 -2.73089e-21)
(0.00505355 -0.00242876 4.36975e-21)
(0.0191073 -0.00895807 -1.14053e-20)
(0.0326525 -0.0152862 -7.13549e-21)
(0.0457321 -0.0213065 2.40849e-21)
(0.058385 -0.0269676 1.17598e-20)
(0.070666 -0.0322318 2.21915e-21)
(0.0826405 -0.0370767 -5.30327e-21)
(0.0943736 -0.0414984 -4.66657e-21)
(0.105925 -0.0455099 1.87669e-21)
(0.117347 -0.0491354 -1.27995e-21)
(0.128681 -0.0524064 -1.184e-20)
(0.139958 -0.0553573 1.03909e-20)
(0.151204 -0.0580226 1.26441e-20)
(0.162433 -0.0604352 -5.76133e-21)
(0.173658 -0.0626249 -8.5603e-21)
(0.184885 -0.0646177 -1.70995e-20)
(0.196119 -0.0664362 7.07593e-21)
(0.207359 -0.068099 1.21117e-21)
(0.218606 -0.0696215 2.08728e-21)
(0.229858 -0.0710153 -2.5627e-21)
(0.241112 -0.0722893 -3.41389e-22)
(0.252363 -0.0734488 1.14496e-20)
(0.263607 -0.0744964 -5.98614e-21)
(0.274836 -0.0754315 3.77392e-21)
(0.286043 -0.0762502 4.97511e-21)
(0.297216 -0.0769455 -4.50436e-21)
(0.308343 -0.0775067 4.5035e-21)
(0.31941 -0.0779192 -4.07826e-21)
(0.330396 -0.0781645 2.9305e-21)
(0.341281 -0.0782195 9.24114e-22)
(0.352036 -0.0780566 -3.81178e-21)
(0.36263 -0.0776428 -1.70091e-23)
(0.373023 -0.0769402 5.63189e-21)
(0.383172 -0.0759048 3.81585e-21)
(0.393023 -0.0744867 -4.66849e-21)
(0.402509 -0.0726331 6.21737e-21)
(0.411552 -0.0702883 -1.87099e-21)
(0.420111 -0.0673619 1.82905e-21)
(0.428226 -0.0636851 -4.3212e-21)
(0.435404 -0.0593691 2.8147e-21)
(0.00557413 -0.00243914 -1.64146e-21)
(0.020965 -0.00895558 1.62712e-21)
(0.035826 -0.0153153 -1.43142e-20)
(0.0501962 -0.0214229 1.29195e-20)
(0.0641069 -0.0272338 -7.54733e-21)
(0.0776024 -0.0327111 1.85959e-21)
(0.0907383 -0.0378249 2.20282e-20)
(0.103574 -0.0425596 3.91765e-22)
(0.116166 -0.0469137 3.91279e-22)
(0.128568 -0.0508972 3.56614e-21)
(0.140826 -0.0545288 1.06307e-20)
(0.15298 -0.0578329 -2.98571e-21)
(0.165059 -0.0608365 -2.08209e-20)
(0.177088 -0.0635675 1.11129e-20)
(0.189084 -0.0660529 -2.25156e-21)
(0.201061 -0.0683178 -6.90153e-21)
(0.213028 -0.0703847 -1.35579e-21)
(0.224989 -0.072273 1.42129e-20)
(0.236947 -0.0739993 -1.73332e-20)
(0.248905 -0.075577 1.13071e-20)
(0.260859 -0.0770164 3.45324e-21)
(0.272808 -0.0783245 -8.47533e-21)
(0.284748 -0.0795053 6.08664e-21)
(0.296672 -0.0805594 -3.41812e-21)
(0.308572 -0.081484 4.93945e-23)
(0.320439 -0.0822724 2.6507e-21)
(0.332259 -0.0829139 -1.80824e-20)
(0.344017 -0.0833938 5.9108e-21)
(0.355694 -0.0836921 -2.14847e-21)
(0.367265 -0.083784 4.17863e-21)
(0.378702 -0.0836389 -5.11789e-21)
(0.389969 -0.0832203 -5.63383e-21)
(0.401024 -0.082485 5.42171e-21)
(0.411816 -0.0813829 1.26679e-21)
(0.422284 -0.0798566 -9.47086e-22)
(0.432354 -0.0778447 -1.36376e-22)
(0.441933 -0.0752834 2.96592e-21)
(0.45097 -0.0720634 9.15633e-22)
(0.45952 -0.0679697 -7.0343e-21)
(0.467019 -0.0631552 3.0755e-22)
(0.00611186 -0.00242321 -4.21839e-21)
(0.0228642 -0.00884963 -1.46998e-20)
(0.0390549 -0.0151604 1.01493e-20)
(0.0547279 -0.0212634 3.39672e-21)
(0.0699138 -0.027121 -5.97247e-21)
(0.0846523 -0.0326996 -7.75242e-21)
(0.098993 -0.0379673 -5.23986e-21)
(0.112989 -0.0429017 3.21008e-21)
(0.126695 -0.0474918 -1.01639e-21)
(0.140162 -0.0517366 1.09328e-21)
(0.153437 -0.0556441 -3.54326e-21)
(0.166562 -0.0592286 -6.97456e-21)
(0.179572 -0.0625093 2.19011e-20)
(0.192496 -0.0655078 -5.99872e-21)
(0.205358 -0.0682465 -5.38253e-21)
(0.218174 -0.0707477 -1.11699e-20)
(0.230958 -0.0730323 1.17515e-20)
(0.243719 -0.0751194 2.63842e-21)
(0.256464 -0.0770259 -1.37291e-21)
(0.269196 -0.0787658 -7.98576e-21)
(0.281915 -0.0803505 -1.67668e-22)
(0.294622 -0.0817886 5.6264e-21)
(0.307312 -0.0830854 -9.63396e-23)
(0.319981 -0.0842427 1.02765e-21)
(0.332622 -0.0852589 -4.13631e-21)
(0.345226 -0.0861284 9.31292e-21)
(0.357779 -0.0868411 -1.54303e-20)
(0.370266 -0.0873822 1.6117e-20)
(0.382667 -0.0877313 -1.76609e-20)
(0.394958 -0.0878624 2.03279e-20)
(0.407108 -0.0877425 -6.36757e-21)
(0.419079 -0.0873317 2.50521e-21)
(0.430824 -0.0865822 -2.94338e-21)
(0.442289 -0.0854376 3.33978e-21)
(0.453404 -0.0838325 1.3858e-21)
(0.464084 -0.0816971 -2.331e-21)
(0.474221 -0.0789592 -5.61821e-21)
(0.483754 -0.0754889 3.10878e-21)
(0.492749 -0.0710182 4.52383e-21)
(0.500576 -0.0657446 -9.42965e-22)
(0.00666028 -0.00237661 4.93794e-21)
(0.0247838 -0.00863205 3.42521e-21)
(0.0423066 -0.0148164 1.46801e-20)
(0.059283 -0.0208331 -1.28461e-20)
(0.0757477 -0.0266491 2.47582e-21)
(0.0917404 -0.0322347 -4.29846e-21)
(0.107308 -0.0375574 1.25417e-21)
(0.1225 -0.0425912 5.13649e-21)
(0.137366 -0.047319 -2.8422e-21)
(0.151956 -0.051732 5.71342e-22)
(0.166316 -0.0558293 5.9893e-21)
(0.180487 -0.0596169 -6.71918e-21)
(0.194507 -0.063106 4.44254e-21)
(0.208406 -0.0663117 9.50181e-21)
(0.222212 -0.0692512 -1.16206e-20)
(0.235944 -0.0719428 5.97259e-21)
(0.24962 -0.074405 8.34086e-21)
(0.263252 -0.0766551 -1.30296e-20)
(0.276849 -0.0787094 -7.1572e-21)
(0.290416 -0.0805821 2.10565e-20)
(0.303957 -0.082285 -2.05037e-20)
(0.317471 -0.0838278 6.65668e-21)
(0.330958 -0.085217 8.19329e-21)
(0.344414 -0.0864559 -5.37693e-22)
(0.357832 -0.0875443 4.2365e-21)
(0.371203 -0.088478 -8.84079e-22)
(0.384516 -0.0892481 -7.54817e-21)
(0.397756 -0.0898405 -3.37501e-21)
(0.410903 -0.0902354 1.4745e-20)
(0.423931 -0.0904059 -4.64813e-21)
(0.43681 -0.0903177 -4.50703e-21)
(0.4495 -0.0899282 -3.2088e-21)
(0.461952 -0.0891854 4.11724e-21)
(0.474105 -0.0880267 -7.50532e-21)
(0.485883 -0.0863788 6.6934e-21)
(0.497191 -0.0841628 -4.92601e-22)
(0.507902 -0.0812977 -2.43901e-21)
(0.517944 -0.0776316 -7.2554e-21)
(0.527388 -0.0728363 8.03043e-22)
(0.535548 -0.0671533 1.21584e-21)
(0.0072102 -0.00229518 4.80197e-21)
(0.0266939 -0.00829461 -3.1951e-21)
(0.0455346 -0.0142767 -1.7158e-22)
(0.0638009 -0.0201316 -3.18585e-21)
(0.0815343 -0.0258286 1.29153e-20)
(0.0987776 -0.0313401 -1.99151e-21)
(0.115577 -0.0366333 1.10374e-20)
(0.131981 -0.0416796 2.77353e-22)
(0.148035 -0.0464575 -1.40487e-20)
(0.163786 -0.0509528 1.73402e-20)
(0.179277 -0.0551578 -4.08181e-21)
(0.194549 -0.0590714 -9.27841e-21)
(0.209638 -0.0626981 -1.53761e-20)
(0.224575 -0.0660464 7.17833e-21)
(0.239389 -0.0691285 3.05499e-21)
(0.254102 -0.0719582 -2.3324e-21)
(0.268732 -0.0745506 3.92883e-21)
(0.283294 -0.0769209 9.77421e-23)
(0.297798 -0.0790839 1.7896e-20)
(0.312251 -0.0810532 -1.91249e-20)
(0.326659 -0.0828408 8.2501e-22)
(0.341024 -0.0844569 -1.96238e-21)
(0.355343 -0.0859091 -3.88718e-21)
(0.369616 -0.0872022 3.07552e-22)
(0.383836 -0.0883378 2.76578e-21)
(0.397995 -0.0893133 6.7276e-22)
(0.412083 -0.0901219 6.25288e-22)
(0.426086 -0.090751 -8.30884e-21)
(0.439984 -0.0911821 8.49286e-21)
(0.453753 -0.0913891 -7.78157e-21)
(0.467363 -0.0913372 -1.18024e-21)
(0.480772 -0.0909823 9.26187e-21)
(0.493931 -0.0902688 -1.14151e-21)
(0.506775 -0.0891288 -4.37473e-21)
(0.519223 -0.0874807 6.26886e-21)
(0.531166 -0.085236 -2.03122e-21)
(0.542464 -0.0823041 -2.73518e-21)
(0.553025 -0.0785096 3.23589e-21)
(0.562924 -0.073456 -2.91431e-21)
(0.571424 -0.0674233 1.08909e-20)
(0.00774965 -0.00217524 3.36763e-22)
(0.0285559 -0.0078307 -1.43233e-21)
(0.0486794 -0.013536 8.69453e-21)
(0.068205 -0.019159 -4.78507e-21)
(0.0871828 -0.0246679 5.1805e-22)
(0.10566 -0.0300353 -6.53652e-21)
(0.123683 -0.0352263 -8.78241e-21)
(0.1413 -0.0402101 -4.18612e-21)
(0.158553 -0.0449618 7.57545e-21)
(0.175486 -0.0494625 5.47998e-21)
(0.192137 -0.0536997 -3.86328e-21)
(0.208546 -0.0576663 6.55603e-22)
(0.224746 -0.0613611 -4.74033e-21)
(0.240768 -0.0647873 -1.37102e-21)
(0.256639 -0.0679516 -6.01615e-21)
(0.272382 -0.0708637 1.80789e-20)
(0.288015 -0.073535 -1.17057e-20)
(0.303554 -0.0759782 3.39295e-21)
(0.31901 -0.078206 -7.26028e-21)
(0.334391 -0.080231 3.85031e-21)
(0.349704 -0.0820648 1.45522e-20)
(0.364949 -0.0837178 -5.7867e-21)
(0.380129 -0.0851986 1.01374e-20)
(0.395239 -0.0865134 -4.30846e-21)
(0.410277 -0.0876656 -6.7764e-22)
(0.425234 -0.088655 3.61715e-21)
(0.4401 -0.0894771 -7.73772e-21)
(0.454863 -0.0901223 1.12299e-20)
(0.469505 -0.0905744 -1.61813e-20)
(0.484004 -0.0908095 1.06187e-20)
(0.49833 -0.0907942 -3.22419e-21)
(0.512444 -0.0904843 6.95052e-21)
(0.526296 -0.0898227 -1.09842e-20)
(0.53982 -0.0887367 7.77568e-21)
(0.55293 -0.0871372 4.18817e-21)
(0.565511 -0.0849254 6.41013e-21)
(0.577405 -0.0820001 -5.4273e-21)
(0.588499 -0.0781597 2.38213e-21)
(0.598864 -0.0729307 4.35231e-21)
(0.607724 -0.0666205 -8.55971e-21)
(0.0082636 -0.00201388 -4.02882e-21)
(0.030322 -0.00723681 1.04908e-20)
(0.0516684 -0.0125937 -3.28315e-21)
(0.0724037 -0.0179199 -2.86866e-21)
(0.0925865 -0.0231793 -2.14594e-21)
(0.112268 -0.0283416 7.88236e-22)
(0.131496 -0.0333683 7.89832e-22)
(0.150315 -0.0382252 2.76143e-21)
(0.168765 -0.0428842 5.32824e-21)
(0.186886 -0.0473229 -8.11661e-21)
(0.204714 -0.0515242 1.09631e-20)
(0.222281 -0.0554767 -8.65922e-21)
(0.23962 -0.0591744 1.15849e-20)
(0.256759 -0.0626156 -6.73527e-21)
(0.273721 -0.0658027 6.5154e-22)
(0.29053 -0.0687412 8.07306e-21)
(0.307202 -0.0714391 1.10935e-21)
(0.323754 -0.0739059 2.6614e-21)
(0.340195 -0.0761524 -2.66832e-21)
(0.356535 -0.0781894 -1.14061e-20)
(0.372779 -0.0800281 6.143e-21)
(0.388929 -0.0816785 -4.08085e-21)
(0.404986 -0.0831498 1.0743e-20)
(0.420947 -0.0844497 -6.72983e-21)
(0.436809 -0.0855832 -5.50033e-22)
(0.452564 -0.086553 -4.06955e-22)
(0.468203 -0.0873576 6.82223e-22)
(0.483714 -0.0879909 1.01405e-20)
(0.499083 -0.0884408 -8.44432e-21)
(0.514287 -0.0886874 -8.42153e-21)
(0.529301 -0.0887011 5.30103e-21)
(0.544089 -0.08844 -3.65914e-21)
(0.558604 -0.087848 2.18931e-21)
(0.572782 -0.0868503 3.69655e-21)
(0.586537 -0.0853514 -6.74203e-21)
(0.599749 -0.0832427 1.77644e-22)
(0.612246 -0.0804111 5.57133e-21)
(0.623894 -0.076626 -3.40002e-21)
(0.634751 -0.0713251 4.12814e-21)
(0.644009 -0.0648251 9.69737e-22)
(0.00873347 -0.00180935 2.20138e-21)
(0.031935 -0.00651424 -3.85996e-21)
(0.0544157 -0.0114565 5.45566e-21)
(0.0762906 -0.0164278 1.11943e-21)
(0.0976243 -0.0213841 1.50528e-21)
(0.118469 -0.0262887 -7.91513e-21)
(0.138873 -0.0310974 9.76324e-21)
(0.158875 -0.0357719 -5.37195e-21)
(0.178513 -0.0402806 1.45041e-21)
(0.19782 -0.0445977 -2.00545e-22)
(0.216826 -0.0487026 -7.00828e-21)
(0.235562 -0.0525803 -6.36988e-21)
(0.254054 -0.0562207 1.96594e-21)
(0.272327 -0.0596184 -1.20575e-20)
(0.290402 -0.0627717 7.01019e-23)
(0.3083 -0.0656826 7.67061e-21)
(0.326035 -0.0683557 -1.65001e-21)
(0.343623 -0.0707976 -3.43285e-21)
(0.361072 -0.0730166 -2.217e-21)
(0.378391 -0.0750219 6.82686e-21)
(0.395584 -0.0768234 -3.38163e-21)
(0.412653 -0.0784307 -1.64986e-20)
(0.429598 -0.0798531 1.33482e-20)
(0.446416 -0.0810991 6.32634e-22)
(0.463103 -0.0821757 -1.2252e-20)
(0.479651 -0.0830879 5.24881e-21)
(0.496051 -0.0838377 7.0047e-21)
(0.512293 -0.0844237 2.10464e-21)
(0.528361 -0.0848387 -3.34448e-21)
(0.544238 -0.0850689 2.58943e-21)
(0.559901 -0.085091 3.75551e-21)
(0.57532 -0.0848695 -1.18194e-20)
(0.590453 -0.0843529 9.7531e-21)
(0.605244 -0.0834688 2.44002e-21)
(0.619612 -0.0821191 7.51674e-23)
(0.633437 -0.0801876 -9.75071e-21)
(0.646541 -0.0775493 -1.43682e-21)
(0.658771 -0.073941 1.94067e-22)
(0.670167 -0.0686972 4.8477e-21)
(0.679893 -0.0621159 3.0851e-21)
(0.00913514 -0.00156064 -3.24461e-21)
(0.0333247 -0.00567031 2.3273e-21)
(0.05682 -0.0101402 7.96198e-22)
(0.0797432 -0.0147063 8.69705e-21)
(0.102161 -0.0193136 8.12803e-22)
(0.124121 -0.0239149 -8.08063e-21)
(0.145664 -0.0284582 -1.14322e-21)
(0.166825 -0.0329014 -2.88732e-22)
(0.187632 -0.0372091 8.67239e-21)
(0.208114 -0.0413518 -9.94617e-21)
(0.228295 -0.0453063 -5.81811e-22)
(0.248199 -0.0490544 4.9276e-21)
(0.267847 -0.052583 -4.91449e-21)
(0.287261 -0.0558834 1.2019e-20)
(0.306458 -0.0589507 -9.91786e-21)
(0.325455 -0.0617837 -8.90949e-21)
(0.344266 -0.0643837 -4.67505e-21)
(0.362901 -0.0667549 1.7359e-20)
(0.38137 -0.068903 -3.88598e-21)
(0.399679 -0.0708351 -7.7168e-22)
(0.41783 -0.0725595 3.23912e-22)
(0.435826 -0.074085 5.64524e-21)
(0.453663 -0.0754203 -4.5963e-21)
(0.471339 -0.0765744 -1.65062e-20)
(0.488847 -0.0775553 4.96124e-21)
(0.50618 -0.0783702 1.2282e-21)
(0.523328 -0.0790243 -3.89227e-21)
(0.540279 -0.0795205 8.35981e-21)
(0.55702 -0.0798579 -1.0396e-20)
(0.573535 -0.0800301 6.37162e-22)
(0.589805 -0.0800227 -5.97859e-22)
(0.605804 -0.0798105 -1.95348e-21)
(0.6215 -0.0793525 1.00326e-20)
(0.636847 -0.0785854 -8.34986e-21)
(0.651777 -0.077416 1.16052e-21)
(0.666184 -0.0757272 -1.57939e-21)
(0.679891 -0.0733864 4.67446e-21)
(0.692737 -0.0700958 -1.31279e-20)
(0.704744 -0.06507 1.16597e-20)
(0.71505 -0.058546 -3.22772e-21)
(0.00943398 -0.00126594 4.84117e-21)
(0.0344068 -0.00472409 -5.96361e-21)
(0.0587668 -0.00867596 -1.56257e-21)
(0.0826285 -0.0127942 2.73775e-21)
(0.106054 -0.0170145 -2.22092e-21)
(0.129076 -0.021272 -3.17722e-21)
(0.151719 -0.0255066 5.41587e-21)
(0.174008 -0.0296736 1.68163e-21)
(0.195964 -0.0337339 4.88554e-21)
(0.217604 -0.0376544 6.16474e-21)
(0.238946 -0.0414094 -8.64993e-21)
(0.260008 -0.0449785 8.29974e-21)
(0.280806 -0.0483461 -1.77062e-21)
(0.301357 -0.0515007 5.00389e-21)
(0.321674 -0.0544348 1.79931e-21)
(0.34177 -0.0571444 1.11725e-20)
(0.361656 -0.0596281 -4.52556e-21)
(0.38134 -0.0618874 -6.38102e-21)
(0.400831 -0.0639255 -1.26101e-20)
(0.42013 -0.0657476 2.62112e-20)
(0.439241 -0.0673598 -8.0294e-21)
(0.458162 -0.0687694 1.03843e-20)
(0.476891 -0.0699842 -7.91785e-21)
(0.495421 -0.0710126 6.42316e-21)
(0.513746 -0.0718629 -1.11984e-21)
(0.531856 -0.0725431 8.2022e-21)
(0.54974 -0.0730608 -5.09836e-21)
(0.567385 -0.0734225 5.04106e-21)
(0.584778 -0.0736324 5.20039e-21)
(0.601902 -0.0736921 -8.95996e-21)
(0.61874 -0.0735975 -2.72091e-21)
(0.635272 -0.0733367 1.03007e-20)
(0.651474 -0.0728851 1.2345e-21)
(0.667314 -0.0721975 -3.84131e-21)
(0.682743 -0.0711981 3.11267e-21)
(0.697678 -0.0697823 -1.01622e-20)
(0.711968 -0.0678237 9.92741e-21)
(0.725461 -0.0650001 1.09037e-21)
(0.738177 -0.06039 -8.05675e-22)
(0.749237 -0.0540959 3.83777e-21)
(0.00958173 -0.000937308 -1.82077e-21)
(0.0350868 -0.00374059 3.25745e-21)
(0.060153 -0.00714523 1.51215e-22)
(0.0848403 -0.0107829 -1.96419e-21)
(0.109199 -0.0145914 -1.96006e-21)
(0.133235 -0.0184725 7.08017e-21)
(0.15694 -0.022356 -2.18662e-21)
(0.180325 -0.0262033 -4.5462e-21)
(0.2034 -0.0299714 -1.0344e-22)
(0.226174 -0.0336235 1.37773e-22)
(0.248656 -0.0371324 2.64383e-21)
(0.270857 -0.0404759 3.71426e-23)
(0.292788 -0.0436366 -1.16136e-20)
(0.314459 -0.0466007 1.90635e-21)
(0.335881 -0.0493584 -9.78647e-22)
(0.357062 -0.0519033 1.01618e-21)
(0.378012 -0.0542318 4.31328e-21)
(0.398735 -0.0563426 4.82044e-21)
(0.419235 -0.0582368 -6.63797e-21)
(0.439516 -0.0599171 3.75664e-21)
(0.459577 -0.0613876 -3.9951e-21)
(0.479415 -0.0626537 5.05388e-21)
(0.499026 -0.0637215 -6.93485e-21)
(0.518403 -0.0645978 1.3529e-20)
(0.537537 -0.0652901 -1.53229e-20)
(0.556417 -0.0658059 -4.27487e-21)
(0.57503 -0.0661531 -1.24116e-21)
(0.593361 -0.0663396 8.3588e-21)
(0.611395 -0.0663728 -7.8984e-21)
(0.629115 -0.0662595 6.48796e-21)
(0.646503 -0.0660046 -7.14421e-21)
(0.663541 -0.0656093 1.52544e-21)
(0.68021 -0.0650683 -7.77351e-22)
(0.696489 -0.0643618 1.69078e-21)
(0.712353 -0.0634453 4.03993e-21)
(0.727751 -0.0622494 -1.97951e-21)
(0.742578 -0.0606879 -2.63718e-21)
(0.75673 -0.0584541 6.3752e-21)
(0.770276 -0.0544824 2.21554e-21)
(0.782359 -0.0486293 -5.45808e-21)
(0.00947453 -0.000574329 -4.78888e-21)
(0.0351455 -0.00275044 -5.3082e-21)
(0.0607359 -0.00554652 2.11275e-21)
(0.0861724 -0.00867612 -2.87301e-21)
(0.111402 -0.0120511 -1.21991e-21)
(0.136418 -0.0155231 2.64821e-21)
(0.161147 -0.0189986 7.89175e-23)
(0.185592 -0.0224787 4.06343e-22)
(0.209754 -0.0259095 -1.49164e-22)
(0.23363 -0.0292485 -2.01966e-21)
(0.257221 -0.0324679 2.94962e-21)
(0.280531 -0.0355442 7.35869e-21)
(0.303565 -0.0384578 2.4714e-21)
(0.326331 -0.041193 -8.56654e-21)
(0.348832 -0.0437382 -1.32239e-21)
(0.371076 -0.0460847 5.90615e-21)
(0.393065 -0.0482266 -5.45011e-21)
(0.414805 -0.0501605 1.15162e-20)
(0.436296 -0.0518851 -6.90182e-21)
(0.457539 -0.0534011 -4.96051e-21)
(0.478532 -0.0547102 8.64414e-22)
(0.49927 -0.0558158 8.61266e-21)
(0.519749 -0.0567217 -3.81356e-21)
(0.539959 -0.0574328 -6.7847e-21)
(0.559892 -0.0579545 2.79468e-21)
(0.579534 -0.0582923 -3.40591e-21)
(0.598873 -0.0584525 8.10909e-22)
(0.617891 -0.0584415 -5.47158e-21)
(0.636573 -0.058266 6.77342e-21)
(0.654898 -0.0579335 1.92893e-21)
(0.672849 -0.0574518 -7.99358e-21)
(0.690406 -0.0568292 4.3638e-21)
(0.70755 -0.0560735 -5.00715e-21)
(0.724265 -0.0551882 1.49566e-21)
(0.740539 -0.0541644 -1.14514e-21)
(0.756351 -0.0529898 -8.82312e-22)
(0.771649 -0.0516696 1.6907e-21)
(0.78641 -0.0499795 3.84654e-21)
(0.80083 -0.0467286 -1.0895e-20)
(0.814226 -0.0415111 -2.39812e-21)
(0.00892978 -7.36843e-06 1.39675e-21)
(0.0342613 -0.0015327 -6.35442e-22)
(0.0601188 -0.00367403 -7.62203e-21)
(0.0861664 -0.00620604 -2.47231e-21)
(0.112186 -0.00905337 -1.81026e-21)
(0.138084 -0.0120116 -6.55989e-21)
(0.163796 -0.015006 2.08319e-21)
(0.18927 -0.0180867 -2.0078e-21)
(0.214486 -0.0211515 2.27337e-21)
(0.239432 -0.0241523 1.13303e-21)
(0.264103 -0.02706 4.35827e-21)
(0.288494 -0.0298488 -7.26036e-21)
(0.312606 -0.0324968 -4.23035e-21)
(0.33644 -0.0349865 1.73788e-21)
(0.359997 -0.0373042 -2.47216e-21)
(0.38328 -0.0394392 2.65573e-22)
(0.406289 -0.0413838 3.90358e-21)
(0.429025 -0.0431326 -5.92996e-21)
(0.451487 -0.0446823 -1.54208e-22)
(0.473673 -0.0460314 -2.8621e-21)
(0.495581 -0.0471798 4.82941e-21)
(0.517203 -0.0481287 -9.20719e-21)
(0.538535 -0.04888 -4.04331e-21)
(0.559568 -0.0494363 -1.19576e-21)
(0.58029 -0.0498005 8.64534e-21)
(0.600691 -0.0499758 -6.31231e-21)
(0.620757 -0.0499653 3.76388e-21)
(0.640472 -0.049772 1.36953e-21)
(0.659821 -0.0493988 -3.10296e-21)
(0.678787 -0.0488483 6.72111e-21)
(0.697351 -0.0481234 -5.58514e-21)
(0.715494 -0.0472276 2.98435e-21)
(0.7332 -0.0461655 -2.28412e-21)
(0.750454 -0.0449411 2.18785e-21)
(0.767245 -0.0435571 1.33915e-20)
(0.783565 -0.042039 -1.25367e-20)
(0.799389 -0.0404617 -1.00458e-20)
(0.814736 -0.0386651 1.06844e-20)
(0.829925 -0.0354944 5.66159e-21)
(0.844815 -0.030764 -8.82477e-21)
(0.00974246 -0.000303577 3.31463e-22)
(0.0349925 -0.00193672 -1.5533e-21)
(0.0611271 -0.00365815 1.8672e-21)
(0.0876714 -0.0056627 -4.54239e-22)
(0.114353 -0.00793294 2.0854e-21)
(0.140998 -0.010349 4.43133e-21)
(0.167556 -0.0128905 -1.70422e-21)
(0.193936 -0.0155017 -3.07583e-21)
(0.220096 -0.0181224 2.45212e-21)
(0.246009 -0.0207127 -9.43565e-21)
(0.27166 -0.0232392 3.76866e-21)
(0.297038 -0.0256728 -5.91077e-21)
(0.322137 -0.0279897 7.45656e-21)
(0.346951 -0.0301704 -7.96162e-22)
(0.371479 -0.0321994 -6.40798e-21)
(0.395718 -0.0340645 1.27826e-22)
(0.419665 -0.035756 1.66175e-21)
(0.443318 -0.037267 5.98685e-21)
(0.466674 -0.0385924 -2.45854e-21)
(0.489727 -0.0397292 -7.82343e-21)
(0.512474 -0.0406755 8.07719e-21)
(0.534908 -0.0414308 -1.04997e-20)
(0.557021 -0.0419952 -3.09469e-21)
(0.578804 -0.0423697 -6.5526e-21)
(0.600248 -0.0425551 1.62481e-20)
(0.621341 -0.0425525 -7.84648e-21)
(0.642073 -0.0423624 8.8301e-21)
(0.66243 -0.0419847 3.19978e-22)
(0.682402 -0.0414181 -1.74371e-21)
(0.701976 -0.0406598 -6.77956e-22)
(0.721142 -0.0397048 3.58081e-21)
(0.739896 -0.0385456 7.83971e-21)
(0.758235 -0.0371708 -1.19651e-20)
(0.77617 -0.0355624 6.37907e-21)
(0.793732 -0.0336965 -2.06198e-21)
(0.810987 -0.0315561 -6.82432e-21)
(0.828062 -0.0291265 6.55145e-21)
(0.845256 -0.0262626 -2.91649e-22)
(0.863403 -0.0226396 1.54149e-21)
(0.884351 -0.0189482 -1.60145e-21)
(0.0111758 -0.00105682 -4.63596e-22)
(0.0376642 -0.00322072 7.99516e-21)
(0.0645145 -0.00504932 8.38149e-21)
(0.0916523 -0.00685814 -2.32995e-21)
(0.118943 -0.00875814 2.74576e-21)
(0.146269 -0.0107504 1.39755e-21)
(0.173546 -0.0128243 1.41705e-21)
(0.2007 -0.0149498 2.72415e-21)
(0.227678 -0.0170945 -8.29246e-22)