/*--------------------------------*- C++ -*----------------------------------*\
  =========                 |
  \\      /  F ield         | OpenFOAM: The Open Source CFD Toolbox
   \\    /   O peration     | Website:  https://openfoam.org
    \\  /    A nd           | Version:  7
     \\/     M anipulation  |
\*---------------------------------------------------------------------------*/
FoamFile
{
    version     2.0;
    format      ascii;
    class       volScalarField;
    location    "6.9";
    object      p;
}
// * * * * * * * * * * * * * * * * * * * * * * * * * * * * * * * * * * * * * //

dimensions      [1 -1 -2 0 0 0 0];

internalField   nonuniform List<scalar> 
3700
(
0.102197
0.184775
0.238456
0.297508
0.308488
0.323421
0.353568
0.406572
0.448611
0.454526
0.470253
0.474781
0.48135
0.503184
0.502768
0.491065
0.514494
0.521629
0.519695
0.532847
0.0814336
0.0884595
0.108611
0.125893
0.110981
0.111403
0.129073
0.15629
0.158892
0.141593
0.132645
0.144618
0.168146
0.189911
0.197789
0.20155
0.213577
0.230795
0.252951
0.249236
0.0909254
0.0875975
0.08146
0.0717948
0.0598475
0.0559954
0.0521707
0.0524727
0.0541252
0.0576519
0.0611748
0.0676923
0.0762262
0.0874179
0.0992512
0.110253
0.119943
0.124729
0.127985
0.127317
0.0995176
0.0844482
0.0706219
0.0605174
0.0570832
0.0592613
0.0651291
0.0740341
0.0798543
0.088326
0.0842339
0.0888037
0.0929277
0.101276
0.112825
0.126802
0.143696
0.160916
0.177341
0.188006
0.10601
0.0748663
0.0556082
0.0516288
0.0519666
0.0575106
0.068819
0.0890159
0.104804
0.113811
0.121727
0.132293
0.128676
0.129554
0.130308
0.136266
0.152551
0.178909
0.205908
0.242254
0.104911
0.0650671
0.0457366
0.0456706
0.0467131
0.0525374
0.0649592
0.0880782
0.110691
0.127938
0.148418
0.163337
0.17908
0.192119
0.194749
0.19357
0.197367
0.20812
0.233959
0.298753
0.0995173
0.0586876
0.0418253
0.044404
0.0467071
0.0515569
0.0623066
0.0832315
0.106139
0.130454
0.161873
0.182823
0.212598
0.238855
0.261862
0.280484
0.295049
0.307096
0.320134
0.382637
0.0934107
0.0550253
0.0415053
0.0469203
0.053915
0.0604377
0.0770473
0.0955087
0.110359
0.130612
0.163892
0.192599
0.236181
0.275264
0.314539
0.358366
0.395728
0.434914
0.455982
0.537221
0.0822453
0.0499467
0.0433929
0.052318
0.0627977
0.0840849
0.120177
0.146131
0.165473
0.18573
0.201485
0.227428
0.267287
0.315769
0.367925
0.430674
0.498538
0.569682
0.621429
0.740814
0.0639837
0.0398364
0.0392949
0.0489133
0.0651516
0.0945798
0.146172
0.182018
0.224005
0.275493
0.314736
0.357643
0.398427
0.445213
0.486086
0.54323
0.62675
0.727943
0.835945
0.970606
0.047328
0.0293902
0.0272631
0.0417409
0.0595354
0.0937436
0.147627
0.18547
0.249403
0.339768
0.414507
0.488491
0.5663
0.637539
0.699624
0.770483
0.8522
0.947993
1.15213
1.14327
0.0341411
0.0217404
0.0211957
0.0388518
0.0569599
0.0911577
0.137798
0.176551
0.258686
0.384819
0.506761
0.623797
0.748123
0.849439
0.964325
1.0849
1.20576
1.32165
1.53651
1.49803
0.024435
0.0170942
0.0185126
0.0373325
0.0590058
0.134167
0.200922
0.298182
0.449335
0.590673
0.739548
0.873721
1.01535
1.14281
1.30544
1.49275
1.67919
1.84975
2.09609
2.08091
0.0168088
0.0137532
0.0166802
0.0440749
0.10494
0.275827
0.413607
0.59558
0.815238
1.0274
1.1998
1.35193
1.5064
1.65839
1.85533
2.08567
2.33158
2.58651
2.80018
2.99837
0.0103173
0.0121764
0.0226083
0.0959549
0.24111
0.442
0.64934
0.903775
1.20177
1.51475
1.74994
1.96644
2.17998
2.41476
2.70852
2.99427
3.27358
3.52214
3.66199
3.77923
0.00681498
0.0208214
0.0689407
0.201543
0.439783
0.677956
1.00911
1.40373
1.86817
2.26707
2.56619
2.83835
3.10839
3.41091
3.73542
3.95271
4.0898
4.13891
4.04633
3.91932
0.0082247
0.0543605
0.175387
0.379703
0.834563
1.41874
1.98051
2.55625
3.16545
3.57549
3.81206
4.0257
4.21523
4.37088
4.46829
4.39502
4.17895
3.64728
2.79258
1.89294
0.0402681
0.16052
0.509035
1.17437
2.04636
2.87377
3.57536
4.27638
4.7875
4.84693
4.7783
4.75013
4.69476
4.52003
4.01683
3.06726
2.09384
1.3333
1.01839
0.992867
0.304846
0.860991
1.93994
3.13964
4.24145
4.89659
5.43946
5.87286
5.73337
5.29201
4.86701
4.33358
3.41433
2.3379
1.43007
1.03042
0.989446
0.994954
0.997329
0.999439
2.31592
3.63088
4.88416
5.71531
6.26471
6.4262
6.56453
6.23703
4.53707
3.19752
2.3591
1.55658
1.07906
0.987203
0.992837
0.996312
0.999188
0.999977
1.00002
1.00001
6.95264
6.89927
6.85933
6.90732
7.01245
6.77068
5.99937
2.33974
0.648787
1
1
1
1
1
1
1
1
1
1
1
6.95289
6.88663
6.80091
6.73903
6.69786
5.75821
2.70308
1.03306
1
1
1
1
1
1
1
1
1
1
1
1
6.79517
6.83995
6.83489
6.71529
6.30812
3.37973
1.03564
0.999201
1
1
1
1
1
1
1
1
1
1
1
1
6.66386
6.79598
6.82533
6.66796
4.69503
1.37724
0.994244
1.00011
0.999999
1
1
1
1
1
1
1
1
1
1
1
6.56238
6.78938
6.79326
6.02714
2.69393
0.975987
1.00035
0.999994
1
1
1
1
1
1
1
1
1
1
1
1
6.47289
6.82823
6.77669
4.94755
1.49444
1
1
1
1
1
1
1
1
1
1
1
1
1
1
1
6.41137
6.73313
6.7442
3.55971
0.97304
1
1
1
1
1
1
1
1
1
1
1
1
1
1
1
6.4607
6.61917
6.00781
2.04662
0.999999
1
1
1
1
1
1
1
1
1
1
1
1
1
1
1
6.97863
6.63913
4.87219
1.21053
1
1
1
1
1
1
1
1
1
1
1
1
1
1
1
1
7.2936
6.42135
3.41037
0.987965
1
1
1
1
1
1
1
1
1
1
1
1
1
1
1
1
7.44246
5.95526
2.30886
1
1
1
1
1
1
1
1
1
1
1
1
1
1
1
1
1
7.50135
5.39708
1.60724
1
1
1
1
1
1
1
1
1
1
1
1
1
1
1
1
1
7.51768
4.76612
1.18046
1
1
1
1
1
1
1
1
1
1
1
1
1
1
1
1
1
7.34677
4.03251
1.02097
1
1
1
1
1
1
1
1
1
1
1
1
1
1
1
1
1
7.24623
3.19343
1
1
1
1
1
1
1
1
1
1
1
1
1
1
1
1
1
1
6.94708
2.4726
1
1
1
1
1
1
1
1
1
1
1
1
1
1
1
1
1
1
6.6162
1.90448
1
1
1
1
1
1
1
1
1
1
1
1
1
1
1
1
1
1
6.36145
1.3841
1
1
1
1
1
1
1
1
1
1
1
1
1
1
1
1
1
1
5.70255
1.00634
1
1
1
1
1
1
1
1
1
1
1
1
1
1
1
1
1
1
4.63738
1.00006
1
1
1
1
1
1
1
1
1
1
1
1
1
1
1
1
1
1
4.64002
1.00006
1
1
1
1
1
1
1
1
1
1
1
1
1
1
1
1
1
1
5.685
1.00624
1
1
1
1
1
1
1
1
1
1
1
1
1
1
1
1
1
1
6.37048
1.38477
1
1
1
1
1
1
1
1
1
1
1
1
1
1
1
1
1
1
6.62541
1.91949
1
1
1
1
1
1
1
1
1
1
1
1
1
1
1
1
1
1
6.91884
2.47759
1
1
1
1
1
1
1
1
1
1
1
1
1
1
1
1
1
1
7.2641
3.17525
1
1
1
1
1
1
1
1
1
1
1
1
1
1
1
1
1
1
7.35447
4.02664
1.01986
1
1
1
1
1
1
1
1
1
1
1
1
1
1
1
1
1
7.50904
4.76263
1.18257
1
1
1
1
1
1
1
1
1
1
1
1
1
1
1
1
1
7.49315
5.4095
1.60952
1
1
1
1
1
1
1
1
1
1
1
1
1
1
1
1
1
7.4346
5.95493
2.31918
1
1
1
1
1
1
1
1
1
1
1
1
1
1
1
1
1
7.28796
6.41249
3.41783
0.988036
1
1
1
1
1
1
1
1
1
1
1
1
1
1
1
1
6.99
6.65861
4.87482
1.19952
1
1
1
1
1
1
1
1
1
1
1
1
1
1
1
1
6.45607
6.61372
6.00441
2.05489
0.999999
1
1
1
1
1
1
1
1
1
1
1
1
1
1
1
6.39375
6.70317
6.73921
3.55395
0.973071
1
1
1
1
1
1
1
1
1
1
1
1
1
1
1
6.46654
6.83242
6.78937
4.96773
1.48627
1
1
1
1
1
1
1
1
1
1
1
1
1
1
1
6.56978
6.80829
6.79588
6.007
2.71871
0.97565
1.00035
0.999994
1
1
1
1
1
1
1
1
1
1
1
1
6.67441
6.8066
6.82564
6.65163
4.68985
1.37345
0.994511
1.00011
0.999999
1
1
1
1
1
1
1
1
1
1
1
6.79452
6.83786
6.83786
6.72439
6.34427
3.35697
1.03037
0.999356
1
1
1
1
1
1
1
1
1
1
1
1
6.95123
6.88841
6.81389
6.73757
6.68651
5.75785
2.69735
1.03332
1
1
1
1
1
1
1
1
1
1
1
1
6.95538
6.90434
6.86775
6.89552
6.98709
6.76572
6.0055
2.3666
0.642303
1
1
1
1
1
1
1
1
1
1
1
2.31715
3.63136
4.88593
5.71078
6.25113
6.42155
6.561
6.24249
4.54289
3.20075
2.35908
1.55421
1.0776
0.987086
0.992788
0.996281
0.99918
0.999977
1.00002
1.00001
0.30699
0.86632
1.95497
3.14453
4.23263
4.89235
5.43909
5.87447
5.73315
5.2891
4.86351
4.33156
3.41418
2.33934
1.43082
1.0306
0.989458
0.994961
0.997333
0.999439
0.0381992
0.1588
0.498805
1.17331
2.05475
2.87827
3.57858
4.27643
4.78581
4.84458
4.77626
4.75386
4.70101
4.52308
4.01564
3.06505
2.0924
1.33285
1.01832
0.992853
0.0073705
0.0528348
0.178531
0.371798
0.817022
1.41136
1.98208
2.55867
3.16395
3.56567
3.81062
4.03258
4.2217
4.37084
4.46591
4.39299
4.17753
3.64664
2.79293
1.89398
0.00670144
0.0228658
0.0773037
0.201862
0.436248
0.672673
1.00482
1.40025
1.86271
2.26205
2.56739
2.84348
3.11149
3.40999
3.73325
3.95078
4.08852
4.13875
4.04633
3.91991
0.0100376
0.011864
0.0283568
0.104756
0.250597
0.442019
0.647089
0.902928
1.20458
1.51602
1.75128
1.96911
2.1826
2.41624
2.70912
2.99439
3.27299
3.52195
3.66266
3.77983
0.0151541
0.0132151
0.0187367
0.0485865
0.113555
0.278818
0.414816
0.594577
0.813195
1.02511
1.19983
1.35261
1.50741
1.65984
1.85662
2.08608
2.33135
2.58664
2.80079
2.99973
0.0215907
0.0163628
0.0206045
0.0383403
0.0590851
0.136317
0.203526
0.296673
0.443993
0.58697
0.737636
0.872256
1.01392
1.1417
1.30469
1.49172
1.67834
1.84895
2.09522
2.08019
0.0301033
0.0209495
0.0228473
0.0394646
0.055894
0.0907632
0.136801
0.178078
0.262344
0.387192
0.507681
0.624312
0.748035
0.848888
0.96338
1.08384
1.20459
1.32091
1.5367
1.49885
0.0422562
0.0278566
0.0280125
0.0425492
0.0587996
0.0930376
0.14642
0.187583
0.252084
0.341408
0.416012
0.48985
0.567151
0.63759
0.699295
0.770171
0.852024
0.948313
1.1537
1.14478
0.0585717
0.0382829
0.0392744
0.0492633
0.0646222
0.0942811
0.1455
0.182467
0.224555
0.275639
0.314818
0.357424
0.398182
0.444743
0.485174
0.542179
0.626703
0.7287
0.836634
0.970961
0.0759331
0.0513774
0.0446112
0.0517355
0.0621668
0.0843752
0.12004
0.145107
0.165303
0.18504
0.200162
0.225184
0.26463
0.313677
0.366513
0.430081
0.498644
0.570417
0.621572
0.740157
0.0869956
0.0579482
0.042768
0.0463509
0.0528597
0.0604964
0.0775523
0.0947977
0.109928
0.129129
0.161776
0.190926
0.234531
0.273973
0.313756
0.358142
0.395782
0.434731
0.455847
0.538162
0.0941835
0.0615169
0.0430156
0.0439191
0.0457364
0.0513684
0.0619253
0.0811153
0.103717
0.128668
0.160982
0.182153
0.211962
0.238482
0.261846
0.280142
0.294316
0.305882
0.319676
0.383892
0.101242
0.0677075
0.0470471
0.0449833
0.045852
0.0521937
0.0640442
0.085418
0.108447
0.127422
0.1485
0.163371
0.179152
0.192431
0.194784
0.193087
0.196743
0.208187
0.235219
0.300142
0.107092
0.0789861
0.0570964
0.0507585
0.0515367
0.0578383
0.0682694
0.0871438
0.103557
0.114261
0.122379
0.132525
0.129187
0.129929
0.130621
0.136749
0.153546
0.179971
0.206549
0.241874
0.107749
0.0909437
0.0745011
0.0614693
0.0580582
0.0592315
0.065524
0.0751119
0.0808217
0.0897502
0.0853417
0.0894654
0.0933109
0.101473
0.113191
0.127229
0.144176
0.161089
0.177296
0.186459
0.0997892
0.0920962
0.0853046
0.0744704
0.0608634
0.055976
0.0534457
0.0537408
0.0549053
0.0582725
0.0613024
0.0673417
0.0757788
0.0870646
0.0991075
0.110108
0.119638
0.124185
0.126958
0.126957
0.0876609
0.0954049
0.107607
0.118795
0.13216
0.148571
0.139272
0.133192
0.147281
0.159926
0.169331
0.157994
0.137874
0.141507
0.156432
0.183397
0.207423
0.202763
0.183525
0.164574
0.12117
0.199528
0.234844
0.273261
0.316201
0.355254
0.366576
0.397808
0.450892
0.459699
0.474368
0.468277
0.45239
0.472008
0.483214
0.484961
0.493
0.4897
0.476879
0.491996
0.561081
0.650767
0.7086
0.772681
0.807734
0.861193
0.885793
0.888778
0.876398
0.872996
0.885232
0.92856
0.970187
0.970156
0.946739
0.931399
0.936034
0.959098
0.973512
0.964522
0.298571
0.424815
0.548729
0.665981
0.746502
0.82728
0.864729
0.896617
0.88841
0.893199
0.902517
0.930795
0.959166
0.963349
0.951795
0.940515
0.943443
0.959789
0.967809
0.960713
0.134479
0.163227
0.242714
0.345978
0.522599
0.684103
0.779966
0.854625
0.889207
0.908328
0.919163
0.928408
0.938342
0.947805
0.953249
0.958967
0.962116
0.964189
0.958561
0.95409
0.188304
0.215085
0.241941
0.239605
0.252837
0.324072
0.51189
0.712129
0.827221
0.901555
0.941351
0.928155
0.919763
0.929054
0.949422
0.968599
0.97219
0.968044
0.955752
0.953615
0.242302
0.256982
0.280574
0.297015
0.288846
0.279415
0.293996
0.378112
0.602099
0.823455
0.904859
0.9048
0.898297
0.910595
0.942811
0.977253
0.979929
0.967467
0.950607
0.955292
0.312688
0.321051
0.348823
0.348099
0.327741
0.315452
0.319487
0.323605
0.362475
0.518046
0.744664
0.87738
0.883906
0.89268
0.929317
0.970685
0.974697
0.961727
0.950835
0.960385
0.391163
0.401452
0.404165
0.404526
0.382415
0.363116
0.366641
0.367278
0.364236
0.376945
0.462713
0.676747
0.869482
0.885141
0.910316
0.956133
0.958089
0.942159
0.949261
0.966275
0.516126
0.481573
0.472867
0.474077
0.449567
0.404938
0.397957
0.396638
0.39128
0.385179
0.390489
0.446082
0.653676
0.85478
0.894529
0.937372
0.927356
0.929406
0.954159
0.970083
0.67966
0.59832
0.527616
0.525982
0.515095
0.464145
0.444663
0.439985
0.42939
0.41856
0.408489
0.412471
0.454688
0.650231
0.84793
0.927564
0.900255
0.919073
0.965378
0.970387
0.88161
0.741133
0.619767
0.599682
0.594502
0.547966
0.509816
0.489017
0.452979
0.442072
0.43947
0.432799
0.438043
0.467897
0.623762
0.833285
0.87051
0.929956
0.97447
0.96616
1.27613
0.999558
0.739977
0.640861
0.650863
0.644267
0.622599
0.591151
0.538939
0.493152
0.48315
0.475304
0.473733
0.475942
0.483809
0.55972
0.740521
0.88676
0.939294
0.953702
2.00999
1.54307
1.18349
0.879675
0.813549
0.770159
0.739261
0.689281
0.619677
0.56157
0.542359
0.536513
0.527248
0.515048
0.491179
0.491107
0.528342
0.641069
0.78344
0.904314
2.50294
2.15481
1.74346
1.34124
1.08552
0.924437
0.818095
0.768284
0.706242
0.659312
0.656974
0.640716
0.60932
0.579946
0.54925
0.522442
0.527753
0.537214
0.573855
0.738039
2.36932
2.34815
2.23751
1.93367
1.5607
1.28718
1.04564
0.958318
0.893678
0.81818
0.765344
0.710152
0.651594
0.616671
0.602958
0.586201
0.570646
0.559764
0.548153
0.581909
1.68426
2.15528
2.21953
2.18797
2.04184
1.78706
1.48634
1.23289
1.08852
0.955585
0.867234
0.804593
0.732175
0.695532
0.69279
0.678848
0.655106
0.626719
0.580526
0.580284
1.10636
1.44223
1.85239
2.11255
2.10891
2.07066
1.94082
1.68751
1.44061
1.22397
1.06801
1.00223
0.925213
0.849478
0.791743
0.737862
0.693153
0.659023
0.630766
0.606406
1.00444
1.04498
1.20769
1.55173
1.85662
2.01792
2.01613
1.97263
1.83672
1.6315
1.38964
1.21659
1.0862
0.97274
0.891582
0.818599
0.75429
0.730572
0.730035
0.699902
1.00009
1.00113
1.01066
1.0783
1.26823
1.56922
1.82692
1.93533
1.92753
1.88707
1.76931
1.57575
1.38328
1.21495
1.09812
1.01477
0.932162
0.874407
0.829587
0.761586
1
1.00001
1.00015
1.00243
1.01915
1.09929
1.28961
1.55559
1.76744
1.859
1.85264
1.81441
1.71782
1.55748
1.37575
1.22641
1.1055
0.999586
0.921102
0.83131
1
1
1
1.00003
1.00033
1.00384
1.02413
1.10881
1.28547
1.52223
1.70188
1.78807
1.78448
1.75759
1.67796
1.53732
1.38176
1.23102
1.12458
0.999187
1
1
1
1
1
1.00005
1.00048
1.00475
1.02657
1.10502
1.26331
1.47834
1.6376
1.72478
1.72275
1.70301
1.64397
1.52888
1.39669
1.19632
1
1
1
1
1
1
1
1.00006
1.00058
1.00472
1.02559
1.09414
1.23396
1.42218
1.58038
1.66229
1.66253
1.65201
1.61627
1.46303
1
1
1
1
1
1
1
1
1.00001
1.00006
1.0006
1.00409
1.02248
1.07984
1.19801
1.36751
1.51077
1.61221
1.61211
1.58875
1
1
1
1
1
1
1
1
1
1
1.00001
1.00005
1.00053
1.00342
1.0171
1.06618
1.16272
1.31259
1.44518
1.55212
1
1
1
1
1
1
1
1
1
1
1
1
1.00001
1.00004
1.0004
1.00266
1.01394
1.05102
1.13659
1.38995
1.61945
2.46347
2.58635
2.08536
1.30934
1.03707
1.0019
1.00005
1
1
1
1
1
1
1
2.346
2.81473
2.52782
1.54092
1.04814
1.00079
1
1
1
1
1
1
1
1
1
2.93033
2.87051
1.98108
1.15307
1.00529
1.00005
1
1
1
1
1
1
1
1
1
3.25132
2.55577
1.36535
1.01929
1.00018
1
1
1
1
1
1
1
1
1
1
3.31741
1.68309
1.04726
1.00052
1
1
1
1
1
1
1
1
1
1
1
2.06871
1.07296
1.00048
0.999999
1
1
1
1
1
1
1
1
1
1
1
1.10264
1.00057
0.999997
1
1
1
1
1
1
1
1
1
1
1
1
0.998139
0.999865
0.999996
1
1
1
1
1
1
1
1
1
1
1
1
0.999966
1
1
1
1
1
1
1
1
1
1
1
1
1
1
1
1
1
1
1
1
1
1
1
1
1
1
1
1
1
1
1
1
1
1
1
1
1
1
1
1
1
1
1
1
1
1
1
1
1
1
1
1
1
1
1
1
1
1
1
1
1
1
1
1
1
1
1
1
1
1
1
1
1
1
1
1
1
1
1
1
1
1
1
1
1
1
1
1
1
1
1
1
1
1
1
1
1
1
1
1
1
1
1
1
1
1
1
1
1
1
1
1
1
1
1
1
1
1
1
1
1
1
1
1
1
1
1
1
1
1
1
1
1
1
1
1
1
1
1
1
1
1
1
1
1
1
1
1
1
1
1
1
1
1
1
1
1
1
1
1
1
1
1
1
1
1
1
1
1
1
1
1
1
1
1
1
1
1
1
1
1
1
1
1
1
1
1
1
1
1
1
1
1
1
1
1
1
1
1
1
1
1
1
1
1
1
1
1
1
1
1
1
1
1
1
1
1
1
1
1
1
1
1
1
1
1
1
1
1
1
1
1
1
1
1
1
1
1
1
1
1
1
1
1
1
1
1
1
1
1
1
1
1
1
1
1
1
1
1
1
1
1
1
1
1
1
1
1
1
1
1
1
1
1
1
1
1
1
1
1
1
1
1
1
1
1
1
1
1
1
1
1
1
1
1
1
1
1
1
1
1
1
1
1
1
1
1
1
1
1
1
1
1
1
1
1
1
1
1
1
1
1
1
1
1
1
1
1
1
1
1
1
1
1
1
1
1
1
1
1
1
1
1
1
1
1
1
1
1
1
1
1
1
1
1
1
1
1
1
1
1
1
1
1
1
1
1
1
1
1
1
1
1
1
1
1
1
1
1
1
1
1
1
1
1
1
1
1
1
1
1
1
1
1
1
1
1
1
1
1
1
1
1
1
1
1
1
1
1
1
1
1
1
1
1
1
1
1
1
1
1
1
1
1
1
1
1
1
1
1
1
1
1
1
1
1
1
1
1
1
1
1
1
1
1
1
1
1
1
1
1
1
1
1
1
1
1
1
1
1
1
1
1
1
1
1
1
1
1
1
1
1
1
1
1
1
1
1
1
1
1
1
1
1
1
1
1
1
1
1
1
1
1
1
1
1
1
1
1
1
1
1
1
1
1
1
1
1
1
1
1
1
1
1
1
1
1
1
1
1
1
1
1
1
1
1
1
1
1
1
1
1
1
1
1
1
1
1
1
1
1
1
1
1
1
1
1
1
1
1
1
1
1
1
1
1
1
1
1
1
1
1
1
1
1
1
1
1
1
1
1
1
1
1
1
1
1
1
1
1
1
1
1
1
1
1
1
1
1
1
1
1
1
1
1
1
1
1
1
1
1
1
1
1
1
1
1
1
1
1
1
1
1
1
1
1
1
1
1
1
1
1
1
1
1
1
1
1
1
1
1
1
1
1
1
1
1
1
1
1
1
1
1
1
1
1
1
1
1
1
1
1
1
1
1
1
1
1
1
1
1
1
1
1
1
1
1
1
1
1
1
1
1
1
1
1
1
1
1
1
1
1
1
1
1
1
1
1
1
1
1
1
1
1
1
1
1
1
1
1
1
1
1
1
1
1
1
1
1
1
1
1
1
1
1
1
1
1
1
1
1
1
1
1
1
1
1
1
1
1
1
1
1
1
1
1
1
1
1
1
1
1
1
1
1
1
1
1
1
1
1
1
1
1
1
1
1
1
1
1
1
1
1
1
1
1
1
1
1
1
1
1
1
1
1
1
1
1
1
1
1
1
1
1
1
1
1
1
1
1
1
1
1
1
1
1
1
1
1
1
1
1
1
1
1
1
1
1
1
1
1
1
1
1
1
1
1
1
1
1
1
1
1
1
1
1
1
1
1
1
1
1
1
1
1
1
1
1
1
1
1
1
1
1
0.999966
1
1
1
1
1
1
1
1
1
1
1
1
1
1
0.998136
0.999865
0.999996
1
1
1
1
1
1
1
1
1
1
1
1
1.10289
1.00058
0.999997
1
1
1
1
1
1
1
1
1
1
1
1
2.06935
1.073
1.00048
0.999999
1
1
1
1
1
1
1
1
1
1
1
3.3179
1.68317
1.04724
1.00051
1
1
1
1
1
1
1
1
1
1
1
3.25171
2.55562
1.36525
1.01931
1.00018
1
1
1
1
1
1
1
1
1
1
2.93061
2.87029
1.98042
1.15288
1.00528
1.00005
1
1
1
1
1
1
1
1
1
2.34633
2.81452
2.52772
1.54088
1.04814
1.00079
1
1
1
1
1
1
1
1
1
1.61909
2.46282
2.58615
2.08556
1.3095
1.03714
1.0019
1.00005
1
1
1
1
1
1
1
1.2802
2.01431
2.5019
2.36863
1.68477
1.1061
1.00443
1.00009
1
1
1
1
1
1
1
0.992982
1.54273
2.15819
2.34902
2.15575
1.44238
1.04498
1.00114
1.00001
1
1
1
1
1
1
0.730999
1.1674
1.74522
2.23914
2.21808
1.85212
1.20757
1.01064
1.00015
1
1
1
1
1
1
0.648886
0.885714
1.33882
1.92882
2.18589
2.11147
1.55169
1.07834
1.00244
1.00003
1
1
1
1
1
0.657509
0.818667
1.09045
1.56692
2.03876
2.10826
1.85603
1.26826
1.01914
1.00033
1
1
1
1
1
0.644869
0.774767
0.922183
1.29496
1.78957
2.07134
2.01866
1.56948
1.09929
1.00383
1.00005
1
1
1
1
0.623244
0.745732
0.804437
1.02983
1.49299
1.94338
2.01672
1.82687
1.28962
1.02414
1.00048
1
1
1
1
0.589767
0.697924
0.76793
0.945241
1.22751
1.68681
1.97361
1.93564
1.55539
1.10873
1.00476
1.00006
1
1
1
0.529529
0.622261
0.720817
0.89376
1.08177
1.43799
1.83735
1.92784
1.76734
1.28534
1.02656
1.00058
1.00001
1
1
0.485531
0.556691
0.666612
0.827262
0.961239
1.22224
1.62734
1.88688
1.85876
1.52238
1.10516
1.00473
1.00006
1
1
0.481405
0.535516
0.65466
0.765017
0.871572
1.07785
1.38968
1.76716
1.85227
1.70183
1.26366
1.02565
1.0006
1.00001
1
0.476771
0.535313
0.639081
0.707791
0.796345
0.997007
1.21963
1.57558
1.81402
1.78779
1.47856
1.09424
1.00409
1.00005
1
0.472859
0.528655
0.614408
0.657296
0.723836
0.911787
1.08432
1.38348
1.718
1.78437
1.63743
1.23378
1.0225
1.00053
1.00001
0.469231
0.51377
0.580402
0.621998
0.701185
0.847341
0.973393
1.21642
1.55675
1.75726
1.72468
1.42298
1.07968
1.00341
1.00004
0.480834
0.490591
0.545477
0.60282
0.700074
0.796425
0.89087
1.09486
1.37674
1.67777
1.72261
1.57798
1.19837
1.01713
1.0004
0.564164
0.491263
0.517922
0.585523
0.68268
0.743448
0.818105
1.00993
1.22647
1.53806
1.70314
1.6645
1.36686
1.06598
1.00265
0.746352
0.527749
0.523971
0.573537
0.654014
0.695273
0.764924
0.934623
1.10366
1.38318
1.644
1.66383
1.51101
1.16249
1.01391
0.890955
0.643676
0.535979
0.561413
0.621828
0.658458
0.735577
0.880535
0.999079
1.23085
1.52873
1.65215
1.61259
1.31264
1.05099
0.942225
0.787626
0.576994
0.5475
0.572561
0.630636
0.72918
0.83339
0.921841
1.12391
1.39617
1.61577
1.61207
1.44521
1.13659
0.95158
0.908841
0.746674
0.580696
0.572851
0.60805
0.696631
0.760447
0.831318
0.99925
1.19593
1.46268
1.58863
1.55205
1.38987
0.881553
0.742518
0.625354
0.606963
0.593048
0.542012
0.504918
0.486871
0.452113
0.439094
0.437471
0.428268
0.435422
0.465281
0.620898
0.831021
0.873394
0.932328
0.975871
0.962528
0.680534
0.600573
0.534516
0.533227
0.514736
0.466642
0.451722
0.444095
0.431325
0.420503
0.408662
0.411948
0.455858
0.63864
0.845102
0.936464
0.911309
0.925396
0.966517
0.964811
0.515338
0.487544
0.473704
0.471914
0.441487
0.399863
0.399435
0.398029
0.391228
0.385805
0.39403
0.447708
0.660202
0.874685
0.900558
0.942845
0.935461
0.934911
0.955497
0.966025
0.391782
0.396637
0.411003
0.409552
0.382853
0.362402
0.367704
0.367525
0.363838
0.376343
0.463811
0.687013
0.860538
0.908143
0.91946
0.950535
0.954165
0.943871
0.949194
0.964032
0.311502
0.323513
0.343889
0.341295
0.319912
0.312257
0.319567
0.323677
0.359765
0.513572
0.743951
0.886945
0.879848
0.893607
0.93006
0.963826
0.966599
0.953244
0.946602
0.958579
0.24024
0.258391
0.281901
0.292713
0.284439
0.278317
0.294301
0.383757
0.601926
0.820342
0.902263
0.904373
0.885619
0.898805
0.940811
0.969818
0.970842
0.957365
0.94484
0.954577
0.187839
0.213213
0.241064
0.238676
0.256265
0.32491
0.510594
0.716277
0.831321
0.900097
0.93627
0.92028
0.908353
0.919602
0.948644
0.965131
0.967267
0.958744
0.948183
0.954948
0.135654
0.155217
0.229556
0.359605
0.530715
0.683834
0.783228
0.858859
0.89468
0.911707
0.91997
0.923795
0.931001
0.94393
0.957096
0.962329
0.963203
0.959065
0.953715
0.956479
0.274413
0.40553
0.54656
0.669742
0.741697
0.827646
0.870286
0.895496
0.893587
0.899216
0.906085
0.924758
0.9508
0.960668
0.958531
0.951366
0.949906
0.953835
0.959258
0.961257
0.560139
0.643602
0.709642
0.771996
0.806652
0.869799
0.893309
0.899268
0.890966
0.88927
0.897692
0.931574
0.971013
0.974257
0.9551
0.933803
0.935786
0.957053
0.972042
0.967256
)
;

boundaryField
{
    inlet
    {
        type            fixedValue;
        value           uniform 1;
    }
    outlet
    {
        type            zeroGradient;
    }
    airfoil
    {
        type            zeroGradient;
    }
    top
    {
        type            symmetryPlane;
    }
    bottom
    {
        type            symmetryPlane;
    }
    defaultFaces
    {
        type            empty;
    }
}


// ************************************************************************* //
