/*--------------------------------*- C++ -*----------------------------------*\
  =========                 |
  \\      /  F ield         | OpenFOAM: The Open Source CFD Toolbox
   \\    /   O peration     | Website:  https://openfoam.org
    \\  /    A nd           | Version:  7
     \\/     M anipulation  |
\*---------------------------------------------------------------------------*/
FoamFile
{
    version     2.0;
    format      ascii;
    class       volScalarField;
    location    "6.9";
    object      T;
}
// * * * * * * * * * * * * * * * * * * * * * * * * * * * * * * * * * * * * * //

dimensions      [0 0 0 1 0 0 0];

internalField   nonuniform List<scalar> 
3700
(
100.434
100.663
100.769
100.828
100.815
100.853
100.981
101.109
101.124
101.107
101.081
101.087
101.128
101.133
101.116
101.086
101.09
101.098
101.096
101.091
100.094
100.146
100.271
100.351
100.289
100.33
100.558
100.721
100.698
100.572
100.45
100.498
100.608
100.61
100.557
100.484
100.491
100.525
100.589
100.591
100.118
100.129
100.133
100.102
100.033
99.9869
99.9374
99.9084
99.8969
99.8974
99.9087
99.9357
99.9681
100
100.025
100.038
100.045
100.045
100.039
100.024
100.165
100.153
100.125
100.076
100.045
100.034
100.039
100.04
100.02
100.006
99.9638
99.9599
99.9647
99.9936
100.028
100.048
100.063
100.082
100.093
100.096
100.228
100.162
100.072
100.034
100.024
100.032
100.062
100.106
100.113
100.105
100.097
100.09
100.063
100.042
100.035
100.041
100.06
100.092
100.116
100.148
100.267
100.132
99.9707
99.9487
99.9452
99.9705
100.029
100.103
100.133
100.142
100.158
100.155
100.154
100.148
100.136
100.118
100.105
100.104
100.122
100.182
100.271
100.076
99.9131
99.9101
99.9171
99.936
99.9867
100.054
100.095
100.139
100.17
100.177
100.196
100.201
100.206
100.211
100.208
100.203
100.201
100.229
100.246
100.033
99.8922
99.8983
99.9105
99.9299
99.988
100.043
100.072
100.115
100.152
100.173
100.205
100.224
100.243
100.264
100.276
100.283
100.286
100.318
100.184
99.9858
99.8912
99.9202
99.9462
100.01
100.078
100.113
100.126
100.151
100.158
100.178
100.203
100.232
100.261
100.293
100.322
100.343
100.355
100.392
100.109
99.9176
99.8679
99.9186
99.9711
100.076
100.159
100.187
100.22
100.256
100.27
100.287
100.3
100.309
100.317
100.332
100.362
100.395
100.422
100.455
100.043
99.8393
99.7718
99.8859
99.9695
100.107
100.195
100.211
100.259
100.317
100.345
100.365
100.384
100.392
100.404
100.417
100.435
100.455
100.499
100.496
99.9809
99.7763
99.7372
99.8728
99.9802
100.158
100.215
100.227
100.281
100.345
100.389
100.419
100.445
100.456
100.475
100.494
100.518
100.54
100.576
100.567
99.8959
99.725
99.7417
99.8737
100.087
100.296
100.316
100.367
100.419
100.445
100.468
100.487
100.505
100.517
100.539
100.568
100.598
100.625
100.658
100.655
99.7507
99.643
99.7595
99.9559
100.236
100.405
100.436
100.488
100.532
100.56
100.573
100.586
100.597
100.608
100.627
100.651
100.68
100.71
100.727
100.736
99.5485
99.5872
99.8528
100.137
100.378
100.471
100.519
100.565
100.605
100.633
100.647
100.663
100.681
100.704
100.73
100.752
100.77
100.784
100.78
100.775
99.3886
99.6331
100.003
100.306
100.485
100.538
100.593
100.642
100.685
100.706
100.721
100.741
100.766
100.793
100.813
100.823
100.821
100.815
100.791
100.747
99.3821
99.8486
100.199
100.434
100.597
100.687
100.731
100.766
100.792
100.806
100.818
100.834
100.851
100.856
100.855
100.843
100.79
100.677
100.517
100.28
99.5676
100.125
100.467
100.662
100.761
100.811
100.843
100.866
100.876
100.88
100.882
100.883
100.881
100.859
100.772
100.622
100.359
100.101
100.006
99.9978
100.126
100.528
100.732
100.831
100.889
100.91
100.924
100.923
100.918
100.906
100.893
100.841
100.73
100.476
100.15
100.011
99.9967
99.9985
99.9992
99.9998
100.695
100.834
100.911
100.947
100.963
100.956
100.955
100.932
100.842
100.758
100.571
100.23
100.029
99.9957
99.9977
99.9989
99.9998
100
100
100
100.996
100.993
100.99
100.987
100.982
100.956
100.889
100.462
99.8427
100
100
100
100
100
100
100
100
100
100
100
100.995
100.992
100.986
100.973
100.95
100.862
100.513
100.022
100
100
100
100
100
100
100
100
100
100
100
100
100.991
100.991
100.986
100.966
100.908
100.623
100.032
99.9994
100
100
100
100
100
100
100
100
100
100
100
100
100.987
100.991
100.987
100.957
100.783
100.214
99.9967
100
100
100
100
100
100
100
100
100
100
100
100
100
100.983
100.991
100.987
100.921
100.567
99.9921
100
100
100
100
100
100
100
100
100
100
100
100
100
100
100.979
100.993
100.985
100.835
100.284
100
100
100
100
100
100
100
100
100
100
100
100
100
100
100
100.976
100.985
100.975
100.699
99.9925
100
100
100
100
100
100
100
100
100
100
100
100
100
100
100
100.977
100.971
100.914
100.468
100
100
100
100
100
100
100
100
100
100
100
100
100
100
100
100
101.001
100.965
100.817
100.149
100
100
100
100
100
100
100
100
100
100
100
100
100
100
100
100
101.016
100.942
100.672
99.9965
100
100
100
100
100
100
100
100
100
100
100
100
100
100
100
100
101.025
100.902
100.505
100
100
100
100
100
100
100
100
100
100
100
100
100
100
100
100
100
101.032
100.856
100.319
100
100
100
100
100
100
100
100
100
100
100
100
100
100
100
100
100
101.035
100.803
100.122
100
100
100
100
100
100
100
100
100
100
100
100
100
100
100
100
100
101.026
100.744
100.014
100
100
100
100
100
100
100
100
100
100
100
100
100
100
100
100
100
101.007
100.662
100
100
100
100
100
100
100
100
100
100
100
100
100
100
100
100
100
100
100.984
100.557
100
100
100
100
100
100
100
100
100
100
100
100
100
100
100
100
100
100
100.954
100.441
100
100
100
100
100
100
100
100
100
100
100
100
100
100
100
100
100
100
100.918
100.247
100
100
100
100
100
100
100
100
100
100
100
100
100
100
100
100
100
100
100.859
100.005
100
100
100
100
100
100
100
100
100
100
100
100
100
100
100
100
100
100
100.807
100
100
100
100
100
100
100
100
100
100
100
100
100
100
100
100
100
100
100
100.808
100
100
100
100
100
100
100
100
100
100
100
100
100
100
100
100
100
100
100
100.857
100.005
100
100
100
100
100
100
100
100
100
100
100
100
100
100
100
100
100
100
100.918
100.247
100
100
100
100
100
100
100
100
100
100
100
100
100
100
100
100
100
100
100.957
100.447
100
100
100
100
100
100
100
100
100
100
100
100
100
100
100
100
100
100
100.984
100.558
100
100
100
100
100
100
100
100
100
100
100
100
100
100
100
100
100
100
101.008
100.658
100
100
100
100
100
100
100
100
100
100
100
100
100
100
100
100
100
100
101.024
100.742
100.013
100
100
100
100
100
100
100
100
100
100
100
100
100
100
100
100
100
101.034
100.803
100.123
100
100
100
100
100
100
100
100
100
100
100
100
100
100
100
100
100
101.032
100.858
100.32
100
100
100
100
100
100
100
100
100
100
100
100
100
100
100
100
100
101.026
100.903
100.508
100
100
100
100
100
100
100
100
100
100
100
100
100
100
100
100
100
101.017
100.942
100.674
99.9965
100
100
100
100
100
100
100
100
100
100
100
100
100
100
100
100
101.002
100.966
100.817
100.142
100
100
100
100
100
100
100
100
100
100
100
100
100
100
100
100
100.976
100.971
100.913
100.47
100
100
100
100
100
100
100
100
100
100
100
100
100
100
100
100
100.974
100.983
100.973
100.7
99.9926
100
100
100
100
100
100
100
100
100
100
100
100
100
100
100
100.978
100.993
100.985
100.836
100.279
100
100
100
100
100
100
100
100
100
100
100
100
100
100
100
100.983
100.992
100.987
100.92
100.572
99.9921
100
100
100
100
100
100
100
100
100
100
100
100
100
100
100.987
100.991
100.988
100.958
100.784
100.213
99.9968
100
100
100
100
100
100
100
100
100
100
100
100
100
100.991
100.992
100.987
100.967
100.91
100.619
100.029
99.9995
100
100
100
100
100
100
100
100
100
100
100
100
100.995
100.992
100.986
100.973
100.948
100.859
100.51
100.022
100
100
100
100
100
100
100
100
100
100
100
100
100.996
100.993
100.99
100.986
100.98
100.955
100.891
100.468
99.8388
100
100
100
100
100
100
100
100
100
100
100
100.694
100.834
100.911
100.946
100.962
100.956
100.956
100.933
100.842
100.758
100.569
100.229
100.029
99.9956
99.9977
99.9989
99.9998
100
100
100
100.124
100.527
100.734
100.831
100.888
100.909
100.925
100.924
100.918
100.907
100.892
100.84
100.729
100.476
100.15
100.011
99.9967
99.9985
99.9992
99.9998
99.5569
100.129
100.459
100.658
100.761
100.811
100.844
100.867
100.877
100.88
100.882
100.883
100.882
100.859
100.773
100.622
100.358
100.101
100.006
99.9978
99.373
99.87
100.208
100.426
100.589
100.685
100.732
100.767
100.792
100.805
100.817
100.833
100.851
100.856
100.855
100.843
100.79
100.676
100.517
100.28
99.3919
99.6742
100.01
100.301
100.479
100.535
100.592
100.641
100.684
100.705
100.721
100.741
100.765
100.793
100.813
100.823
100.821
100.815
100.791
100.747
99.5365
99.601
99.8941
100.155
100.376
100.466
100.515
100.563
100.606
100.633
100.646
100.663
100.681
100.704
100.731
100.752
100.77
100.784
100.78
100.775
99.7069
99.6535
99.8297
99.9874
100.244
100.401
100.433
100.487
100.531
100.56
100.572
100.585
100.596
100.609
100.628
100.652
100.68
100.709
100.727
100.736
99.8308
99.7191
99.8015
99.9033
100.103
100.298
100.318
100.366
100.418
100.442
100.466
100.485
100.504
100.518
100.54
100.568
100.597
100.624
100.658
100.655
99.9135
99.7712
99.7849
99.8904
99.994
100.17
100.223
100.233
100.285
100.345
100.388
100.419
100.446
100.457
100.475
100.494
100.517
100.539
100.576
100.567
99.9872
99.831
99.8039
99.9006
99.9758
100.11
100.197
100.215
100.262
100.318
100.347
100.366
100.385
100.393
100.404
100.416
100.434
100.454
100.5
100.496
100.064
99.9093
99.8737
99.9192
99.9729
100.076
100.158
100.186
100.221
100.257
100.271
100.288
100.301
100.31
100.316
100.33
100.361
100.394
100.423
100.456
100.141
99.9863
99.8965
99.9154
99.9409
100.007
100.073
100.108
100.124
100.15
100.158
100.178
100.202
100.23
100.26
100.291
100.321
100.343
100.355
100.393
100.207
100.04
99.8969
99.886
99.895
99.9193
99.9787
100.033
100.066
100.111
100.15
100.172
100.204
100.223
100.241
100.263
100.275
100.283
100.287
100.319
100.258
100.084
99.9148
99.8956
99.8994
99.9238
99.9757
100.041
100.085
100.135
100.169
100.177
100.195
100.2
100.205
100.21
100.207
100.203
100.201
100.23
100.269
100.136
99.9674
99.9283
99.9254
99.9547
100.012
100.087
100.125
100.141
100.157
100.154
100.153
100.147
100.135
100.117
100.105
100.105
100.125
100.183
100.257
100.187
100.064
100.009
100.007
100.023
100.052
100.095
100.109
100.106
100.099
100.091
100.064
100.042
100.034
100.041
100.063
100.095
100.117
100.147
100.217
100.186
100.139
100.075
100.042
100.026
100.035
100.042
100.024
100.012
99.9675
99.9597
99.9616
99.9897
100.027
100.049
100.066
100.084
100.092
100.093
100.155
100.157
100.15
100.11
100.032
99.9842
99.9445
99.9176
99.9
99.8976
99.906
99.9302
99.9612
99.9954
100.023
100.038
100.046
100.045
100.036
100.021
100.129
100.178
100.235
100.301
100.479
100.604
100.553
100.512
100.614
100.719
100.716
100.628
100.406
100.333
100.372
100.475
100.52
100.496
100.396
100.279
100.508
100.72
100.734
100.77
100.873
100.963
100.995
101.03
101.109
101.147
101.145
101.123
101.053
101.025
101.048
101.091
101.092
101.08
101.034
100.983
101.047
101.035
101.015
100.985
100.954
100.936
100.923
100.908
100.885
100.864
100.857
100.857
100.858
100.853
100.837
100.823
100.818
100.817
100.815
100.802
100.604
100.654
100.713
100.728
100.756
100.788
100.802
100.808
100.806
100.802
100.801
100.802
100.804
100.803
100.798
100.793
100.79
100.788
100.785
100.776
100.022
100.068
100.182
100.289
100.426
100.513
100.57
100.611
100.647
100.671
100.678
100.682
100.687
100.695
100.704
100.712
100.714
100.713
100.711
100.711
100.076
100.091
100.107
100.096
100.117
100.198
100.339
100.426
100.494
100.547
100.565
100.564
100.568
100.58
100.596
100.609
100.614
100.615
100.617
100.624
100.133
100.136
100.137
100.142
100.125
100.116
100.136
100.215
100.358
100.46
100.485
100.489
100.491
100.502
100.519
100.533
100.536
100.536
100.537
100.547
100.186
100.179
100.189
100.184
100.167
100.154
100.155
100.156
100.188
100.301
100.406
100.45
100.455
100.46
100.476
100.488
100.489
100.487
100.487
100.495
100.232
100.229
100.225
100.222
100.209
100.197
100.195
100.19
100.182
100.187
100.248
100.361
100.434
100.439
100.447
100.459
100.459
100.455
100.458
100.466
100.298
100.271
100.265
100.266
100.253
100.231
100.219
100.209
100.195
100.182
100.185
100.219
100.333
100.414
100.423
100.435
100.432
100.433
100.443
100.448
100.366
100.332
100.298
100.296
100.289
100.265
100.25
100.237
100.217
100.2
100.184
100.185
100.207
100.315
100.39
100.415
100.407
100.415
100.431
100.433
100.437
100.395
100.346
100.33
100.322
100.299
100.281
100.262
100.229
100.209
100.199
100.189
100.188
100.198
100.283
100.366
100.381
100.404
100.418
100.415
100.537
100.468
100.385
100.337
100.335
100.328
100.317
100.3
100.266
100.23
100.215
100.204
100.196
100.188
100.182
100.223
100.309
100.361
100.374
100.379
100.615
100.551
100.488
100.411
100.378
100.352
100.338
100.316
100.283
100.249
100.231
100.22
100.206
100.187
100.167
100.156
100.172
100.223
100.274
100.317
100.608
100.584
100.543
100.482
100.427
100.377
100.338
100.318
100.295
100.273
100.261
100.243
100.22
100.196
100.171
100.151
100.144
100.134
100.144
100.217
100.489
100.547
100.541
100.517
100.473
100.424
100.368
100.342
100.321
100.293
100.266
100.239
100.209
100.186
100.17
100.152
100.134
100.118
100.102
100.108
100.25
100.378
100.446
100.482
100.472
100.448
100.408
100.361
100.328
100.291
100.26
100.237
100.209
100.187
100.176
100.16
100.142
100.12
100.096
100.076
100.042
100.146
100.256
100.337
100.386
100.414
100.406
100.38
100.344
100.303
100.267
100.248
100.224
100.196
100.17
100.144
100.119
100.099
100.084
100.062
100.002
100.015
100.066
100.156
100.232
100.289
100.331
100.349
100.339
100.317
100.28
100.246
100.216
100.186
100.16
100.134
100.107
100.094
100.089
100.068
100
100
100.003
100.025
100.078
100.148
100.209
100.25
100.278
100.291
100.282
100.259
100.228
100.196
100.17
100.149
100.125
100.104
100.085
100.056
100
100
100
100.001
100.006
100.03
100.08
100.139
100.187
100.217
100.241
100.244
100.236
100.216
100.186
100.158
100.13
100.103
100.079
100.048
100
100
100
100
100
100.001
100.007
100.033
100.078
100.129
100.169
100.192
100.211
100.21
100.202
100.183
100.156
100.126
100.101
100.069
100
100
100
100
100
100
100
100.001
100.008
100.031
100.073
100.118
100.154
100.174
100.186
100.184
100.177
100.161
100.137
100.098
100
100
100
100
100
100
100
100
100
100.001
100.008
100.028
100.065
100.107
100.141
100.159
100.168
100.167
100.162
100.138
100
100
100
100
100
100
100
100
100
100
100
100.001
100.007
100.024
100.056
100.096
100.128
100.147
100.154
100.151
100
100
100
100
100
100
100
100
100
100
100
100
100
100.001
100.005
100.02
100.047
100.084
100.113
100.138
100
100
100
100
100
100
100
100
100
100
100
100
100
100
100
100.001
100.004
100.016
100.041
100.106
100.596
100.653
100.61
100.415
100.142
100.017
100.001
100
100
100
100
100
100
100
100
100.67
100.662
100.518
100.217
100.022
100
100
100
100
100
100
100
100
100
100
100.704
100.635
100.374
100.074
100.002
100
100
100
100
100
100
100
100
100
100
100.719
100.518
100.167
100.009
100
100
100
100
100
100
100
100
100
100
100
100.65
100.283
100.024
100
100
100
100
100
100
100
100
100
100
100
100
100.395
100.038
100
100
100
100
100
100
100
100
100
100
100
100
100
100.043
100
100
100
100
100
100
100
100
100
100
100
100
100
100
99.9995
100
100
100
100
100
100
100
100
100
100
100
100
100
100
100
100
100
100
100
100
100
100
100
100
100
100
100
100
100
100
100
100
100
100
100
100
100
100
100
100
100
100
100
100
100
100
100
100
100
100
100
100
100
100
100
100
100
100
100
100
100
100
100
100
100
100
100
100
100
100
100
100
100
100
100
100
100
100
100
100
100
100
100
100
100
100
100
100
100
100
100
100
100
100
100
100
100
100
100
100
100
100
100
100
100
100
100
100
100
100
100
100
100
100
100
100
100
100
100
100
100
100
100
100
100
100
100
100
100
100
100
100
100
100
100
100
100
100
100
100
100
100
100
100
100
100
100
100
100
100
100
100
100
100
100
100
100
100
100
100
100
100
100
100
100
100
100
100
100
100
100
100
100
100
100
100
100
100
100
100
100
100
100
100
100
100
100
100
100
100
100
100
100
100
100
100
100
100
100
100
100
100
100
100
100
100
100
100
100
100
100
100
100
100
100
100
100
100
100
100
100
100
100
100
100
100
100
100
100
100
100
100
100
100
100
100
100
100
100
100
100
100
100
100
100
100
100
100
100
100
100
100
100
100
100
100
100
100
100
100
100
100
100
100
100
100
100
100
100
100
100
100
100
100
100
100
100
100
100
100
100
100
100
100
100
100
100
100
100
100
100
100
100
100
100
100
100
100
100
100
100
100
100
100
100
100
100
100
100
100
100
100
100
100
100
100
100
100
100
100
100
100
100
100
100
100
100
100
100
100
100
100
100
100
100
100
100
100
100
100
100
100
100
100
100
100
100
100
100
100
100
100
100
100
100
100
100
100
100
100
100
100
100
100
100
100
100
100
100
100
100
100
100
100
100
100
100
100
100
100
100
100
100
100
100
100
100
100
100
100
100
100
100
100
100
100
100
100
100
100
100
100
100
100
100
100
100
100
100
100
100
100
100
100
100
100
100
100
100
100
100
100
100
100
100
100
100
100
100
100
100
100
100
100
100
100
100
100
100
100
100
100
100
100
100
100
100
100
100
100
100
100
100
100
100
100
100
100
100
100
100
100
100
100
100
100
100
100
100
100
100
100
100
100
100
100
100
100
100
100
100
100
100
100
100
100
100
100
100
100
100
100
100
100
100
100
100
100
100
100
100
100
100
100
100
100
100
100
100
100
100
100
100
100
100
100
100
100
100
100
100
100
100
100
100
100
100
100
100
100
100
100
100
100
100
100
100
100
100
100
100
100
100
100
100
100
100
100
100
100
100
100
100
100
100
100
100
100
100
100
100
100
100
100
100
100
100
100
100
100
100
100
100
100
100
100
100
100
100
100
100
100
100
100
100
100
100
100
100
100
100
100
100
100
100
100
100
100
100
100
100
100
100
100
100
100
100
100
100
100
100
100
100
100
100
100
100
100
100
100
100
100
100
100
100
100
100
100
100
100
100
100
100
100
100
100
100
100
100
100
100
100
100
100
100
100
100
100
100
100
100
100
100
100
100
100
100
100
100
100
100
100
100
100
100
100
100
100
100
100
100
100
100
100
100
100
100
100
100
100
100
100
100
100
100
100
100
100
100
100
100
100
100
100
100
100
100
100
100
100
100
100
100
100
100
100
100
100
100
100
100
100
100
100
100
100
100
100
100
100
100
100
100
100
100
100
100
100
100
100
100
100
100
100
100
100
100
100
100
100
100
100
100
100
100
100
100
100
100
100
100
100
100
100
100
100
100
100
100
100
100
100
100
100
100
100
100
100
100
100
100
100
100
100
100
100
100
100
100
100
100
100
100
100
100
100
100
100
100
100
100
100
100
100
100
100
100
100
100
100
100
100
100
100
100
100
100
100
100
100
100
100
100
100
100
100
100
100
100
100
100
100
100
100
100
100
100
100
100
100
100
100
100
100
100
100
100
100
100
100
100
100
100
100
100
100
100
100
100
100
100
100
100
100
100
100
100
100
100
100
100
100
100
100
100
100
100
100
100
100
100
100
100
100
99.9995
100
100
100
100
100
100
100
100
100
100
100
100
100
100
100.043
100
100
100
100
100
100
100
100
100
100
100
100
100
100
100.396
100.038
100
100
100
100
100
100
100
100
100
100
100
100
100
100.65
100.283
100.024
100
100
100
100
100
100
100
100
100
100
100
100
100.719
100.518
100.167
100.009
100
100
100
100
100
100
100
100
100
100
100
100.704
100.635
100.374
100.074
100.002
100
100
100
100
100
100
100
100
100
100
100.67
100.662
100.518
100.217
100.022
100
100
100
100
100
100
100
100
100
100
100.596
100.653
100.61
100.416
100.142
100.017
100.001
100
100
100
100
100
100
100
100
100.538
100.615
100.608
100.489
100.25
100.042
100.002
100
100
100
100
100
100
100
100
100.466
100.551
100.585
100.547
100.378
100.147
100.015
100
100
100
100
100
100
100
100
100.381
100.485
100.544
100.542
100.446
100.256
100.066
100.003
100
100
100
100
100
100
100
100.34
100.412
100.482
100.517
100.482
100.337
100.156
100.025
100.001
100
100
100
100
100
100
100.338
100.378
100.428
100.473
100.472
100.386
100.232
100.078
100.006
100
100
100
100
100
100
100.328
100.354
100.376
100.425
100.448
100.415
100.289
100.148
100.03
100.001
100
100
100
100
100
100.318
100.34
100.333
100.365
100.41
100.407
100.331
100.209
100.08
100.007
100
100
100
100
100
100.3
100.319
100.317
100.339
100.361
100.38
100.349
100.25
100.139
100.033
100.001
100
100
100
100
100.262
100.284
100.299
100.32
100.326
100.344
100.339
100.279
100.187
100.078
100.008
100
100
100
100
100.226
100.248
100.277
100.296
100.292
100.302
100.316
100.291
100.217
100.129
100.031
100.001
100
100
100
100.214
100.228
100.261
100.267
100.262
100.269
100.28
100.282
100.24
100.169
100.073
100.008
100
100
100
100.204
100.219
100.243
100.238
100.235
100.248
100.247
100.259
100.243
100.192
100.118
100.028
100.001
100
100
100.195
100.206
100.222
100.21
100.204
100.221
100.216
100.228
100.236
100.211
100.154
100.065
100.007
100
100
100.183
100.187
100.196
100.187
100.187
100.195
100.186
100.196
100.216
100.21
100.174
100.107
100.024
100.001
100
100.183
100.168
100.171
100.171
100.178
100.171
100.16
100.169
100.187
100.202
100.186
100.141
100.057
100.005
100
100.225
100.155
100.149
100.154
100.163
100.146
100.134
100.147
100.158
100.183
100.184
100.159
100.096
100.02
100.001
100.309
100.17
100.143
100.137
100.142
100.121
100.111
100.125
100.13
100.156
100.177
100.168
100.128
100.047
100.004
100.363
100.224
100.134
100.119
100.118
100.101
100.097
100.105
100.102
100.126
100.161
100.167
100.147
100.084
100.016
100.374
100.276
100.146
100.1
100.092
100.084
100.088
100.087
100.079
100.101
100.137
100.162
100.154
100.113
100.041
100.378
100.319
100.22
100.107
100.072
100.062
100.067
100.056
100.049
100.069
100.098
100.138
100.151
100.138
100.106
100.437
100.395
100.347
100.333
100.322
100.298
100.279
100.262
100.228
100.207
100.198
100.186
100.187
100.195
100.282
100.366
100.383
100.406
100.418
100.413
100.367
100.332
100.301
100.3
100.29
100.267
100.254
100.239
100.218
100.201
100.185
100.184
100.208
100.307
100.388
100.419
100.413
100.418
100.432
100.431
100.297
100.275
100.266
100.265
100.25
100.229
100.221
100.211
100.195
100.182
100.186
100.22
100.339
100.418
100.424
100.439
100.436
100.436
100.443
100.447
100.233
100.226
100.229
100.226
100.21
100.197
100.197
100.191
100.181
100.186
100.249
100.367
100.432
100.445
100.448
100.458
100.459
100.457
100.46
100.466
100.184
100.182
100.184
100.179
100.16
100.151
100.154
100.156
100.187
100.299
100.406
100.456
100.454
100.459
100.474
100.486
100.488
100.487
100.488
100.496
100.131
100.137
100.138
100.14
100.122
100.117
100.137
100.22
100.357
100.456
100.484
100.49
100.486
100.495
100.516
100.53
100.534
100.535
100.538
100.551
100.077
100.091
100.104
100.096
100.124
100.198
100.334
100.43
100.499
100.545
100.562
100.56
100.563
100.575
100.593
100.606
100.612
100.615
100.619
100.631
100.026
100.039
100.159
100.313
100.441
100.512
100.564
100.614
100.656
100.673
100.676
100.679
100.686
100.694
100.704
100.711
100.713
100.713
100.714
100.719
100.577
100.613
100.68
100.746
100.78
100.793
100.8
100.812
100.813
100.807
100.802
100.802
100.805
100.805
100.801
100.795
100.792
100.789
100.786
100.781
101.029
101.02
101.001
100.988
100.964
100.943
100.926
100.914
100.893
100.871
100.862
100.86
100.86
100.856
100.841
100.824
100.819
100.818
100.816
100.805
)
;

boundaryField
{
    inlet
    {
        type            fixedValue;
        value           uniform 100;
    }
    outlet
    {
        type            inletOutlet;
        inletValue      uniform 100;
        value           nonuniform List<scalar> 
50
(
100.379
100.317
100.217
100.108
100.076
100.062
100.068
100.056
100.048
100.069
100.098
100.138
100.151
100.138
100.106
100.802
100.776
100.711
100.624
100.547
100.495
100.466
100.448
100.433
100.415
100.413
100.431
100.447
100.466
100.496
100.551
100.631
100.719
100.781
100.805
100.378
100.319
100.22
100.107
100.072
100.062
100.067
100.056
100.049
100.069
100.098
100.138
100.151
100.138
100.106
)
;
    }
    airfoil
    {
        type            zeroGradient;
    }
    top
    {
        type            symmetryPlane;
    }
    bottom
    {
        type            symmetryPlane;
    }
    defaultFaces
    {
        type            empty;
    }
}


// ************************************************************************* //
