/*--------------------------------*- C++ -*----------------------------------*\
  =========                 |
  \\      /  F ield         | OpenFOAM: The Open Source CFD Toolbox
   \\    /   O peration     | Website:  https://openfoam.org
    \\  /    A nd           | Version:  7
     \\/     M anipulation  |
\*---------------------------------------------------------------------------*/
FoamFile
{
    version     2.0;
    format      ascii;
    class       volScalarField;
    location    "0.7";
    object      p;
}
// * * * * * * * * * * * * * * * * * * * * * * * * * * * * * * * * * * * * * //

dimensions      [1 -1 -2 0 0 0 0];

internalField   nonuniform List<scalar> 
3700
(
0.108929
0.199043
0.244615
0.297262
0.33161
0.353943
0.350923
0.357892
0.347824
0.347991
0.355678
0.371735
0.385321
0.380181
0.366387
0.351094
0.342188
0.339376
0.340739
0.343432
0.0663809
0.0848965
0.111657
0.139738
0.136687
0.125034
0.115855
0.104444
0.094726
0.0968422
0.0993723
0.102708
0.108033
0.11739
0.126951
0.129505
0.131469
0.132842
0.136202
0.130241
0.0651304
0.0682566
0.0692772
0.0601331
0.0459837
0.0386198
0.0373602
0.0400018
0.0399929
0.0430448
0.0467073
0.0527161
0.0592749
0.0689704
0.0789904
0.0867501
0.0922147
0.0952315
0.0934344
0.0870486
0.0748508
0.0685324
0.0564492
0.0441626
0.0399551
0.0395961
0.0443179
0.0518037
0.0580766
0.0620879
0.0622667
0.0652686
0.0685449
0.0766349
0.0866322
0.0988068
0.1137
0.127236
0.13905
0.145049
0.0759954
0.0573219
0.0451115
0.0433897
0.0465321
0.0482676
0.058477
0.0741606
0.0858757
0.0929758
0.096059
0.100146
0.0963743
0.0948386
0.0952545
0.102968
0.120543
0.142259
0.164934
0.1982
0.0718017
0.0510238
0.042648
0.0423975
0.048875
0.0534496
0.0660451
0.0833228
0.0981789
0.112524
0.127975
0.139443
0.144558
0.148406
0.152594
0.153922
0.157196
0.169738
0.196622
0.254476
0.0702182
0.0454832
0.0371646
0.0387471
0.047478
0.0544755
0.0682146
0.0840839
0.0993134
0.123171
0.1496
0.165661
0.18131
0.200978
0.219395
0.233271
0.242484
0.252995
0.26613
0.325025
0.0700967
0.0401771
0.0338442
0.0376985
0.0459416
0.0535965
0.0715887
0.0842604
0.0984203
0.128815
0.160494
0.18729
0.216747
0.249826
0.283794
0.316982
0.346147
0.378525
0.386379
0.446181
0.0696501
0.0375533
0.0334806
0.0415058
0.0495207
0.0636595
0.0950881
0.103715
0.123925
0.160785
0.189383
0.230558
0.271751
0.310938
0.355613
0.410279
0.471732
0.534926
0.563031
0.653046
0.0666226
0.0368088
0.0358813
0.0537814
0.0676292
0.0952005
0.132412
0.151601
0.200944
0.247748
0.287752
0.337558
0.378258
0.416517
0.464282
0.522375
0.611865
0.699147
0.783607
0.890893
0.064743
0.0368849
0.0381935
0.0588932
0.0843477
0.126929
0.158606
0.20178
0.276392
0.326829
0.393133
0.460174
0.518
0.579846
0.647666
0.709673
0.801245
0.901164
1.0772
1.06115
0.0579111
0.0331326
0.0363158
0.0491173
0.0884976
0.134666
0.161845
0.228867
0.319266
0.396854
0.499704
0.595997
0.69207
0.796703
0.90531
1.00584
1.12674
1.2438
1.43091
1.39502
0.0444724
0.0259848
0.0274372
0.0376752
0.0790511
0.126672
0.157104
0.254226
0.377854
0.556575
0.708748
0.840921
0.967721
1.10074
1.25397
1.42006
1.60396
1.76413
1.96433
2.048
0.0320626
0.0206452
0.0205869
0.0353628
0.0749464
0.13119
0.292844
0.487787
0.706632
0.941877
1.13313
1.30066
1.44867
1.60107
1.78907
2.00291
2.25596
2.49512
2.70132
3.01033
0.0252968
0.0185556
0.0177688
0.0378873
0.154862
0.370864
0.659018
0.929089
1.24623
1.49598
1.7169
1.93199
2.13321
2.37052
2.62073
2.87855
3.18442
3.36792
3.51249
3.53654
0.0146284
0.021163
0.0269949
0.136464
0.413933
0.783637
1.12956
1.49607
1.929
2.28083
2.54779
2.80039
3.06356
3.38767
3.63511
3.8488
3.91711
3.87997
3.74116
3.43431
0.0068361
0.0308796
0.151783
0.428588
0.883199
1.42527
1.95539
2.54388
3.14068
3.49488
3.73747
3.9545
4.14954
4.3206
4.31262
4.21796
3.93727
3.29134
2.40374
1.52414
0.0352525
0.171592
0.556446
1.21471
2.07021
2.82861
3.53164
4.20978
4.80951
4.82905
4.74318
4.68975
4.62297
4.43545
3.90485
2.93093
1.93141
1.22895
1.00358
0.996978
0.308978
0.864147
1.93526
3.13313
4.17451
4.85967
5.43863
5.87931
5.7312
5.27349
4.83895
4.29613
3.35831
2.26529
1.37431
1.01724
0.991659
0.996515
0.998356
0.999761
2.3181
3.6325
4.88737
5.73387
6.22654
6.39679
6.54692
6.22162
4.53795
3.21205
2.35793
1.54172
1.07214
0.988208
0.993725
0.996784
0.999312
0.999968
1.00001
1
6.95538
6.8977
6.86293
6.92648
7.00142
6.73946
6.00012
2.28189
0.661973
1
1
1
1
1
1
1
1
1
1
1
6.93486
6.86155
6.799
6.74023
6.91828
5.7087
2.62024
1.02054
1
1
1
1
1
1
1
1
1
1
1
1
6.79331
6.84511
6.80433
6.59636
6.36758
3.35895
1.03303
0.999317
1
1
1
1
1
1
1
1
1
1
1
1
6.68826
6.85228
6.84192
6.46165
4.67078
1.43409
0.9941
1.00011
0.999999
1
1
1
1
1
1
1
1
1
1
1
6.53453
6.83053
6.85188
6.24708
2.69878
0.975192
1.00036
0.999994
1
1
1
1
1
1
1
1
1
1
1
1
6.42167
6.72708
6.78843
4.96524
1.38275
1
1
1
1
1
1
1
1
1
1
1
1
1
1
1
6.38722
6.65967
6.5721
3.52695
0.987868
1
1
1
1
1
1
1
1
1
1
1
1
1
1
1
6.50522
6.67478
6.12534
2.07725
0.999994
1
1
1
1
1
1
1
1
1
1
1
1
1
1
1
6.99454
6.70734
4.90889
1.18367
1
1
1
1
1
1
1
1
1
1
1
1
1
1
1
1
7.27256
6.37253
3.49437
0.987578
1
1
1
1
1
1
1
1
1
1
1
1
1
1
1
1
7.45535
6.02657
2.26997
1
1
1
1
1
1
1
1
1
1
1
1
1
1
1
1
1
7.49668
5.35752
1.59642
1
1
1
1
1
1
1
1
1
1
1
1
1
1
1
1
1
7.52997
4.73685
1.16135
1
1
1
1
1
1
1
1
1
1
1
1
1
1
1
1
1
7.35979
3.99897
1.01031
1
1
1
1
1
1
1
1
1
1
1
1
1
1
1
1
1
7.226
3.1953
1
1
1
1
1
1
1
1
1
1
1
1
1
1
1
1
1
1
6.93875
2.51817
1
1
1
1
1
1
1
1
1
1
1
1
1
1
1
1
1
1
6.66591
1.90579
1
1
1
1
1
1
1
1
1
1
1
1
1
1
1
1
1
1
6.32811
1.38024
1
1
1
1
1
1
1
1
1
1
1
1
1
1
1
1
1
1
5.67828
1.00639
1
1
1
1
1
1
1
1
1
1
1
1
1
1
1
1
1
1
4.61511
1.00006
1
1
1
1
1
1
1
1
1
1
1
1
1
1
1
1
1
1
4.61511
1.00006
1
1
1
1
1
1
1
1
1
1
1
1
1
1
1
1
1
1
5.67828
1.00639
1
1
1
1
1
1
1
1
1
1
1
1
1
1
1
1
1
1
6.32811
1.38024
1
1
1
1
1
1
1
1
1
1
1
1
1
1
1
1
1
1
6.66591
1.90579
1
1
1
1
1
1
1
1
1
1
1
1
1
1
1
1
1
1
6.93875
2.51817
1
1
1
1
1
1
1
1
1
1
1
1
1
1
1
1
1
1
7.226
3.1953
1
1
1
1
1
1
1
1
1
1
1
1
1
1
1
1
1
1
7.35979
3.99897
1.01031
1
1
1
1
1
1
1
1
1
1
1
1
1
1
1
1
1
7.52997
4.73685
1.16135
1
1
1
1
1
1
1
1
1
1
1
1
1
1
1
1
1
7.49668
5.35752
1.59642
1
1
1
1
1
1
1
1
1
1
1
1
1
1
1
1
1
7.45535
6.02657
2.26997
1
1
1
1
1
1
1
1
1
1
1
1
1
1
1
1
1
7.27256
6.37253
3.49437
0.987578
1
1
1
1
1
1
1
1
1
1
1
1
1
1
1
1
6.99454
6.70734
4.90889
1.18367
1
1
1
1
1
1
1
1
1
1
1
1
1
1
1
1
6.50522
6.67478
6.12534
2.07725
0.999994
1
1
1
1
1
1
1
1
1
1
1
1
1
1
1
6.38722
6.65967
6.5721
3.52695
0.987868
1
1
1
1
1
1
1
1
1
1
1
1
1
1
1
6.42167
6.72708
6.78843
4.96524
1.38275
1
1
1
1
1
1
1
1
1
1
1
1
1
1
1
6.53453
6.83053
6.85188
6.24708
2.69878
0.975192
1.00036
0.999994
1
1
1
1
1
1
1
1
1
1
1
1
6.68826
6.85228
6.84192
6.46165
4.67078
1.43409
0.9941
1.00011
0.999999
1
1
1
1
1
1
1
1
1
1
1
6.79331
6.84511
6.80433
6.59636
6.36758
3.35895
1.03303
0.999317
1
1
1
1
1
1
1
1
1
1
1
1
6.93486
6.86155
6.799
6.74023
6.91828
5.7087
2.62024
1.02054
1
1
1
1
1
1
1
1
1
1
1
1
6.95538
6.8977
6.86293
6.92648
7.00142
6.73946
6.00012
2.2819
0.661972
1
1
1
1
1
1
1
1
1
1
1
2.3181
3.6325
4.88737
5.73387
6.22655
6.39679
6.54692
6.22162
4.53795
3.21205
2.35793
1.54172
1.07214
0.988208
0.993725
0.996784
0.999312
0.999968
1.00001
1
0.308979
0.864139
1.93528
3.13311
4.17451
4.85966
5.43863
5.87931
5.7312
5.27349
4.83895
4.29613
3.3583
2.26528
1.3743
1.01724
0.991659
0.996515
0.998356
0.999761
0.0352548
0.171592
0.556438
1.21474
2.07019
2.82863
3.53162
4.20979
4.80934
4.82919
4.74324
4.68972
4.62292
4.43544
3.90487
2.93095
1.93143
1.22896
1.00358
0.996978
0.00683595
0.0308795
0.151778
0.428592
0.883191
1.42528
1.9554
2.54387
3.1408
3.49475
3.73747
3.95451
4.14957
4.32062
4.31263
4.21795
3.93726
3.29134
2.40375
1.52415
0.0146298
0.0211631
0.0269948
0.136452
0.413959
0.783566
1.12966
1.49592
1.92905
2.28085
2.54778
2.80035
3.06357
3.3877
3.63513
3.84878
3.9171
3.87995
3.74115
3.43431
0.0252968
0.0185557
0.017772
0.0378788
0.154877
0.370812
0.659027
0.929175
1.24613
1.49616
1.71683
1.93198
2.13322
2.37055
2.62075
2.87855
3.18442
3.36791
3.51248
3.53654
0.0320622
0.020645
0.0205896
0.0353545
0.0749414
0.131213
0.292771
0.487955
0.70642
0.941874
1.13324
1.3007
1.44869
1.60112
1.78907
2.0029
2.25597
2.49514
2.70133
3.01033
0.0444721
0.0259835
0.0274369
0.037669
0.0790547
0.126736
0.157025
0.254194
0.377985
0.556346
0.708788
0.84088
0.96769
1.10075
1.25402
1.42006
1.60393
1.76412
1.96435
2.04801
0.0579098
0.0331314
0.0363142
0.0491172
0.0884976
0.134684
0.16179
0.228804
0.319457
0.396733
0.499554
0.595951
0.692059
0.79668
0.90536
1.00588
1.12675
1.24379
1.43089
1.39504
0.0647408
0.0368837
0.0381924
0.0588938
0.0843431
0.126926
0.158607
0.201727
0.276472
0.326881
0.393057
0.460181
0.517986
0.579834
0.647662
0.709719
0.801297
0.901178
1.0772
1.06111
0.0666191
0.0368081
0.0358795
0.053782
0.067626
0.0951975
0.132454
0.151578
0.200884
0.247883
0.287767
0.337583
0.378283
0.416538
0.464258
0.522376
0.61189
0.699144
0.783617
0.890886
0.0696456
0.0375508
0.0334785
0.0415065
0.0495212
0.0636672
0.0951163
0.103725
0.123874
0.160835
0.189431
0.230565
0.271775
0.31096
0.355593
0.410249
0.471726
0.534938
0.563033
0.6531
0.0700928
0.0401741
0.0338415
0.0376932
0.0459382
0.0536016
0.0715984
0.0842599
0.098387
0.128759
0.160529
0.187283
0.216725
0.249814
0.283771
0.316958
0.346137
0.378541
0.386389
0.446222
0.0702181
0.0454796
0.0371602
0.03874
0.0474748
0.0544808
0.0682222
0.0840706
0.0992696
0.12312
0.149611
0.165658
0.181288
0.200963
0.219383
0.233252
0.242458
0.252987
0.266129
0.325033
0.0718031
0.0510234
0.0426441
0.0423913
0.0488745
0.0534548
0.0660568
0.0833222
0.0981484
0.112496
0.127968
0.13947
0.144556
0.148391
0.152602
0.153916
0.157179
0.169721
0.196614
0.25448
0.0759964
0.0573227
0.0451107
0.0433889
0.0465359
0.0482688
0.0584888
0.0741779
0.0858779
0.0929811
0.0960566
0.100175
0.0963873
0.0948496
0.09527
0.102976
0.120543
0.142258
0.164933
0.198204
0.0748514
0.0685326
0.0564496
0.0441638
0.0399555
0.0395952
0.044324
0.0518254
0.058101
0.0621098
0.0622705
0.0652765
0.0685586
0.0766483
0.0866435
0.0988148
0.113703
0.127236
0.139044
0.145054
0.0651307
0.0682563
0.0692764
0.0601329
0.0459835
0.0386187
0.0373597
0.0400059
0.0399999
0.0430497
0.0467091
0.0527166
0.0592762
0.0689724
0.0789957
0.0867573
0.0922216
0.0952263
0.0934243
0.0870516
0.0663805
0.0848941
0.111653
0.139734
0.136678
0.125032
0.115856
0.104439
0.0947565
0.0968778
0.0993967
0.102704
0.108003
0.117421
0.126974
0.129514
0.131588
0.132876
0.136102
0.130018
0.108929
0.199041
0.244611
0.29726
0.331602
0.353942
0.350923
0.357887
0.347846
0.348016
0.355702
0.371731
0.385306
0.380203
0.366395
0.351067
0.342281
0.339403
0.340698
0.343349
0.438305
0.586923
0.677881
0.754022
0.810087
0.804181
0.777452
0.766461
0.786099
0.860059
0.948175
0.991843
0.999614
0.999995
1
1
1
1
1
1
0.187559
0.351813
0.522114
0.68386
0.783304
0.789446
0.76717
0.756824
0.780568
0.85878
0.945486
0.991105
0.999568
0.999995
1
1
1
1
1
1
0.0918404
0.122208
0.219391
0.38685
0.586587
0.70942
0.730609
0.738302
0.771548
0.853174
0.946885
0.991832
0.999626
0.999996
1
1
1
1
1
1
0.13529
0.161749
0.181725
0.201719
0.289772
0.478235
0.625202
0.699033
0.767886
0.860394
0.9495
0.992371
0.999666
0.999996
1
1
1
1
1
1
0.180342
0.191275
0.212364
0.234221
0.280116
0.382074
0.523043
0.651923
0.762858
0.866915
0.953811
0.993314
0.999723
0.999997
1
1
1
1
1
1
0.244325
0.238316
0.24964
0.269079
0.301852
0.382878
0.514867
0.646946
0.764521
0.873762
0.958573
0.994384
0.999783
0.999998
1
1
1
1
1
1
0.315617
0.294664
0.29881
0.309874
0.345141
0.417812
0.525083
0.64912
0.77063
0.882911
0.964234
0.995585
0.999847
0.999999
1
1
1
1
1
1
0.425953
0.357142
0.346039
0.352906
0.375264
0.441424
0.547477
0.665343
0.784684
0.894901
0.970435
0.996761
0.999902
0.999999
1
1
1
1
1
1
0.565366
0.436447
0.381149
0.385107
0.402653
0.465461
0.579195
0.699513
0.812151
0.912459
0.977433
0.997836
0.999943
1
1
1
1
1
1
1
0.74339
0.565158
0.457687
0.462855
0.47111
0.50758
0.601883
0.721245
0.833392
0.927781
0.983418
0.998646
0.99997
1
1
1
1
1
1
1
1.1966
0.833212
0.605402
0.574864
0.583415
0.634156
0.730987
0.833115
0.913425
0.968641
0.994386
0.999649
0.999993
1
1
1
1
1
1
1
1.93438
1.47027
1.04302
0.891532
0.896498
0.931789
0.974499
0.993509
0.995649
0.996875
0.998802
0.999817
0.999989
1
1
1
1
1
1
1
2.01311
1.75988
1.51185
1.32478
1.23234
1.16972
1.10622
1.04237
1.00695
1.00011
0.999868
0.999933
0.999988
0.999999
1
1
1
1
1
1
1.76101
1.71407
1.56903
1.42155
1.29965
1.1931
1.09741
1.02846
1.00323
1.00008
0.999989
0.99999
0.999996
1
1
1
1
1
1
1
1.23228
1.38237
1.37863
1.32055
1.22479
1.12234
1.04193
1.00673
1.00038
1.00001
1
1
1
1
1
1
1
1
1
1
1.01868
1.05194
1.07551
1.07244
1.05165
1.02227
1.00461
1.00035
1.00001
1
1
1
1
1
1
1
1
1
1
1
1.00046
1.0013
1.00248
1.00258
1.0019
1.00071
1.0001
1
1
1
1
1
1
1
1
1
1
1
1
1
1.00001
1.00001
1.00002
1.00002
1.00001
1.00001
1
1
1
1
1
1
1
1
1
1
1
1
1
1
1
1
1
1
1
1
1
1
1
1
1
1
1
1
1
1
1
1
1
1
1
1
1
1
1
1
1
1
1
1
1
1
1
1
1
1
1
1
1
1
1
1
1
1
1
1
1
1
1
1
1
1
1
1
1
1
1
1
1
1
1
1
1
1
1
1
1
1
1
1
1
1
1
1
1
1
1
1
1
1
1
1
1
1
1
1
1
1
1
1
1
1
1
1
1
1
1
1
1
1
1
1
1
1
1
1
1
1
1
1
1
1
1
1
1
1
1
1
1
1
1
1
1
1
1
1
1
1
1
1
1
1
1
1
1
1
1
1
1
1
1.6089
2.22481
2.14153
1.59357
1.12306
1.00944
1.00029
1
1
1
1
1
1
1
1
2.28827
2.43977
1.98384
1.21824
1.01002
1.00007
1
1
1
1
1
1
1
1
1
2.72816
2.48808
1.52731
1.04788
1.00096
1.00001
1
1
1
1
1
1
1
1
1
2.94827
1.99224
1.14136
1.00342
1.00001
1
1
1
1
1
1
1
1
1
1
2.74686
1.34475
1.0139
1.0001
1
1
1
1
1
1
1
1
1
1
1
1.68739
1.0318
1.00009
0.999998
0.999999
1
1
1
1
1
1
1
1
1
1
1.03933
0.999961
0.999989
0.999999
1
1
1
1
1
1
1
1
1
1
1
0.999369
0.999981
1
1
1
1
1
1
1
1
1
1
1
1
1
0.999989
1
1
1
1
1
1
1
1
1
1
1
1
1
1
1
1
1
1
1
1
1
1
1
1
1
1
1
1
1
1
1
1
1
1
1
1
1
1
1
1
1
1
1
1
1
1
1
1
1
1
1
1
1
1
1
1
1
1
1
1
1
1
1
1
1
1
1
1
1
1
1
1
1
1
1
1
1
1
1
1
1
1
1
1
1
1
1
1
1
1
1
1
1
1
1
1
1
1
1
1
1
1
1
1
1
1
1
1
1
1
1
1
1
1
1
1
1
1
1
1
1
1
1
1
1
1
1
1
1
1
1
1
1
1
1
1
1
1
1
1
1
1
1
1
1
1
1
1
1
1
1
1
1
1
1
1
1
1
1
1
1
1
1
1
1
1
1
1
1
1
1
1
1
1
1
1
1
1
1
1
1
1
1
1
1
1
1
1
1
1
1
1
1
1
1
1
1
1
1
1
1
1
1
1
1
1
1
1
1
1
1
1
1
1
1
1
1
1
1
1
1
1
1
1
1
1
1
1
1
1
1
1
1
1
1
1
1
1
1
1
1
1
1
1
1
1
1
1
1
1
1
1
1
1
1
1
1
1
1
1
1
1
1
1
1
1
1
1
1
1
1
1
1
1
1
1
1
1
1
1
1
1
1
1
1
1
1
1
1
1
1
1
1
1
1
1
1
1
1
1
1
1
1
1
1
1
1
1
1
1
1
1
1
1
1
1
1
1
1
1
1
1
1
1
1
1
1
1
1
1
1
1
1
1
1
1
1
1
1
1
1
1
1
1
1
1
1
1
1
1
1
1
1
1
1
1
1
1
1
1
1
1
1
1
1
1
1
1
1
1
1
1
1
1
1
1
1
1
1
1
1
1
1
1
1
1
1
1
1
1
1
1
1
1
1
1
1
1
1
1
1
1
1
1
1
1
1
1
1
1
1
1
1
1
1
1
1
1
1
1
1
1
1
1
1
1
1
1
1
1
1
1
1
1
1
1
1
1
1
1
1
1
1
1
1
1
1
1
1
1
1
1
1
1
1
1
1
1
1
1
1
1
1
1
1
1
1
1
1
1
1
1
1
1
1
1
1
1
1
1
1
1
1
1
1
1
1
1
1
1
1
1
1
1
1
1
1
1
1
1
1
1
1
1
1
1
1
1
1
1
1
1
1
1
1
1
1
1
1
1
1
1
1
1
1
1
1
1
1
1
1
1
1
1
1
1
1
1
1
1
1
1
1
1
1
1
1
1
1
1
1
1
1
1
1
1
1
1
1
1
1
1
1
1
1
1
1
1
1
1
1
1
1
1
1
1
1
1
1
1
1
1
1
1
1
1
1
1
1
1
1
1
1
1
1
1
1
1
1
1
1
1
1
1
1
1
1
1
1
1
1
1
1
1
1
1
1
1
1
1
1
1
1
1
1
1
1
1
1
1
1
1
1
1
1
1
1
1
1
1
1
1
1
1
1
1
1
1
1
1
1
1
1
1
1
1
1
1
1
1
1
1
1
1
1
1
1
1
1
1
1
1
1
1
1
1
1
1
1
1
1
1
1
1
1
1
1
1
1
1
1
1
1
1
1
1
1
1
1
1
1
1
1
1
1
1
1
1
1
1
1
1
1
1
1
1
1
1
1
1
1
1
1
1
1
1
1
1
1
1
1
1
1
1
1
1
1
1
1
1
1
1
1
1
1
1
1
1
1
1
1
1
1
1
1
1
1
1
1
1
1
1
1
1
1
1
1
1
1
1
1
1
1
1
1
1
1
1
1
1
1
1
1
1
1
1
1
1
1
1
1
1
1
1
1
1
1
1
1
1
1
1
1
1
1
1
1
1
1
1
1
1
1
1
1
1
1
1
1
1
1
1
1
1
1
1
1
1
1
1
1
1
1
1
1
1
1
1
1
1
1
1
1
1
0.999989
1
1
1
1
1
1
1
1
1
1
1
1
1
1
0.999369
0.999981
1
1
1
1
1
1
1
1
1
1
1
1
1
1.03933
0.999961
0.999989
0.999999
1
1
1
1
1
1
1
1
1
1
1
1.68739
1.0318
1.00009
0.999998
0.999999
1
1
1
1
1
1
1
1
1
1
2.74687
1.34476
1.0139
1.0001
1
1
1
1
1
1
1
1
1
1
1
2.94827
1.99223
1.14136
1.00342
1.00001
1
1
1
1
1
1
1
1
1
1
2.72814
2.48807
1.52731
1.04788
1.00096
1.00001
1
1
1
1
1
1
1
1
1
2.28828
2.43976
1.98383
1.21824
1.01002
1.00007
1
1
1
1
1
1
1
1
1
1.60889
2.22481
2.14154
1.59357
1.12306
1.00944
1.00029
1
1
1
1
1
1
1
1
1.19662
1.93442
2.01312
1.76101
1.23228
1.01868
1.00046
1.00001
1
1
1
1
1
1
1
0.834
1.47032
1.75989
1.71407
1.38238
1.05194
1.0013
1.00001
1
1
1
1
1
1
1
0.604109
1.04296
1.51191
1.56904
1.37863
1.07551
1.00248
1.00002
1
1
1
1
1
1
1
0.573422
0.891173
1.32471
1.42154
1.32055
1.07244
1.00258
1.00002
1
1
1
1
1
1
1
0.579822
0.895998
1.23219
1.29963
1.22478
1.05165
1.0019
1.00001
1
1
1
1
1
1
1
0.629836
0.93102
1.1696
1.19308
1.12234
1.02228
1.00071
1.00001
1
1
1
1
1
1
1
0.729123
0.974093
1.10616
1.09739
1.04193
1.00461
1.0001
1
1
1
1
1
1
1
1
0.832794
0.993408
1.04236
1.02845
1.00673
1.00035
1
1
1
1
1
1
1
1
1
0.913434
0.995663
1.00695
1.00323
1.00038
1.00001
1
1
1
1
1
1
1
1
1
0.968678
0.996889
1.00011
1.00008
1.00001
1
1
1
1
1
1
1
1
1
1
0.994402
0.998804
0.999867
0.999989
1
1
1
1
1
1
1
1
1
1
1
0.999651
0.999817
0.999933
0.99999
1
1
1
1
1
1
1
1
1
1
1
0.999993
0.999989
0.999988
0.999996
1
1
1
1
1
1
1
1
1
1
1
1
1
0.999999
1
1
1
1
1
1
1
1
1
1
1
1
1
1
1
1
1
1
1
1
1
1
1
1
1
1
1
1
1
1
1
1
1
1
1
1
1
1
1
1
1
1
1
1
1
1
1
1
1
1
1
1
1
1
1
1
1
1
1
1
1
1
1
1
1
1
1
1
1
1
1
1
1
1
1
1
1
1
1
1
1
1
1
1
1
1
1
1
1
1
1
1
1
1
1
1
1
1
1
1
1
1
0.743208
0.564567
0.458526
0.465116
0.477716
0.515903
0.606454
0.722395
0.833476
0.927742
0.983415
0.998647
0.99997
1
1
1
1
1
1
1
0.565215
0.435659
0.383201
0.387299
0.407374
0.467956
0.578838
0.698862
0.811725
0.912214
0.977347
0.997826
0.999943
1
1
1
1
1
1
1
0.425937
0.357104
0.346641
0.35352
0.375802
0.442016
0.548193
0.665716
0.784486
0.894619
0.970287
0.996735
0.999901
0.999999
1
1
1
1
1
1
0.315656
0.294551
0.298629
0.309868
0.345571
0.417928
0.523763
0.647331
0.769343
0.882287
0.963995
0.995541
0.999844
0.999999
1
1
1
1
1
1
0.2443
0.238212
0.249719
0.269596
0.302028
0.382071
0.513138
0.64302
0.763785
0.873393
0.958319
0.994334
0.999781
0.999998
1
1
1
1
1
1
0.180305
0.191331
0.212572
0.234205
0.279805
0.381883
0.524789
0.660787
0.766842
0.866694
0.953444
0.993262
0.99972
0.999997
1
1
1
1
1
1
0.135306
0.161798
0.181685
0.201545
0.289501
0.478961
0.625742
0.695252
0.763161
0.858421
0.949469
0.99236
0.999662
0.999996
1
1
1
1
1
1
0.0918541
0.12224
0.219716
0.387201
0.586706
0.709679
0.730785
0.737872
0.776405
0.860695
0.948054
0.991739
0.999614
0.999995
1
1
1
1
1
1
0.187589
0.351943
0.522679
0.684082
0.783523
0.788677
0.767116
0.758208
0.777843
0.853402
0.944557
0.991084
0.999567
0.999994
1
1
1
1
1
1
0.438344
0.586952
0.677999
0.754072
0.810196
0.803594
0.777501
0.766949
0.785768
0.860156
0.948171
0.991837
0.999611
0.999995
1
1
1
1
1
1
)
;

boundaryField
{
    inlet
    {
        type            fixedValue;
        value           uniform 1;
    }
    outlet
    {
        type            zeroGradient;
    }
    airfoil
    {
        type            zeroGradient;
    }
    top
    {
        type            symmetryPlane;
    }
    bottom
    {
        type            symmetryPlane;
    }
    defaultFaces
    {
        type            empty;
    }
}


// ************************************************************************* //
