/*--------------------------------*- C++ -*----------------------------------*\
  =========                 |
  \\      /  F ield         | OpenFOAM: The Open Source CFD Toolbox
   \\    /   O peration     | Website:  https://openfoam.org
    \\  /    A nd           | Version:  7
     \\/     M anipulation  |
\*---------------------------------------------------------------------------*/
FoamFile
{
    version     2.0;
    format      ascii;
    class       volScalarField;
    location    "0.7";
    object      rho;
}
// * * * * * * * * * * * * * * * * * * * * * * * * * * * * * * * * * * * * * //

dimensions      [1 -3 0 0 0 0 0];

internalField   nonuniform List<scalar> 
3700
(
0.151704
0.276631
0.339752
0.412712
0.460298
0.491082
0.486855
0.496414
0.482311
0.482369
0.493011
0.515286
0.534185
0.527214
0.50834
0.487283
0.474964
0.471078
0.473011
0.476796
0.0928208
0.11857
0.155726
0.194729
0.19044
0.174129
0.161335
0.145489
0.131963
0.134917
0.138463
0.143166
0.150644
0.163739
0.177119
0.180719
0.183465
0.185376
0.190021
0.181719
0.0911243
0.0954865
0.0969234
0.08418
0.0644414
0.0541634
0.0524081
0.0561057
0.0560929
0.0603605
0.0654799
0.0738846
0.0830568
0.0966127
0.110625
0.121475
0.129117
0.133342
0.130853
0.121955
0.104701
0.0958851
0.0790217
0.0618705
0.056011
0.055524
0.0621426
0.072629
0.0814129
0.0870395
0.0872914
0.091488
0.0960591
0.107357
0.12133
0.13835
0.159168
0.178078
0.194599
0.203005
0.106283
0.0802085
0.063171
0.0607704
0.0651708
0.0676172
0.0819031
0.103831
0.120219
0.130168
0.134494
0.140222
0.134969
0.132833
0.133414
0.144195
0.168762
0.199091
0.230753
0.277209
0.100397
0.071391
0.0597121
0.0593703
0.0684299
0.0748357
0.0924381
0.116574
0.137344
0.157413
0.179012
0.195055
0.202219
0.207619
0.213497
0.215377
0.219984
0.23752
0.275046
0.35576
0.0981298
0.0636353
0.0520482
0.0542791
0.0664853
0.0762661
0.0954524
0.117618
0.138904
0.172236
0.20914
0.231595
0.253465
0.280934
0.306672
0.326073
0.338966
0.353655
0.372007
0.454176
0.0979122
0.0562329
0.0474252
0.0528253
0.0643594
0.075049
0.100173
0.117874
0.137656
0.180094
0.224318
0.261738
0.302864
0.349028
0.396438
0.442756
0.483469
0.528653
0.539633
0.623005
0.0972864
0.0526023
0.046938
0.0581638
0.0693806
0.0891398
0.133043
0.145104
0.173295
0.224718
0.264632
0.322073
0.379554
0.434225
0.496539
0.572754
0.658401
0.746477
0.785677
0.911022
0.0931081
0.0515909
0.050315
0.0753392
0.0947029
0.133202
0.185168
0.211964
0.280751
0.346018
0.401779
0.471194
0.527967
0.581327
0.647928
0.728897
0.853529
0.975047
1.09263
1.2419
0.0905363
0.0517157
0.0535636
0.0824754
0.118008
0.177452
0.221689
0.281895
0.38588
0.4562
0.548577
0.64198
0.722565
0.808719
0.903191
0.989564
1.11704
1.25607
1.50085
1.47855
0.0810307
0.0464737
0.0509488
0.0688165
0.123777
0.188216
0.226161
0.319607
0.445572
0.553681
0.696915
0.83103
0.964808
1.11044
1.26158
1.40144
1.56953
1.73223
1.99218
1.94235
0.0622682
0.036471
0.0385193
0.052827
0.110573
0.177045
0.219493
0.354882
0.527131
0.77589
0.987707
1.1717
1.34818
1.5332
1.74623
1.977
2.23238
2.45475
2.73258
2.84892
0.0449277
0.0289888
0.0289149
0.0495841
0.104833
0.183259
0.408391
0.679824
0.984264
1.31148
1.57753
1.81055
2.0164
2.22822
2.48933
2.78615
3.13719
3.46901
3.7553
4.18461
0.0354758
0.026062
0.0249613
0.0530393
0.21621
0.516839
0.917702
1.29322
1.73394
2.08116
2.38826
2.68713
2.96657
3.29586
3.64293
4.00049
4.42453
4.67948
4.88085
4.91431
0.0205494
0.0297209
0.0378579
0.190525
0.576693
1.09064
1.57148
2.08065
2.68185
3.17051
3.54123
3.89178
4.25656
4.70577
5.04875
5.34519
5.44021
5.38941
5.19922
4.7778
0.00963467
0.0433604
0.212053
0.597212
1.22886
1.98182
2.71785
3.53444
4.3625
4.8539
5.19024
5.49087
5.76065
5.9982
5.98735
5.85687
5.47107
4.57971
3.35144
2.13027
0.0495818
0.239906
0.775155
1.68927
2.87635
3.92846
4.90319
5.8434
6.67486
6.70165
6.58253
6.50855
6.41612
6.15751
5.42576
4.0792
2.69573
1.71932
1.405
1.39579
0.432034
1.20348
2.68975
4.35026
5.79318
6.74257
7.54453
8.15588
7.9508
7.31659
6.71465
5.96462
4.66806
3.15722
1.92152
1.42404
1.38836
1.39514
1.39771
1.39967
3.22293
5.0434
6.78048
7.95192
8.63429
8.87108
9.07929
8.63018
6.30002
4.46282
3.28231
2.15351
1.50059
1.38355
1.39125
1.39552
1.39905
1.39996
1.40002
1.40001
9.64137
9.56167
9.51374
9.60215
9.70693
9.34685
8.32691
3.18039
0.928146
1.40001
1.40001
1.40001
1.40001
1.40001
1.40001
1.40001
1.40001
1.40001
1.40001
1.40001
9.61289
9.51161
9.42547
9.34521
9.59356
7.92473
3.65049
1.42855
1.40001
1.40001
1.40001
1.40001
1.40001
1.40001
1.40001
1.40001
1.40001
1.40001
1.40001
1.40001
9.41721
9.48889
9.43291
9.14686
8.83347
4.67324
1.4458
1.39906
1.40001
1.40001
1.40001
1.40001
1.40001
1.40001
1.40001
1.40001
1.40001
1.40001
1.40001
1.40001
9.27193
9.49877
9.485
8.96154
6.4881
2.00285
1.39179
1.40015
1.4
1.40001
1.40001
1.40001
1.40001
1.40001
1.40001
1.40001
1.40001
1.40001
1.40001
1.40001
9.0594
9.46871
9.49893
8.66606
3.75733
1.36538
1.40051
1.4
1.40001
1.40001
1.40001
1.40001
1.40001
1.40001
1.40001
1.40001
1.40001
1.40001
1.40001
1.40001
8.90342
9.32593
9.41149
6.89415
1.93134
1.40001
1.40001
1.40001
1.40001
1.40001
1.40001
1.40001
1.40001
1.40001
1.40001
1.40001
1.40001
1.40001
1.40001
1.40001
8.85586
9.23304
9.11284
4.90327
1.38296
1.40001
1.40001
1.40001
1.40001
1.40001
1.40001
1.40001
1.40001
1.40001
1.40001
1.40001
1.40001
1.40001
1.40001
1.40001
9.01891
9.25432
8.49693
2.89426
1.40001
1.40001
1.40001
1.40001
1.40001
1.40001
1.40001
1.40001
1.40001
1.40001
1.40001
1.40001
1.40001
1.40001
1.40001
1.40001
9.69527
9.30007
6.81648
1.65487
1.4
1.40001
1.40001
1.40001
1.40001
1.40001
1.40001
1.40001
1.40001
1.40001
1.40001
1.40001
1.40001
1.40001
1.40001
1.40001
10.0794
8.83851
4.85895
1.38266
1.40001
1.40001
1.40001
1.40001
1.40001
1.40001
1.40001
1.40001
1.40001
1.40001
1.40001
1.40001
1.40001
1.40001
1.40001
1.40001
10.3318
8.36152
3.16223
1.40001
1.40001
1.40001
1.40001
1.40001
1.40001
1.40001
1.40001
1.40001
1.40001
1.40001
1.40001
1.40001
1.40001
1.40001
1.40001
1.40001
10.3886
7.43728
2.22798
1.40001
1.40001
1.40001
1.40001
1.40001
1.40001
1.40001
1.40001
1.40001
1.40001
1.40001
1.40001
1.40001
1.40001
1.40001
1.40001
1.40001
10.4343
6.57911
1.62409
1.40001
1.40001
1.40001
1.40001
1.40001
1.40001
1.40001
1.40001
1.40001
1.40001
1.40001
1.40001
1.40001
1.40001
1.40001
1.40001
1.40001
10.1992
5.55765
1.41433
1.40001
1.40001
1.40001
1.40001
1.40001
1.40001
1.40001
1.40001
1.40001
1.40001
1.40001
1.40001
1.40001
1.40001
1.40001
1.40001
1.40001
10.015
4.44399
1.40001
1.40001
1.40001
1.40001
1.40001
1.40001
1.40001
1.40001
1.40001
1.40001
1.40001
1.40001
1.40001
1.40001
1.40001
1.40001
1.40001
1.40001
9.6192
3.50554
1.40001
1.40001
1.40001
1.40001
1.40001
1.40001
1.40001
1.40001
1.40001
1.40001
1.40001
1.40001
1.40001
1.40001
1.40001
1.40001
1.40001
1.40001
9.24392
2.65645
1.40001
1.40001
1.40001
1.40001
1.40001
1.40001
1.40001
1.40001
1.40001
1.40001
1.40001
1.40001
1.40001
1.40001
1.40001
1.40001
1.40001
1.40001
8.77947
1.92765
1.40001
1.40001
1.40001
1.40001
1.40001
1.40001
1.40001
1.40001
1.40001
1.40001
1.40001
1.40001
1.40001
1.40001
1.40001
1.40001
1.40001
1.40001
7.8825
1.40887
1.40001
1.40001
1.40001
1.40001
1.40001
1.40001
1.40001
1.40001
1.40001
1.40001
1.40001
1.40001
1.40001
1.40001
1.40001
1.40001
1.40001
1.40001
6.40982
1.40009
1.40001
1.40001
1.40001
1.40001
1.40001
1.40001
1.40001
1.40001
1.40001
1.40001
1.40001
1.40001
1.40001
1.40001
1.40001
1.40001
1.40001
1.40001
6.40982
1.40009
1.40001
1.40001
1.40001
1.40001
1.40001
1.40001
1.40001
1.40001
1.40001
1.40001
1.40001
1.40001
1.40001
1.40001
1.40001
1.40001
1.40001
1.40001
7.8825
1.40887
1.40001
1.40001
1.40001
1.40001
1.40001
1.40001
1.40001
1.40001
1.40001
1.40001
1.40001
1.40001
1.40001
1.40001
1.40001
1.40001
1.40001
1.40001
8.77947
1.92765
1.40001
1.40001
1.40001
1.40001
1.40001
1.40001
1.40001
1.40001
1.40001
1.40001
1.40001
1.40001
1.40001
1.40001
1.40001
1.40001
1.40001
1.40001
9.24392
2.65645
1.40001
1.40001
1.40001
1.40001
1.40001
1.40001
1.40001
1.40001
1.40001
1.40001
1.40001
1.40001
1.40001
1.40001
1.40001
1.40001
1.40001
1.40001
9.6192
3.50554
1.40001
1.40001
1.40001
1.40001
1.40001
1.40001
1.40001
1.40001
1.40001
1.40001
1.40001
1.40001
1.40001
1.40001
1.40001
1.40001
1.40001
1.40001
10.015
4.44399
1.40001
1.40001
1.40001
1.40001
1.40001
1.40001
1.40001
1.40001
1.40001
1.40001
1.40001
1.40001
1.40001
1.40001
1.40001
1.40001
1.40001
1.40001
10.1992
5.55765
1.41433
1.40001
1.40001
1.40001
1.40001
1.40001
1.40001
1.40001
1.40001
1.40001
1.40001
1.40001
1.40001
1.40001
1.40001
1.40001
1.40001
1.40001
10.4343
6.57911
1.62409
1.40001
1.40001
1.40001
1.40001
1.40001
1.40001
1.40001
1.40001
1.40001
1.40001
1.40001
1.40001
1.40001
1.40001
1.40001
1.40001
1.40001
10.3886
7.43728
2.22798
1.40001
1.40001
1.40001
1.40001
1.40001
1.40001
1.40001
1.40001
1.40001
1.40001
1.40001
1.40001
1.40001
1.40001
1.40001
1.40001
1.40001
10.3318
8.36152
3.16223
1.40001
1.40001
1.40001
1.40001
1.40001
1.40001
1.40001
1.40001
1.40001
1.40001
1.40001
1.40001
1.40001
1.40001
1.40001
1.40001
1.40001
10.0794
8.83851
4.85895
1.38266
1.40001
1.40001
1.40001
1.40001
1.40001
1.40001
1.40001
1.40001
1.40001
1.40001
1.40001
1.40001
1.40001
1.40001
1.40001
1.40001
9.69527
9.30007
6.81648
1.65487
1.4
1.40001
1.40001
1.40001
1.40001
1.40001
1.40001
1.40001
1.40001
1.40001
1.40001
1.40001
1.40001
1.40001
1.40001
1.40001
9.01891
9.25432
8.49693
2.89426
1.40001
1.40001
1.40001
1.40001
1.40001
1.40001
1.40001
1.40001
1.40001
1.40001
1.40001
1.40001
1.40001
1.40001
1.40001
1.40001
8.85586
9.23304
9.11284
4.90327
1.38296
1.40001
1.40001
1.40001
1.40001
1.40001
1.40001
1.40001
1.40001
1.40001
1.40001
1.40001
1.40001
1.40001
1.40001
1.40001
8.90342
9.32593
9.41149
6.89415
1.93134
1.40001
1.40001
1.40001
1.40001
1.40001
1.40001
1.40001
1.40001
1.40001
1.40001
1.40001
1.40001
1.40001
1.40001
1.40001
9.0594
9.46871
9.49893
8.66606
3.75733
1.36538
1.40051
1.4
1.40001
1.40001
1.40001
1.40001
1.40001
1.40001
1.40001
1.40001
1.40001
1.40001
1.40001
1.40001
9.27193
9.49877
9.485
8.96154
6.4881
2.00285
1.39179
1.40015
1.4
1.40001
1.40001
1.40001
1.40001
1.40001
1.40001
1.40001
1.40001
1.40001
1.40001
1.40001
9.41721
9.48889
9.43291
9.14686
8.83347
4.67324
1.4458
1.39906
1.40001
1.40001
1.40001
1.40001
1.40001
1.40001
1.40001
1.40001
1.40001
1.40001
1.40001
1.40001
9.61289
9.51161
9.42547
9.34521
9.59356
7.92472
3.65049
1.42855
1.40001
1.40001
1.40001
1.40001
1.40001
1.40001
1.40001
1.40001
1.40001
1.40001
1.40001
1.40001
9.64137
9.56167
9.51374
9.60215
9.70693
9.34685
8.32691
3.1804
0.928144
1.40001
1.40001
1.40001
1.40001
1.40001
1.40001
1.40001
1.40001
1.40001
1.40001
1.40001
3.22292
5.0434
6.78048
7.95192
8.63431
8.87108
9.07929
8.63018
6.30002
4.46282
3.2823
2.15351
1.50059
1.38355
1.39125
1.39552
1.39905
1.39996
1.40002
1.40001
0.432035
1.20347
2.68978
4.35023
5.79319
6.74256
7.54453
8.15587
7.9508
7.3166
6.71466
5.96462
4.66806
3.15721
1.92152
1.42404
1.38836
1.39514
1.39771
1.39967
0.049585
0.239907
0.775144
1.68931
2.87632
3.92849
4.90317
5.84342
6.67462
6.70184
6.58262
6.5085
6.41605
6.1575
5.4258
4.07922
2.69574
1.71932
1.405
1.39579
0.00963446
0.0433602
0.212045
0.597218
1.22885
1.98183
2.71786
3.53442
4.36266
4.85372
5.19024
5.49087
5.76069
5.99822
5.98736
5.85686
5.47106
4.57971
3.35144
2.13027
0.0205513
0.0297209
0.0378579
0.190509
0.576729
1.09054
1.57162
2.08045
2.68192
3.17054
3.54121
3.89171
4.25658
4.70581
5.04877
5.34516
5.44019
5.38939
5.19921
4.77779
0.0354758
0.0260622
0.0249658
0.0530276
0.216231
0.516767
0.917714
1.29334
1.73381
2.08141
2.38816
2.68712
2.96659
3.29591
3.64294
4.0005
4.42452
4.67946
4.88084
4.9143
0.0449271
0.0289886
0.0289188
0.0495725
0.104826
0.183291
0.40829
0.680057
0.983971
1.31148
1.57768
1.81061
2.01643
2.22829
2.48933
2.78613
3.13719
3.46904
3.75533
4.1846
0.0622678
0.0364692
0.0385189
0.0528184
0.110578
0.177134
0.219383
0.354838
0.527314
0.775572
0.987762
1.17164
1.34813
1.53322
1.7463
1.977
2.23233
2.45473
2.7326
2.84893
0.081029
0.0464721
0.0509465
0.0688164
0.123777
0.188241
0.226085
0.319519
0.445838
0.553513
0.696707
0.830966
0.964793
1.1104
1.26165
1.40149
1.56954
1.73221
1.99215
1.94239
0.0905333
0.051714
0.053562
0.0824763
0.118002
0.177449
0.221691
0.28182
0.385991
0.456273
0.548471
0.64199
0.722544
0.808702
0.903186
0.989628
1.11711
1.25609
1.50086
1.47849
0.0931033
0.0515899
0.0503125
0.07534
0.0946985
0.133198
0.185225
0.211931
0.280668
0.346207
0.401799
0.471229
0.528001
0.581356
0.647894
0.728898
0.853563
0.975043
1.09265
1.24189
0.0972802
0.0525988
0.0469351
0.0581648
0.0693813
0.0891505
0.133082
0.145118
0.173224
0.224788
0.264699
0.322083
0.379586
0.434255
0.49651
0.572713
0.658393
0.746495
0.78568
0.911098
0.0979067
0.0562286
0.0474214
0.0528179
0.0643546
0.0750561
0.100186
0.117873
0.137609
0.180016
0.224366
0.261728
0.302833
0.34901
0.396405
0.442723
0.483455
0.528675
0.539646
0.623062
0.0981295
0.0636301
0.0520422
0.0542691
0.0664808
0.0762734
0.0954628
0.117599
0.138843
0.172165
0.209154
0.231591
0.253435
0.280913
0.306656
0.326046
0.338929
0.353643
0.372007
0.454189
0.100399
0.0713904
0.0597066
0.0593616
0.0684292
0.0748429
0.0924543
0.116573
0.137302
0.157373
0.179003
0.195094
0.202216
0.207598
0.213509
0.215369
0.21996
0.237496
0.275035
0.355765
0.106285
0.0802095
0.0631698
0.0607693
0.0651761
0.0676188
0.0819195
0.103855
0.120222
0.130175
0.134491
0.140264
0.134987
0.132848
0.133435
0.144207
0.168762
0.19909
0.230751
0.277215
0.104702
0.0958855
0.0790222
0.0618722
0.0560115
0.0555227
0.0621511
0.0726595
0.081447
0.0870701
0.0872967
0.091499
0.0960782
0.107375
0.121346
0.138361
0.159173
0.178078
0.19459
0.203013
0.0911248
0.0954862
0.0969223
0.0841797
0.0644411
0.0541619
0.0524075
0.0561115
0.0561026
0.0603673
0.0654824
0.0738852
0.0830587
0.0966155
0.110632
0.121485
0.129126
0.133335
0.130839
0.121959
0.0928202
0.118567
0.15572
0.194723
0.190428
0.174127
0.161336
0.145482
0.132005
0.134966
0.138497
0.14316
0.150603
0.163781
0.177151
0.180732
0.18363
0.185422
0.189882
0.181411
0.151704
0.276627
0.339747
0.412709
0.460287
0.49108
0.486856
0.496407
0.48234
0.482404
0.493044
0.51528
0.534164
0.527244
0.508351
0.487247
0.475093
0.471115
0.472953
0.476681
0.608354
0.815107
0.943423
1.05225
1.13284
1.12586
1.08891
1.07364
1.10112
1.20452
1.32763
1.38862
1.39947
1.4
1.40001
1.40001
1.40001
1.40001
1.40001
1.40001
0.261299
0.489475
0.726698
0.953772
1.09514
1.10527
1.07461
1.06021
1.09342
1.20273
1.32387
1.38758
1.3994
1.4
1.40001
1.40001
1.40001
1.40001
1.40001
1.40001
0.128659
0.17106
0.306429
0.540429
0.820425
0.993407
1.02359
1.03442
1.08089
1.19491
1.32581
1.3886
1.39948
1.4
1.40001
1.40001
1.40001
1.40001
1.40001
1.40001
0.189407
0.22636
0.254326
0.282581
0.406215
0.670314
0.876297
0.979663
1.07584
1.205
1.32946
1.38935
1.39954
1.4
1.40001
1.40001
1.40001
1.40001
1.40001
1.40001
0.252328
0.267578
0.297088
0.327898
0.392736
0.535869
0.733465
0.913874
1.06886
1.21414
1.33549
1.39067
1.39962
1.4
1.40001
1.40001
1.40001
1.40001
1.40001
1.40001
0.341647
0.33327
0.349121
0.376547
0.423063
0.536945
0.721982
0.906921
1.07123
1.22373
1.34215
1.39216
1.3997
1.4
1.40001
1.40001
1.40001
1.40001
1.40001
1.40001
0.441117
0.411876
0.417714
0.433468
0.483528
0.585812
0.736217
0.909941
1.07979
1.23654
1.35006
1.39384
1.39979
1.4
1.40001
1.40001
1.40001
1.40001
1.40001
1.40001
0.594921
0.498984
0.48354
0.493475
0.525608
0.618838
0.767515
0.93259
1.09942
1.25329
1.35873
1.39548
1.39987
1.4
1.40001
1.40001
1.40001
1.40001
1.40001
1.40001
0.78909
0.609488
0.532393
0.538337
0.563832
0.652441
0.811851
0.980325
1.13778
1.27781
1.3685
1.39698
1.39993
1.4
1.40001
1.40001
1.40001
1.40001
1.40001
1.40001
1.0368
0.788674
0.638959
0.646737
0.659398
0.711336
0.843541
1.01067
1.16742
1.2992
1.37686
1.39811
1.39996
1.4
1.40001
1.40001
1.40001
1.40001
1.40001
1.40001
1.66713
1.16188
0.844869
0.803074
0.816214
0.888228
1.024
1.16695
1.27917
1.35624
1.39217
1.39951
1.4
1.4
1.40001
1.40001
1.40001
1.40001
1.40001
1.40001
2.69392
2.04872
1.45469
1.24481
1.25332
1.30392
1.36422
1.39095
1.39394
1.39565
1.39833
1.39975
1.39999
1.4
1.40001
1.40001
1.40001
1.40001
1.40001
1.40001
2.80518
2.45308
2.10867
1.84959
1.72244
1.63631
1.54821
1.45918
1.40971
1.40016
1.39982
1.39991
1.39999
1.4
1.40001
1.40001
1.40001
1.40001
1.40001
1.40001
2.45788
2.39248
2.19089
1.9863
1.81734
1.66932
1.53597
1.43974
1.40451
1.40012
1.39999
1.39999
1.4
1.4
1.40001
1.40001
1.40001
1.40001
1.40001
1.40001
1.72353
1.93286
1.92776
1.84701
1.71364
1.57078
1.45854
1.4094
1.40053
1.40002
1.4
1.4
1.4
1.4
1.40001
1.40001
1.40001
1.40001
1.40001
1.40001
1.42605
1.47247
1.50539
1.50111
1.4721
1.4311
1.40644
1.4005
1.40002
1.40001
1.40001
1.40001
1.40001
1.40001
1.40001
1.40001
1.40001
1.40001
1.40001
1.40001
1.40064
1.40182
1.40347
1.40361
1.40266
1.401
1.40015
1.40001
1.40001
1.40001
1.40001
1.40001
1.40001
1.40001
1.40001
1.40001
1.40001
1.40001
1.40001
1.40001
1.40001
1.40002
1.40003
1.40003
1.40003
1.40001
1.40001
1.40001
1.40001
1.40001
1.40001
1.40001
1.40001
1.40001
1.40001
1.40001
1.40001
1.40001
1.40001
1.40001
1.40001
1.40001
1.40001
1.40001
1.40001
1.40001
1.40001
1.40001
1.40001
1.40001
1.40001
1.40001
1.40001
1.40001
1.40001
1.40001
1.40001
1.40001
1.40001
1.40001
1.40001
1.40001
1.40001
1.40001
1.40001
1.40001
1.40001
1.40001
1.40001
1.40001
1.40001
1.40001
1.40001
1.40001
1.40001
1.40001
1.40001
1.40001
1.40001
1.40001
1.40001
1.40001
1.40001
1.40001
1.40001
1.40001
1.40001
1.40001
1.40001
1.40001
1.40001
1.40001
1.40001
1.40001
1.40001
1.40001
1.40001
1.40001
1.40001
1.40001
1.40001
1.40001
1.40001
1.40001
1.40001
1.40001
1.40001
1.40001
1.40001
1.40001
1.40001
1.40001
1.40001
1.40001
1.40001
1.40001
1.40001
1.40001
1.40001
1.40001
1.40001
1.40001
1.40001
1.40001
1.40001
1.40001
1.40001
1.40001
1.40001
1.40001
1.40001
1.40001
1.40001
1.40001
1.40001
1.40001
1.40001
1.40001
1.40001
1.40001
1.40001
1.40001
1.40001
1.40001
1.40001
1.40001
1.40001
1.40001
1.40001
1.40001
1.40001
1.40001
1.40001
1.40001
1.40001
1.40001
1.40001
1.40001
1.40001
1.40001
1.40001
1.40001
1.40001
1.40001
1.40001
1.40001
1.40001
1.40001
1.40001
1.40001
1.40001
1.40001
1.40001
1.40001
1.40001
1.40001
1.40001
1.40001
1.40001
1.40001
2.23983
3.09724
2.98386
2.2253
1.57139
1.41316
1.40041
1.40001
1.40001
1.40001
1.40001
1.40001
1.40001
1.40001
1.40001
3.18406
3.39624
2.76729
1.70396
1.41398
1.40011
1.4
1.4
1.40001
1.40001
1.40001
1.40001
1.40001
1.40001
1.40001
3.79502
3.4655
2.13345
1.46669
1.40134
1.40002
1.40001
1.40001
1.40001
1.40001
1.40001
1.40001
1.40001
1.40001
1.40001
4.10053
2.77861
1.5968
1.40478
1.40001
1.4
1.40001
1.40001
1.40001
1.40001
1.40001
1.40001
1.40001
1.40001
1.40001
3.82511
1.87976
1.41938
1.40015
1.40001
1.40001
1.40001
1.40001
1.40001
1.40001
1.40001
1.40001
1.40001
1.40001
1.40001
2.35582
1.44429
1.40013
1.4
1.4
1.40001
1.40001
1.40001
1.40001
1.40001
1.40001
1.40001
1.40001
1.40001
1.40001
1.45485
1.39995
1.39999
1.4
1.40001
1.40001
1.40001
1.40001
1.40001
1.40001
1.40001
1.40001
1.40001
1.40001
1.40001
1.39912
1.39998
1.40001
1.40001
1.40001
1.40001
1.40001
1.40001
1.40001
1.40001
1.40001
1.40001
1.40001
1.40001
1.40001
1.39999
1.40001
1.40001
1.40001
1.40001
1.40001
1.40001
1.40001
1.40001
1.40001
1.40001
1.40001
1.40001
1.40001
1.40001
1.40001
1.40001
1.40001
1.40001
1.40001
1.40001
1.40001
1.40001
1.40001
1.40001
1.40001
1.40001
1.40001
1.40001
1.40001
1.40001
1.40001
1.40001
1.40001
1.40001
1.40001
1.40001
1.40001
1.40001
1.40001
1.40001
1.40001
1.40001
1.40001
1.40001
1.40001
1.40001
1.40001
1.40001
1.40001
1.40001
1.40001
1.40001
1.40001
1.40001
1.40001
1.40001
1.40001
1.40001
1.40001
1.40001
1.40001
1.40001
1.40001
1.40001
1.40001
1.40001
1.40001
1.40001
1.40001
1.40001
1.40001
1.40001
1.40001
1.40001
1.40001
1.40001
1.40001
1.40001
1.40001
1.40001
1.40001
1.40001
1.40001
1.40001
1.40001
1.40001
1.40001
1.40001
1.40001
1.40001
1.40001
1.40001
1.40001
1.40001
1.40001
1.40001
1.40001
1.40001
1.40001
1.40001
1.40001
1.40001
1.40001
1.40001
1.40001
1.40001
1.40001
1.40001
1.40001
1.40001
1.40001
1.40001
1.40001
1.40001
1.40001
1.40001
1.40001
1.40001
1.40001
1.40001
1.40001
1.40001
1.40001
1.40001
1.40001
1.40001
1.40001
1.40001
1.40001
1.40001
1.40001
1.40001
1.40001
1.40001
1.40001
1.40001
1.40001
1.40001
1.40001
1.40001
1.40001
1.40001
1.40001
1.40001
1.40001
1.40001
1.40001
1.40001
1.40001
1.40001
1.40001
1.40001
1.40001
1.40001
1.40001
1.40001
1.40001
1.40001
1.40001
1.40001
1.40001
1.40001
1.40001
1.40001
1.40001
1.40001
1.40001
1.40001
1.40001
1.40001
1.40001
1.40001
1.40001
1.40001
1.40001
1.40001
1.40001
1.40001
1.40001
1.40001
1.40001
1.40001
1.40001
1.40001
1.40001
1.40001
1.40001
1.40001
1.40001
1.40001
1.40001
1.40001
1.40001
1.40001
1.40001
1.40001
1.40001
1.40001
1.40001
1.40001
1.40001
1.40001
1.40001
1.40001
1.40001
1.40001
1.40001
1.40001
1.40001
1.40001
1.40001
1.40001
1.40001
1.40001
1.40001
1.40001
1.40001
1.40001
1.40001
1.40001
1.40001
1.40001
1.40001
1.40001
1.40001
1.40001
1.40001
1.40001
1.40001
1.40001
1.40001
1.40001
1.40001
1.40001
1.40001
1.40001
1.40001
1.40001
1.40001
1.40001
1.40001
1.40001
1.40001
1.40001
1.40001
1.40001
1.40001
1.40001
1.40001
1.40001
1.40001
1.40001
1.40001
1.40001
1.40001
1.40001
1.40001
1.40001
1.40001
1.40001
1.40001
1.40001
1.40001
1.40001
1.40001
1.40001
1.40001
1.40001
1.40001
1.40001
1.40001
1.40001
1.40001
1.40001
1.40001
1.40001
1.40001
1.40001
1.40001
1.40001
1.40001
1.40001
1.40001
1.40001
1.40001
1.40001
1.40001
1.40001
1.40001
1.40001
1.40001
1.40001
1.40001
1.40001
1.40001
1.40001
1.40001
1.40001
1.40001
1.40001
1.40001
1.40001
1.40001
1.40001
1.40001
1.40001
1.40001
1.40001
1.40001
1.40001
1.40001
1.40001
1.40001
1.40001
1.40001
1.40001
1.40001
1.40001
1.40001
1.40001
1.40001
1.40001
1.40001
1.40001
1.40001
1.40001
1.40001
1.40001
1.40001
1.40001
1.40001
1.40001
1.40001
1.40001
1.40001
1.40001
1.40001
1.40001
1.40001
1.40001
1.40001
1.40001
1.40001
1.40001
1.40001
1.40001
1.40001
1.40001
1.40001
1.40001
1.40001
1.40001
1.40001
1.40001
1.40001
1.40001
1.40001
1.40001
1.40001
1.40001
1.40001
1.40001
1.40001
1.40001
1.40001
1.40001
1.40001
1.40001
1.40001
1.40001
1.40001
1.40001
1.40001
1.40001
1.40001
1.40001
1.40001
1.40001
1.40001
1.40001
1.40001
1.40001
1.40001
1.40001
1.40001
1.40001
1.40001
1.40001
1.40001
1.40001
1.40001
1.40001
1.40001
1.40001
1.40001
1.40001
1.40001
1.40001
1.40001
1.40001
1.40001
1.40001
1.40001
1.40001
1.40001
1.40001
1.40001
1.40001
1.40001
1.40001
1.40001
1.40001
1.40001
1.40001
1.40001
1.40001
1.40001
1.40001
1.40001
1.40001
1.40001
1.40001
1.40001
1.40001
1.40001
1.40001
1.40001
1.40001
1.40001
1.40001
1.40001
1.40001
1.40001
1.40001
1.40001
1.40001
1.40001
1.40001
1.40001
1.40001
1.40001
1.40001
1.40001
1.40001
1.40001
1.40001
1.40001
1.40001
1.40001
1.40001
1.40001
1.40001
1.40001
1.40001
1.40001
1.40001
1.40001
1.40001
1.40001
1.40001
1.40001
1.40001
1.40001
1.40001
1.40001
1.40001
1.40001
1.40001
1.40001
1.40001
1.40001
1.40001
1.40001
1.40001
1.40001
1.40001
1.40001
1.40001
1.40001
1.40001
1.40001
1.40001
1.40001
1.40001
1.40001
1.40001
1.40001
1.40001
1.40001
1.40001
1.40001
1.40001
1.40001
1.40001
1.40001
1.40001
1.40001
1.40001
1.40001
1.40001
1.40001
1.40001
1.40001
1.40001
1.40001
1.40001
1.40001
1.40001
1.40001
1.40001
1.40001
1.40001
1.40001
1.40001
1.40001
1.40001
1.40001
1.40001
1.40001
1.40001
1.40001
1.40001
1.40001
1.40001
1.40001
1.40001
1.40001
1.40001
1.40001
1.40001
1.40001
1.40001
1.40001
1.40001
1.40001
1.40001
1.40001
1.40001
1.40001
1.40001
1.40001
1.40001
1.40001
1.40001
1.40001
1.40001
1.40001
1.40001
1.40001
1.40001
1.40001
1.40001
1.40001
1.40001
1.40001
1.40001
1.40001
1.40001
1.40001
1.40001
1.40001
1.40001
1.40001
1.40001
1.40001
1.40001
1.40001
1.40001
1.40001
1.40001
1.40001
1.40001
1.40001
1.40001
1.40001
1.40001
1.40001
1.40001
1.40001
1.40001
1.40001
1.40001
1.40001
1.40001
1.40001
1.40001
1.40001
1.40001
1.40001
1.40001
1.40001
1.40001
1.40001
1.40001
1.40001
1.40001
1.40001
1.40001
1.40001
1.40001
1.40001
1.40001
1.40001
1.40001
1.40001
1.40001
1.40001
1.40001
1.40001
1.40001
1.40001
1.40001
1.40001
1.40001
1.40001
1.40001
1.40001
1.40001
1.40001
1.40001
1.40001
1.40001
1.40001
1.40001
1.40001
1.40001
1.40001
1.40001
1.40001
1.40001
1.40001
1.40001
1.40001
1.40001
1.40001
1.40001
1.40001
1.40001
1.40001
1.40001
1.40001
1.40001
1.40001
1.40001
1.40001
1.40001
1.40001
1.40001
1.40001
1.40001
1.40001
1.40001
1.40001
1.40001
1.40001
1.40001
1.40001
1.40001
1.40001
1.40001
1.40001
1.40001
1.40001
1.40001
1.40001
1.40001
1.40001
1.40001
1.40001
1.40001
1.40001
1.40001
1.40001
1.40001
1.40001
1.40001
1.40001
1.40001
1.40001
1.40001
1.40001
1.40001
1.40001
1.40001
1.40001
1.40001
1.40001
1.40001
1.40001
1.40001
1.40001
1.40001
1.40001
1.40001
1.40001
1.40001
1.40001
1.40001
1.40001
1.40001
1.40001
1.40001
1.40001
1.40001
1.40001
1.40001
1.40001
1.40001
1.40001
1.40001
1.40001
1.40001
1.40001
1.40001
1.40001
1.40001
1.40001
1.40001
1.40001
1.40001
1.40001
1.40001
1.40001
1.40001
1.40001
1.40001
1.40001
1.40001
1.40001
1.40001
1.40001
1.40001
1.40001
1.40001
1.40001
1.40001
1.40001
1.40001
1.40001
1.40001
1.40001
1.40001
1.40001
1.40001
1.40001
1.40001
1.40001
1.40001
1.40001
1.40001
1.40001
1.40001
1.40001
1.40001
1.40001
1.40001
1.40001
1.40001
1.40001
1.40001
1.40001
1.40001
1.40001
1.40001
1.40001
1.40001
1.40001
1.40001
1.40001
1.40001
1.40001
1.40001
1.40001
1.40001
1.40001
1.40001
1.40001
1.40001
1.40001
1.40001
1.40001
1.40001
1.40001
1.40001
1.40001
1.40001
1.40001
1.40001
1.40001
1.40001
1.40001
1.40001
1.40001
1.40001
1.40001
1.40001
1.40001
1.40001
1.40001
1.40001
1.40001
1.40001
1.40001
1.40001
1.40001
1.40001
1.40001
1.40001
1.40001
1.40001
1.40001
1.40001
1.40001
1.40001
1.40001
1.40001
1.40001
1.40001
1.40001
1.40001
1.40001
1.40001
1.40001
1.40001
1.40001
1.40001
1.40001
1.40001
1.40001
1.40001
1.40001
1.40001
1.40001
1.40001
1.40001
1.40001
1.40001
1.40001
1.40001
1.40001
1.40001
1.40001
1.40001
1.40001
1.39999
1.40001
1.40001
1.40001
1.40001
1.40001
1.40001
1.40001
1.40001
1.40001
1.40001
1.40001
1.40001
1.40001
1.40001
1.39912
1.39998
1.40001
1.40001
1.40001
1.40001
1.40001
1.40001
1.40001
1.40001
1.40001
1.40001
1.40001
1.40001
1.40001
1.45485
1.39995
1.39999
1.4
1.40001
1.40001
1.40001
1.40001
1.40001
1.40001
1.40001
1.40001
1.40001
1.40001
1.40001
2.35581
1.44429
1.40013
1.4
1.4
1.40001
1.40001
1.40001
1.40001
1.40001
1.40001
1.40001
1.40001
1.40001
1.40001
3.82512
1.87976
1.41938
1.40015
1.40001
1.40001
1.40001
1.40001
1.40001
1.40001
1.40001
1.40001
1.40001
1.40001
1.40001
4.10051
2.7786
1.5968
1.40478
1.40001
1.4
1.40001
1.40001
1.40001
1.40001
1.40001
1.40001
1.40001
1.40001
1.40001
3.795
3.46549
2.13345
1.4667
1.40134
1.40002
1.40001
1.40001
1.40001
1.40001
1.40001
1.40001
1.40001
1.40001
1.40001
3.18407
3.39623
2.76729
1.70396
1.41398
1.40011
1.4
1.4
1.40001
1.40001
1.40001
1.40001
1.40001
1.40001
1.40001
2.23982
3.09724
2.98387
2.2253
1.57139
1.41316
1.40041
1.40001
1.40001
1.40001
1.40001
1.40001
1.40001
1.40001
1.40001
1.66716
2.69398
2.8052
2.45788
1.72353
1.42605
1.40064
1.40001
1.40001
1.40001
1.40001
1.40001
1.40001
1.40001
1.40001
1.16298
2.0488
2.45309
2.39249
1.93287
1.47247
1.40182
1.40002
1.40001
1.40001
1.40001
1.40001
1.40001
1.40001
1.40001
0.843069
1.45461
2.10876
2.19089
1.92776
1.50539
1.40347
1.40003
1.40001
1.40001
1.40001
1.40001
1.40001
1.40001
1.40001
0.801063
1.24431
1.84949
1.98628
1.84701
1.50111
1.40361
1.40003
1.40001
1.40001
1.40001
1.40001
1.40001
1.40001
1.40001
0.811203
1.25263
1.72222
1.81732
1.71363
1.47211
1.40266
1.40003
1.40001
1.40001
1.40001
1.40001
1.40001
1.40001
1.40001
0.882193
1.30285
1.63615
1.66928
1.57077
1.4311
1.401
1.40001
1.40001
1.40001
1.40001
1.40001
1.40001
1.40001
1.40001
1.02139
1.36366
1.54814
1.53594
1.45855
1.40644
1.40015
1.40001
1.40001
1.40001
1.40001
1.40001
1.40001
1.40001
1.40001
1.1665
1.39081
1.45916
1.43973
1.4094
1.4005
1.40001
1.40001
1.40001
1.40001
1.40001
1.40001
1.40001
1.40001
1.40001
1.27919
1.39396
1.40971
1.40451
1.40053
1.40002
1.40001
1.40001
1.40001
1.40001
1.40001
1.40001
1.40001
1.40001
1.40001
1.35629
1.39567
1.40016
1.40012
1.40002
1.40001
1.40001
1.40001
1.40001
1.40001
1.40001
1.40001
1.40001
1.40001
1.40001
1.39219
1.39834
1.39982
1.39999
1.4
1.40001
1.40001
1.40001
1.40001
1.40001
1.40001
1.40001
1.40001
1.40001
1.40001
1.39952
1.39975
1.39991
1.39999
1.4
1.40001
1.40001
1.40001
1.40001
1.40001
1.40001
1.40001
1.40001
1.40001
1.40001
1.4
1.39999
1.39999
1.4
1.4
1.40001
1.40001
1.40001
1.40001
1.40001
1.40001
1.40001
1.40001
1.40001
1.40001
1.4
1.4
1.4
1.4
1.4
1.40001
1.40001
1.40001
1.40001
1.40001
1.40001
1.40001
1.40001
1.40001
1.40001
1.40001
1.40001
1.40001
1.40001
1.40001
1.40001
1.40001
1.40001
1.40001
1.40001
1.40001
1.40001
1.40001
1.40001
1.40001
1.40001
1.40001
1.40001
1.40001
1.40001
1.40001
1.40001
1.40001
1.40001
1.40001
1.40001
1.40001
1.40001
1.40001
1.40001
1.40001
1.40001
1.40001
1.40001
1.40001
1.40001
1.40001
1.40001
1.40001
1.40001
1.40001
1.40001
1.40001
1.40001
1.40001
1.40001
1.40001
1.40001
1.40001
1.40001
1.40001
1.40001
1.40001
1.40001
1.40001
1.40001
1.40001
1.40001
1.40001
1.40001
1.40001
1.40001
1.40001
1.40001
1.40001
1.40001
1.40001
1.40001
1.40001
1.40001
1.40001
1.40001
1.40001
1.40001
1.40001
1.40001
1.40001
1.40001
1.40001
1.40001
1.40001
1.40001
1.40001
1.40001
1.40001
1.40001
1.40001
1.40001
1.40001
1.40001
1.03655
0.787852
0.640128
0.649888
0.668621
0.722977
0.849934
1.01227
1.16754
1.29914
1.37685
1.39812
1.39996
1.4
1.40001
1.40001
1.40001
1.40001
1.40001
1.40001
0.78888
0.608389
0.535254
0.541391
0.570418
0.655931
0.81135
0.979416
1.13718
1.27747
1.36838
1.39697
1.39993
1.4
1.40001
1.40001
1.40001
1.40001
1.40001
1.40001
0.594899
0.498931
0.484379
0.49433
0.526357
0.619665
0.768516
0.933112
1.09915
1.2529
1.35852
1.39545
1.39987
1.4
1.40001
1.40001
1.40001
1.40001
1.40001
1.40001
0.441171
0.411718
0.417461
0.43346
0.484128
0.585973
0.734369
0.907438
1.07799
1.23567
1.34973
1.39378
1.39979
1.4
1.40001
1.40001
1.40001
1.40001
1.40001
1.40001
0.341613
0.333126
0.349232
0.377269
0.423307
0.535819
0.719566
0.901433
1.0702
1.22322
1.34179
1.39209
1.3997
1.4
1.40001
1.40001
1.40001
1.40001
1.40001
1.40001
0.252276
0.267656
0.297378
0.327876
0.3923