/*--------------------------------*- C++ -*----------------------------------*\
  =========                 |
  \\      /  F ield         | OpenFOAM: The Open Source CFD Toolbox
   \\    /   O peration     | Website:  https://openfoam.org
    \\  /    A nd           | Version:  7
     \\/     M anipulation  |
\*---------------------------------------------------------------------------*/
FoamFile
{
    version     2.0;
    format      ascii;
    class       volVectorField;
    location    "0.7";
    object      U;
}
// * * * * * * * * * * * * * * * * * * * * * * * * * * * * * * * * * * * * * //

dimensions      [0 1 -1 0 0 0 0];

internalField   nonuniform List<vector> 
3700
(
(1.36383 -0.356879 0)
(1.1974 -0.496779 0)
(1.14079 -0.240073 0)
(1.17986 -0.224474 0)
(1.28465 -0.198728 0)
(1.39681 -0.19868 0)
(1.429 -0.198637 0)
(1.4299 -0.24097 0)
(1.45993 -0.234318 0)
(1.50258 -0.241447 0)
(1.55251 -0.251035 0)
(1.6303 -0.287313 0)
(1.72285 -0.28866 0)
(1.76373 -0.292173 0)
(1.80503 -0.291467 0)
(1.85341 -0.289054 0)
(1.88404 -0.280373 0)
(1.90875 -0.266872 0)
(1.91747 -0.212687 0)
(1.92925 -0.191531 0)
(1.80563 -1.39298 0)
(1.64119 -1.37769 0)
(1.61834 -1.10179 0)
(1.80153 -1.02699 0)
(1.90117 -1.15727 0)
(1.97614 -1.25157 0)
(1.993 -1.3242 0)
(1.95007 -1.4986 0)
(1.98034 -1.51819 0)
(1.97973 -1.53811 0)
(2.02533 -1.53726 0)
(2.08092 -1.68541 0)
(2.16407 -1.65802 0)
(2.24357 -1.62477 0)
(2.29547 -1.52476 0)
(2.3585 -1.44674 0)
(2.42053 -1.41273 0)
(2.46582 -1.35142 0)
(2.51285 -1.25464 0)
(2.60956 -1.17546 0)
(1.70205 -1.52208 0)
(1.72642 -1.62482 0)
(1.74859 -1.73985 0)
(1.82352 -1.94793 0)
(1.91682 -2.13487 0)
(2.01242 -2.24465 0)
(2.12321 -2.28434 0)
(2.15877 -2.30893 0)
(2.26739 -2.24396 0)
(2.32347 -2.24672 0)
(2.43775 -2.1663 0)
(2.41477 -2.26533 0)
(2.47108 -2.12961 0)
(2.49676 -2.02556 0)
(2.53452 -1.91171 0)
(2.58561 -1.81311 0)
(2.63792 -1.778 0)
(2.70388 -1.71468 0)
(2.75222 -1.6947 0)
(2.95221 -1.63438 0)
(1.55809 -1.50328 0)
(1.59524 -1.77764 0)
(1.66921 -2.15269 0)
(1.76306 -2.27666 0)
(1.8305 -2.26392 0)
(1.89276 -2.24389 0)
(1.91132 -2.20089 0)
(1.98203 -2.23116 0)
(2.17971 -2.10266 0)
(2.41349 -1.97279 0)
(2.59813 -1.75322 0)
(2.64088 -1.77076 0)
(2.70042 -1.75549 0)
(2.70373 -1.78494 0)
(2.70666 -1.73533 0)
(2.71595 -1.66987 0)
(2.69975 -1.65807 0)
(2.71776 -1.5461 0)
(2.7464 -1.52616 0)
(2.85752 -1.41664 0)
(1.39842 -1.52573 0)
(1.49604 -1.95895 0)
(1.66187 -2.28965 0)
(1.79006 -2.34339 0)
(1.80662 -2.3236 0)
(1.81401 -2.19957 0)
(1.86378 -2.15115 0)
(1.92864 -2.14177 0)
(2.08294 -2.0981 0)
(2.26944 -1.90177 0)
(2.38283 -1.74144 0)
(2.57834 -1.63689 0)
(2.66294 -1.48474 0)
(2.75139 -1.37662 0)
(2.81022 -1.32947 0)
(2.87908 -1.24843 0)
(2.85682 -1.32635 0)
(2.86498 -1.24066 0)
(2.79762 -1.30829 0)
(2.81844 -1.23125 0)
(1.25096 -1.53219 0)
(1.53635 -2.06778 0)
(1.74117 -2.34712 0)
(2.06665 -2.38146 0)
(2.10418 -2.35141 0)
(2.02825 -2.11486 0)
(1.93228 -2.11978 0)
(2.02458 -2.1137 0)
(2.17056 -2.05045 0)
(2.26404 -1.85064 0)
(2.33272 -1.69403 0)
(2.4732 -1.60761 0)
(2.55713 -1.47908 0)
(2.65827 -1.38282 0)
(2.77705 -1.26361 0)
(2.8665 -1.06124 0)
(2.92334 -0.925222 0)
(2.95331 -0.811718 0)
(2.90127 -0.887386 0)
(2.86622 -0.910703 0)
(1.22281 -1.58376 0)
(1.6301 -2.16493 0)
(2.0182 -2.39043 0)
(2.31465 -2.37501 0)
(2.31989 -2.29933 0)
(2.26741 -1.99464 0)
(2.18573 -1.9979 0)
(2.28757 -2.00425 0)
(2.39915 -1.92903 0)
(2.407 -1.79905 0)
(2.43119 -1.63302 0)
(2.49291 -1.54381 0)
(2.563 -1.38348 0)
(2.61596 -1.28825 0)
(2.6979 -1.23336 0)
(2.77053 -1.09262 0)
(2.84841 -0.930187 0)
(2.93158 -0.722447 0)
(2.95213 -0.588332 0)
(2.906 -0.567609 0)
(1.27742 -1.67864 0)
(1.76825 -2.20486 0)
(2.09061 -2.39687 0)
(2.32256 -2.37331 0)
(2.37732 -2.28908 0)
(2.4573 -1.85338 0)
(2.51113 -1.83129 0)
(2.59944 -1.78172 0)
(2.64902 -1.57824 0)
(2.66345 -1.57963 0)
(2.65904 -1.46257 0)
(2.68012 -1.28746 0)
(2.69875 -1.1687 0)
(2.71513 -1.03775 0)
(2.73022 -0.997446 0)
(2.74424 -0.893339 0)
(2.77591 -0.810869 0)
(2.87044 -0.696513 0)
(2.86156 -0.453585 0)
(2.85929 -0.275055 0)
(1.43113 -1.79603 0)
(1.83995 -2.23552 0)
(2.04024 -2.3738 0)
(2.15524 -2.29215 0)
(2.29518 -2.25003 0)
(2.49962 -1.8015 0)
(2.50048 -1.84418 0)
(2.69169 -1.64096 0)
(2.80592 -1.31515 0)
(2.81452 -1.31115 0)
(2.80508 -1.05253 0)
(2.79218 -0.906738 0)
(2.80349 -0.81848 0)
(2.8064 -0.670277 0)
(2.80025 -0.618736 0)
(2.78145 -0.559606 0)
(2.75512 -0.532582 0)
(2.79835 -0.536318 0)
(2.76877 -0.382903 0)
(2.76219 -0.153112 0)
(1.53826 -1.86451 0)
(1.78383 -2.21318 0)
(1.88948 -2.21599 0)
(1.88626 -2.11371 0)
(1.99351 -2.00876 0)
(2.25685 -1.71271 0)
(2.29546 -1.73942 0)
(2.43959 -1.45799 0)
(2.54595 -1.31137 0)
(2.59892 -1.263 0)
(2.64838 -0.960389 0)
(2.7077 -0.810463 0)
(2.75899 -0.630726 0)
(2.76944 -0.412195 0)
(2.77987 -0.283971 0)
(2.76797 -0.200591 0)
(2.74045 -0.14529 0)
(2.72383 -0.226912 0)
(2.70441 -0.193834 0)
(2.69366 -0.0523703 0)
(1.56742 -1.88447 0)
(1.65079 -2.17378 0)
(1.82661 -2.06839 0)
(1.78496 -2.01291 0)
(1.87632 -1.84542 0)
(2.12631 -1.67743 0)
(2.23648 -1.61623 0)
(2.37807 -1.28232 0)
(2.40823 -1.27138 0)
(2.49179 -1.0586 0)
(2.55212 -0.872401 0)
(2.6276 -0.717669 0)
(2.67574 -0.519557 0)
(2.6918 -0.31471 0)
(2.71713 -0.168533 0)
(2.70006 -0.000981593 0)
(2.66882 0.145229 0)
(2.638 0.137225 0)
(2.60139 0.1676 0)
(2.65351 0.0422837 0)
(1.45867 -1.76113 0)
(1.59242 -2.03423 0)
(1.78379 -1.94933 0)
(1.79493 -1.66643 0)
(1.92556 -1.70187 0)
(2.14764 -1.65715 0)
(2.39105 -1.37422 0)
(2.46531 -1.12055 0)
(2.50579 -1.07537 0)
(2.55636 -0.696826 0)
(2.60691 -0.541727 0)
(2.64813 -0.383025 0)
(2.6533 -0.216902 0)
(2.63822 -0.0855989 0)
(2.63845 -0.00654042 0)
(2.60943 0.12079 0)
(2.58105 0.241653 0)
(2.54394 0.33897 0)
(2.48261 0.442321 0)
(2.50626 0.377481 0)
(1.22892 -1.56397 0)
(1.51103 -1.79576 0)
(1.78019 -1.74234 0)
(1.90623 -1.31638 0)
(2.08915 -1.40973 0)
(2.34007 -1.45319 0)
(2.52331 -0.809938 0)
(2.63775 -0.665053 0)
(2.65671 -0.35857 0)
(2.65966 -0.304293 0)
(2.64262 -0.104588 0)
(2.62945 0.0497668 0)
(2.61117 0.167754 0)
(2.56065 0.297913 0)
(2.53824 0.313579 0)
(2.4873 0.386742 0)
(2.46463 0.398873 0)
(2.43699 0.463647 0)
(2.35484 0.621791 0)
(2.36516 0.620214 0)
(1.01745 -1.33126 0)
(1.46089 -1.54267 0)
(1.78586 -1.39652 0)
(1.91789 -1.17416 0)
(2.21985 -1.2998 0)
(2.55602 -0.828556 0)
(2.65874 -0.439731 0)
(2.66016 -0.424829 0)
(2.60293 -0.0875062 0)
(2.59556 -0.0245291 0)
(2.56593 0.140601 0)
(2.52369 0.308944 0)
(2.49643 0.424824 0)
(2.4197 0.575937 0)
(2.3809 0.622604 0)
(2.32589 0.67775 0)
(2.28654 0.698909 0)
(2.27276 0.716565 0)
(2.24525 0.77232 0)
(2.23722 0.853284 0)
(0.864941 -1.17954 0)
(1.44224 -1.472 0)
(1.81693 -1.07778 0)
(2.54558 -0.529022 0)
(2.55663 -0.922917 0)
(2.53438 -0.470468 0)
(2.53701 -0.463128 0)
(2.50255 -0.138195 0)
(2.47348 -0.0204634 0)
(2.47185 0.192057 0)
(2.42031 0.400418 0)
(2.36415 0.551429 0)
(2.31155 0.661948 0)
(2.24726 0.756139 0)
(2.2077 0.809143 0)
(2.14435 0.883318 0)
(2.11764 0.909923 0)
(2.11491 0.934825 0)
(2.1134 0.981186 0)
(2.17306 0.952778 0)
(1.0284 -1.03043 0)
(1.30728 -1.33036 0)
(2.25684 -0.213526 0)
(2.4927 -0.469966 0)
(2.36708 -0.597602 0)
(2.42118 -0.294819 0)
(2.4428 -0.0297309 0)
(2.38212 0.273827 0)
(2.33022 0.426892 0)
(2.30731 0.575884 0)
(2.22857 0.734445 0)
(2.15198 0.850698 0)
(2.0893 0.926542 0)
(2.03863 0.969863 0)
(2.02237 0.983853 0)
(1.98283 1.03048 0)
(2.02535 1.027 0)
(2.0501 1.01957 0)
(2.10475 1.01103 0)
(2.26715 0.955236 0)
(1.30724 -0.486075 0)
(1.94287 -0.731157 0)
(2.22832 -0.459312 0)
(2.34916 -0.252847 0)
(2.34739 0.179544 0)
(2.38239 0.304783 0)
(2.25332 0.610605 0)
(2.21322 0.680042 0)
(2.1356 0.783263 0)
(2.07401 0.927216 0)
(1.98407 1.02754 0)
(1.92989 1.0724 0)
(1.89841 1.09444 0)
(1.88849 1.09279 0)
(1.91133 1.0761 0)
(1.9423 1.06726 0)
(2.04146 1.02553 0)
(2.26076 0.912132 0)
(2.57477 0.690628 0)
(2.95691 0.258261 0)
(1.10805 -0.0545636 0)
(1.84908 -0.191737 0)
(2.22818 0.168413 0)
(2.23609 0.466299 0)
(2.21784 0.607445 0)
(2.13022 0.795422 0)
(2.05375 0.898678 0)
(1.96519 0.986105 0)
(1.89849 1.04372 0)
(1.85738 1.13419 0)
(1.79766 1.16393 0)
(1.80079 1.15724 0)
(1.82965 1.13546 0)
(1.88297 1.08914 0)
(2.08582 0.943126 0)
(2.32379 0.80477 0)
(2.76259 0.433764 0)
(3.06612 0.0521818 0)
(3.02719 -0.0114133 0)
(2.99978 -0.0016483 0)
(1.01986 0.0179204 0)
(1.92237 0.809103 0)
(2.12718 0.832814 0)
(1.98992 1.00124 0)
(1.96122 1.00893 0)
(1.87097 1.0945 0)
(1.7952 1.13727 0)
(1.76404 1.14751 0)
(1.7628 1.16406 0)
(1.74092 1.20691 0)
(1.72168 1.19614 0)
(1.88731 1.06162 0)
(2.12609 0.877276 0)
(2.55223 0.552727 0)
(3.01783 0.112144 0)
(3.06296 -0.0257699 0)
(3.00448 -0.00579163 0)
(3.0014 -0.00286284 0)
(3.00031 -0.00149555 0)
(2.99998 -0.000270628 0)
(1.16277 0.775306 0)
(1.83716 1.14315 0)
(1.83454 1.15811 0)
(1.74622 1.18949 0)
(1.72265 1.19866 0)
(1.66827 1.24516 0)
(1.65846 1.21715 0)
(1.72488 1.16896 0)
(1.75602 1.23101 0)
(1.78746 1.13775 0)
(2.28779 0.72802 0)
(2.86877 0.202475 0)
(3.09087 -0.0258853 0)
(3.01742 -0.0110996 0)
(3.00352 -0.00487491 0)
(3.00138 -0.00266259 0)
(3.0001 -0.000585649 0)
(3 -1.801e-05 0)
(3 7.84174e-06 0)
(3 2.57365e-06 0)
(1.58021 1.25813 0)
(1.58564 1.26419 0)
(1.59307 1.27052 0)
(1.60423 1.26573 0)
(1.61349 1.25295 0)
(1.59671 1.26955 0)
(1.89486 1.15728 0)
(2.94475 0.372734 0)
(3.34255 -0.573085 0)
(3 -1.65744e-09 0)
(3 8.69378e-09 0)
(3 -7.26225e-10 0)
(3 -1.89744e-10 0)
(3 -4.77261e-10 0)
(3 -1.25696e-11 0)
(3 2.26502e-11 0)
(3 -6.43885e-11 0)
(3 1.02073e-12 0)
(3 2.14877e-12 0)
(3 4.19334e-14 0)
(1.58053 1.24626 0)
(1.59269 1.2591 0)
(1.60027 1.27139 0)
(1.60385 1.2709 0)
(1.66857 1.24405 0)
(1.7032 1.23636 0)
(2.27408 0.724812 0)
(2.99779 0.0140753 0)
(3 1.02394e-07 0)
(3 1.39167e-09 0)
(3 -1.40692e-10 0)
(3 2.53517e-13 0)
(3 -9.10294e-13 0)
(3 1.17686e-12 0)
(3 -3.19895e-13 0)
(3 -6.32906e-15 0)
(3 -1.71036e-15 0)
(3 -1.46653e-15 0)
(3 -6.61809e-16 0)
(3 1.40828e-15 0)
(1.58563 1.25184 0)
(1.60345 1.25621 0)
(1.60862 1.26158 0)
(1.58248 1.28664 0)
(1.75429 1.18541 0)
(2.2548 0.792493 0)
(3.00017 -0.00507458 0)
(3.00019 -0.000495133 0)
(3 4.22355e-07 0)
(3 7.22151e-10 0)
(3 1.7854e-12 0)
(3 3.50668e-13 0)
(3 2.04291e-15 0)
(3 -3.4031e-15 0)
(3 1.2224e-15 0)
(3 -2.28561e-15 0)
(3 -2.09397e-15 0)
(3 -1.044e-15 0)
(3 2.43982e-16 0)
(3 1.78694e-15 0)
(1.58586 1.25311 0)
(1.60753 1.25829 0)
(1.6298 1.26094 0)
(1.59257 1.31655 0)
(1.84403 1.09721 0)
(2.73382 0.232592 0)
(3.00468 -0.000938664 0)
(2.99992 7.11816e-05 0)
(3 -7.5758e-07 0)
(3 1.12833e-09 0)
(3 6.74826e-14 0)
(3 -7.24665e-14 0)
(3 2.26309e-15 0)
(3 -4.2516e-16 0)
(3 -2.81202e-15 0)
(3 -1.97457e-15 0)
(3 -4.68548e-16 0)
(3 -2.3148e-16 0)
(3 6.99672e-16 0)
(3 2.02364e-15 0)
(1.58554 1.26753 0)
(1.60516 1.26972 0)
(1.63748 1.25827 0)
(1.71698 1.22047 0)
(2.34393 0.641895 0)
(3.02104 -0.0189507 0)
(2.99973 0.000140199 0)
(3 -4.34877e-06 0)
(3 8.34693e-08 0)
(3 -1.13573e-09 0)
(3 1.14451e-11 0)
(3 -1.53774e-13 0)
(3 3.17712e-15 0)
(3 -1.85665e-15 0)
(3 -2.09726e-15 0)
(3 -1.27779e-15 0)
(3 -9.62764e-17 0)
(3 5.37551e-16 0)
(3 1.1549e-15 0)
(3 1.41846e-15 0)
(1.58425 1.28284 0)
(1.58439 1.27797 0)
(1.64544 1.25196 0)
(1.86608 1.09341 0)
(2.74389 0.221939 0)
(3 -3.76286e-10 0)
(3 1.06812e-08 0)
(3 -1.00146e-08 0)
(3 5.59003e-10 0)
(3 -3.16973e-12 0)
(3 -5.05916e-14 0)
(3 1.70556e-15 0)
(3 -9.18051e-16 0)
(3 -1.88192e-15 0)
(3 -2.12359e-15 0)
(3 -1.93938e-15 0)
(3 -2.60763e-16 0)
(3 1.66905e-15 0)
(3 1.52477e-15 0)
(3 -1.01037e-15 0)
(1.584 1.29506 0)
(1.54767 1.28667 0)
(1.6518 1.24477 0)
(2.08899 0.867127 0)
(3.01187 -0.00779791 0)
(3 1.29246e-14 0)
(3 -9.25346e-14 0)
(3 1.73319e-12 0)
(3 -1.60109e-12 0)
(3 5.53784e-14 0)
(3 -7.19722e-17 0)
(3 -1.28491e-16 0)
(3 -9.87494e-16 0)
(3 -1.45165e-15 0)
(3 -2.01536e-15 0)
(3 -1.80224e-15 0)
(3 1.96121e-16 0)
(3 2.5487e-15 0)
(3 8.49721e-16 0)
(3 -1.07341e-15 0)
(1.5888 1.32859 0)
(1.50385 1.3269 0)
(1.75757 1.18608 0)
(2.41285 0.547711 0)
(3 -9.73297e-07 0)
(3 1.73792e-12 0)
(3 1.1602e-14 0)
(3 -6.52406e-15 0)
(3 4.11104e-15 0)
(3 -1.16415e-15 0)
(3 9.95222e-16 0)
(3 1.17338e-15 0)
(3 2.91701e-17 0)
(3 -9.29565e-16 0)
(3 -1.99253e-15 0)
(3 -1.02666e-15 0)
(3 9.7174e-16 0)
(3 3.22829e-15 0)
(3 5.63663e-16 0)
(3 -9.68076e-16 0)
(1.59029 1.30562 0)
(1.47049 1.3444 0)
(1.97514 1.03469 0)
(2.87926 0.119599 0)
(3 -5.01853e-08 0)
(3 2.02257e-11 0)
(3 3.16642e-16 0)
(3 -5.08613e-17 0)
(3 -6.69518e-16 0)
(3 4.38786e-16 0)
(3 7.46224e-16 0)
(3 9.17595e-16 0)
(3 7.85348e-16 0)
(3 5.08815e-16 0)
(3 -1.5315e-16 0)
(3 -5.82519e-16 0)
(3 1.66612e-15 0)
(3 2.21774e-15 0)
(3 2.30558e-16 0)
(3 -6.49609e-16 0)
(1.60578 1.2968 0)
(1.47808 1.39459 0)
(2.12085 0.847284 0)
(3.01127 -0.00914859 0)
(3 6.20776e-08 0)
(3 -2.14782e-11 0)
(3 3.52213e-15 0)
(3 -2.92622e-16 0)
(3 -8.31075e-16 0)
(3 2.57319e-18 0)
(3 6.38584e-16 0)
(3 8.2216e-16 0)
(3 7.98739e-16 0)
(3 1.08057e-15 0)
(3 6.40646e-16 0)
(3 3.1024e-16 0)
(3 1.14286e-15 0)
(3 1.23866e-15 0)
(3 1.56874e-15 0)
(3 2.52836e-16 0)
(1.6237 1.2822 0)
(1.5793 1.30782 0)
(2.4368 0.519333 0)
(3 -4.84547e-13 0)
(3 -5.56635e-11 0)
(3 3.46964e-13 0)
(3 -1.99786e-15 0)
(3 -1.99408e-16 0)
(3 -4.37901e-16 0)
(3 -2.85297e-16 0)
(3 3.78114e-16 0)
(3 6.65127e-16 0)
(3 5.20935e-16 0)
(3 8.09937e-16 0)
(3 7.30008e-16 0)
(3 -5.12042e-17 0)
(3 2.33662e-16 0)
(3 1.04286e-15 0)
(3 1.25377e-15 0)
(3 5.30071e-16 0)
(1.63999 1.26464 0)
(1.63378 1.24844 0)
(2.64998 0.292981 0)
(3 3.43627e-15 0)
(3 1.08839e-13 0)
(3 -3.59894e-15 0)
(3 -1.13747e-15 0)
(3 -1.4758e-15 0)
(3 -1.51158e-15 0)
(3 -2.40924e-16 0)
(3 2.72849e-16 0)
(3 6.61784e-16 0)
(3 1.60287e-16 0)
(3 -6.02305e-17 0)
(3 -2.5631e-16 0)
(3 -2.82426e-16 0)
(3 3.83779e-16 0)
(3 7.43053e-16 0)
(3 8.66465e-16 0)
(3 1.70231e-15 0)
(1.65605 1.24369 0)
(1.83068 1.10034 0)
(2.8762 0.0930045 0)
(3 -6.50898e-15 0)
(3 -2.48765e-15 0)
(3 -2.53733e-15 0)
(3 -2.5143e-15 0)
(3 -2.19849e-15 0)
(3 -2.23654e-15 0)
(3 -8.77154e-16 0)
(3 1.85067e-16 0)
(3 7.82669e-16 0)
(3 4.2024e-16 0)
(3 -4.36186e-18 0)
(3 -8.82843e-16 0)
(3 -3.74272e-16 0)
(3 6.73556e-16 0)
(3 7.12482e-16 0)
(3 8.3078e-16 0)
(3 1.50625e-15 0)
(1.66662 1.20359 0)
(1.89042 0.979189 0)
(2.9896 0.00799834 0)
(3 -1.46972e-15 0)
(3 -1.45915e-15 0)
(3 -2.08075e-15 0)
(3 -2.30339e-15 0)
(3 -2.63897e-15 0)
(3 -2.73538e-15 0)
(3 -2.39824e-15 0)
(3 -1.10482e-15 0)
(3 -3.25129e-16 0)
(3 -4.91884e-16 0)
(3 -1.15568e-15 0)
(3 -1.79221e-15 0)
(3 -2.18345e-15 0)
(3 -2.29972e-15 0)
(3 -1.50481e-15 0)
(3 -8.59377e-17 0)
(3 1.17423e-15 0)
(1.7196 1.16451 0)
(2.06815 0.816833 0)
(3 -1.48883e-15 0)
(3 -1.1225e-15 0)
(3 -1.17702e-15 0)
(3 -2.17772e-15 0)
(3 -3.09224e-15 0)
(3 -2.61378e-15 0)
(3 -2.50298e-15 0)
(3 -2.04688e-15 0)
(3 -1.20186e-15 0)
(3 -9.2275e-16 0)
(3 -2.19451e-16 0)
(3 -2.47124e-17 0)
(3 -3.69128e-16 0)
(3 -1.91549e-15 0)
(3 -2.7069e-15 0)
(3 -2.79494e-15 0)
(3 -2.49988e-15 0)
(3 -2.0215e-15 0)
(1.75682 1.09818 0)
(2.22288 0.656538 0)
(3 -1.05612e-15 0)
(3 -2.13311e-15 0)
(3 -2.99528e-15 0)
(3 -4.02143e-15 0)
(3 -3.88657e-15 0)
(3 -3.20798e-15 0)
(3 -2.56748e-15 0)
(3 -1.3598e-15 0)
(3 -6.40797e-16 0)
(3 2.27724e-16 0)
(3 1.9308e-16 0)
(3 3.8359e-16 0)
(3 9.13706e-16 0)
(3 7.38313e-16 0)
(3 -1.90173e-16 0)
(3 -1.20175e-15 0)
(3 -2.06242e-15 0)
(3 -2.63523e-15 0)
(1.82036 1.00935 0)
(2.43882 0.451532 0)
(3 -1.64083e-15 0)
(3 -1.87021e-15 0)
(3 -2.31217e-15 0)
(3 -2.51023e-15 0)
(3 -2.26252e-15 0)
(3 -1.07898e-15 0)
(3 -4.74693e-16 0)
(3 -3.20233e-16 0)
(3 -5.7676e-16 0)
(3 -1.37981e-16 0)
(3 4.82285e-16 0)
(3 7.15715e-16 0)
(3 1.1271e-15 0)
(3 1.23577e-15 0)
(3 1.17823e-15 0)
(3 5.34673e-16 0)
(3 3.15865e-17 0)
(3 -1.37978e-16 0)
(1.93138 0.878299 0)
(2.69897 0.216122 0)
(3 1.53308e-15 0)
(3 2.02267e-15 0)
(3 1.48681e-15 0)
(3 4.08388e-16 0)
(3 -1.02714e-15 0)
(3 -1.43415e-15 0)
(3 -8.75474e-16 0)
(3 -3.96642e-16 0)
(3 -1.44091e-16 0)
(3 -3.43916e-16 0)
(3 -6.34326e-16 0)
(3 -8.6285e-16 0)
(3 -8.44078e-16 0)
(3 -3.07812e-16 0)
(3 1.60448e-16 0)
(3 6.15689e-16 0)
(3 6.54068e-16 0)
(3 5.69523e-16 0)
(2.12965 0.670487 0)
(2.99014 0.000123582 0)
(3 1.68946e-15 0)
(3 1.89301e-15 0)
(3 1.83301e-15 0)
(3 1.48655e-15 0)
(3 1.08184e-15 0)
(3 4.32844e-16 0)
(3 -1.65347e-16 0)
(3 -2.55606e-16 0)
(3 -6.49466e-16 0)
(3 -8.14021e-16 0)
(3 -6.49616e-16 0)
(3 -5.67709e-16 0)
(3 -6.14605e-16 0)
(3 -6.79151e-16 0)
(3 -5.29673e-16 0)
(3 -1.6961e-16 0)
(3 4.77943e-19 0)
(3 -1.03519e-16 0)
(1.99973 0.368399 0)
(2.99993 -1.23217e-05 0)
(3 8.98086e-16 0)
(3 5.33239e-16 0)
(3 4.33151e-16 0)
(3 4.68838e-16 0)
(3 4.23514e-16 0)
(3 6.61065e-16 0)
(3 6.15112e-16 0)
(3 -2.46737e-17 0)
(3 -7.8545e-16 0)
(3 -8.9068e-16 0)
(3 -2.89791e-16 0)
(3 -6.117e-17 0)
(3 6.62056e-16 0)
(3 9.3782e-16 0)
(3 1.02006e-15 0)
(3 1.00799e-15 0)
(3 1.02687e-15 0)
(3 1.08686e-15 0)
(1.99973 -0.368399 0)
(2.99993 1.23217e-05 0)
(3 6.12273e-16 0)
(3 5.52994e-16 0)
(3 6.08776e-16 0)
(3 7.20615e-16 0)
(3 5.71481e-16 0)
(3 -4.14488e-16 0)
(3 -1.04924e-15 0)
(3 -1.47367e-15 0)
(3 -1.00718e-15 0)
(3 -5.79527e-16 0)
(3 -6.55651e-16 0)
(3 -6.15525e-16 0)
(3 -4.24722e-16 0)
(3 -1.58007e-16 0)
(3 -2.56108e-16 0)
(3 -6.53713e-16 0)
(3 -8.37818e-16 0)
(3 -9.51229e-16 0)
(2.12965 -0.670487 0)
(2.99014 -0.000123582 0)
(3 1.52026e-15 0)
(3 1.1017e-15 0)
(3 2.4481e-16 0)
(3 -4.00195e-16 0)
(3 -1.10573e-15 0)
(3 -2.20187e-15 0)
(3 -2.36908e-15 0)
(3 -2.02661e-15 0)
(3 -1.61151e-15 0)
(3 -6.07917e-16 0)
(3 -9.27747e-16 0)
(3 -1.00664e-15 0)
(3 -1.10123e-15 0)
(3 -1.38062e-15 0)
(3 -1.44802e-15 0)
(3 -1.24189e-15 0)
(3 -8.22366e-16 0)
(3 -5.67716e-16 0)
(1.93138 -0.878299 0)
(2.69897 -0.216122 0)
(3 3.58385e-15 0)
(3 2.79695e-15 0)
(3 3.07954e-16 0)
(3 -2.6492e-16 0)
(3 -4.91609e-16 0)
(3 -1.14595e-15 0)
(3 -1.9078e-15 0)
(3 -1.81654e-15 0)
(3 -1.43581e-15 0)
(3 -1.35245e-15 0)
(3 -1.44545e-15 0)
(3 -1.65827e-15 0)
(3 -1.6685e-15 0)
(3 -1.3703e-15 0)
(3 -1.02704e-15 0)
(3 -8.56864e-16 0)
(3 -5.92289e-16 0)
(3 5.99643e-17 0)
(1.82036 -1.00935 0)
(2.43882 -0.451532 0)
(3 3.5331e-15 0)
(3 3.00085e-15 0)
(3 2.31908e-15 0)
(3 -9.95103e-16 0)
(3 -2.46448e-15 0)
(3 -2.09047e-15 0)
(3 -6.54644e-16 0)
(3 3.39348e-16 0)
(3 1.07744e-15 0)
(3 1.06197e-15 0)
(3 1.22995e-16 0)
(3 -1.22836e-15 0)
(3 -1.69605e-15 0)
(3 -1.47182e-15 0)
(3 -9.61653e-16 0)
(3 -6.37085e-16 0)
(3 -2.98354e-16 0)
(3 4.44376e-17 0)
(1.75682 -1.09818 0)
(2.22288 -0.656538 0)
(3 3.74931e-15 0)
(3 2.65235e-15 0)
(3 1.25641e-15 0)
(3 7.35329e-16 0)
(3 7.35558e-17 0)
(3 5.97801e-16 0)
(3 1.31322e-15 0)
(3 1.55706e-15 0)
(3 1.8095e-15 0)
(3 7.41323e-16 0)
(3 -1.22806e-15 0)
(3 -9.42665e-16 0)
(3 -1.58811e-16 0)
(3 9.13698e-16 0)
(3 1.75024e-15 0)
(3 2.14629e-15 0)
(3 2.12318e-15 0)
(3 2.08221e-15 0)
(1.7196 -1.16451 0)
(2.06815 -0.816833 0)
(3 1.79989e-15 0)
(3 6.80962e-16 0)
(3 -1.00826e-17 0)
(3 2.43289e-17 0)
(3 9.39327e-16 0)
(3 1.51735e-15 0)
(3 1.73852e-15 0)
(3 4.54184e-16 0)
(3 3.05325e-17 0)
(3 -1.67127e-16 0)
(3 1.37323e-16 0)
(3 8.61797e-16 0)
(3 1.73504e-15 0)
(3 2.36207e-15 0)
(3 2.64274e-15 0)
(3 2.7318e-15 0)
(3 2.30491e-15 0)
(3 1.92768e-15 0)
(1.66662 -1.20359 0)
(1.89042 -0.979189 0)
(2.9896 -0.00799834 0)
(3 8.46876e-16 0)
(3 3.3662e-16 0)
(3 1.70435e-16 0)
(3 2.16491e-17 0)
(3 1.16426e-16 0)
(3 -7.67801e-16 0)
(3 -1.41324e-15 0)
(3 -7.80757e-16 0)
(3 1.17814e-16 0)
(3 6.34877e-16 0)
(3 1.59591e-15 0)
(3 2.70238e-15 0)
(3 2.56666e-15 0)
(3 2.25719e-15 0)
(3 1.43377e-15 0)
(3 5.76944e-16 0)
(3 2.72735e-16 0)
(1.65605 -1.24369 0)
(1.83068 -1.10034 0)
(2.8762 -0.0930045 0)
(3 5.66132e-15 0)
(3 9.85561e-16 0)
(3 -1.00799e-16 0)
(3 -2.72904e-16 0)
(3 -1.02495e-15 0)
(3 -2.58678e-15 0)
(3 -2.02368e-15 0)
(3 -1.82318e-16 0)
(3 6.89265e-16 0)
(3 1.20183e-15 0)
(3 1.57249e-15 0)
(3 1.16608e-15 0)
(3 2.97651e-16 0)
(3 1.6012e-16 0)
(3 -2.62558e-16 0)
(3 -1.31756e-15 0)
(3 -1.32309e-15 0)
(1.63999 -1.26464 0)
(1.63378 -1.24844 0)
(2.64998 -0.292981 0)
(3 -6.47256e-15 0)
(3 -1.08118e-13 0)
(3 1.57369e-15 0)
(3 -1.51307e-15 0)
(3 -1.78165e-15 0)
(3 -3.46372e-15 0)
(3 -1.22829e-15 0)
(3 8.49715e-16 0)
(3 1.00931e-15 0)
(3 1.53973e-15 0)
(3 1.09875e-15 0)
(3 -2.47409e-16 0)
(3 -9.78129e-16 0)
(3 -9.19365e-16 0)
(3 -4.87971e-16 0)
(3 -8.41494e-16 0)
(3 -1.6809e-16 0)
(1.6237 -1.2822 0)
(1.5793 -1.30782 0)
(2.4368 -0.519333 0)
(3 4.82602e-13 0)
(3 5.57042e-11 0)
(3 -3.4897e-13 0)
(3 -6.0509e-16 0)
(3 -3.30726e-15 0)
(3 -4.18944e-15 0)
(3 -1.6182e-15 0)
(3 -1.72971e-16 0)
(3 1.91174e-16 0)
(3 5.78487e-16 0)
(3 8.63585e-16 0)
(3 -1.13004e-16 0)
(3 -1.57334e-15 0)
(3 -1.71317e-15 0)
(3 -4.87249e-16 0)
(3 4.22958e-16 0)
(3 3.81383e-16 0)
(1.60578 -1.2968 0)
(1.47808 -1.39459 0)
(2.12085 -0.847284 0)
(3.01127 0.00914859 0)
(3 -6.2127e-08 0)
(3 2.1473e-11 0)
(3 -8.21085e-15 0)
(3 -3.03581e-15 0)
(3 -2.67556e-15 0)
(3 -1.6195e-15 0)
(3 -8.32479e-16 0)
(3 -5.67876e-16 0)
(3 -2.70493e-16 0)
(3 1.90788e-16 0)
(3 -3.97373e-16 0)
(3 -1.6279e-15 0)
(3 -1.34538e-15 0)
(3 -8.84495e-16 0)
(3 3.39276e-17 0)
(3 4.73684e-16 0)
(1.59029 -1.30562 0)
(1.47049 -1.3444 0)
(1.97514 -1.03469 0)
(2.87926 -0.119599 0)
(3 5.02261e-08 0)
(3 -2.02066e-11 0)
(3 -3.37986e-15 0)
(3 -3.33833e-15 0)
(3 -2.0804e-15 0)
(3 -2.56133e-15 0)
(3 -1.46354e-15 0)
(3 -1.19241e-15 0)
(3 -9.14347e-16 0)
(3 -1.25787e-15 0)
(3 -1.17519e-16 0)
(3 -8.56104e-16 0)
(3 -1.01497e-15 0)
(3 -3.31099e-16 0)
(3 9.71029e-17 0)
(3 1.13545e-15 0)
(1.5888 -1.32859 0)
(1.50385 -1.3269 0)
(1.75757 -1.18608 0)
(2.41285 -0.547711 0)
(3 9.73306e-07 0)
(3 -1.75622e-12 0)
(3 -1.32483e-14 0)
(3 3.77191e-15 0)
(3 -8.11368e-15 0)
(3 -2.68914e-15 0)
(3 -1.36767e-15 0)
(3 -3.89673e-16 0)
(3 2.34492e-17 0)
(3 -1.44916e-15 0)
(3 -4.93428e-16 0)
(3 -1.54102e-19 0)
(3 2.71174e-16 0)
(3 6.0305e-16 0)
(3 1.07908e-15 0)
(3 1.37638e-15 0)
(1.584 -1.29506 0)
(1.54767 -1.28667 0)
(1.6518 -1.24477 0)
(2.08899 -0.867127 0)
(3.01187 0.00779792 0)
(3 -2.02556e-14 0)
(3 8.88943e-14 0)
(3 -1.72965e-12 0)
(3 1.59726e-12 0)
(3 -5.9487e-14 0)
(3 -7.0425e-17 0)
(3 8.27043e-16 0)
(3 2.14814e-15 0)
(3 4.02154e-16 0)
(3 8.89097e-16 0)
(3 5.96558e-16 0)
(3 8.49825e-16 0)
(3 4.89844e-16 0)
(3 8.7196e-16 0)
(3 1.53879e-15 0)
(1.58425 -1.28284 0)
(1.58439 -1.27797 0)
(1.64544 -1.25196 0)
(1.86608 -1.09341 0)
(2.74389 -0.221939 0)
(3 3.76275e-10 0)
(3 -1.06811e-08 0)
(3 1.00145e-08 0)
(3 -5.59005e-10 0)
(3 3.16593e-12 0)
(3 5.09167e-14 0)
(3 -1.50212e-16 0)
(3 1.90233e-15 0)
(3 1.72023e-15 0)
(3 2.53569e-15 0)
(3 6.85625e-16 0)
(3 1.98736e-16 0)
(3 2.01643e-16 0)
(3 1.14593e-15 0)
(3 1.9504e-15 0)
(1.58554 -1.26753 0)
(1.60516 -1.26972 0)
(1.63748 -1.25827 0)
(1.71698 -1.22047 0)
(2.34393 -0.641895 0)
(3.02104 0.0189508 0)
(2.99973 -0.000140198 0)
(3 4.34876e-06 0)
(3 -8.34693e-08 0)
(3 1.13573e-09 0)
(3 -1.14464e-11 0)
(3 1.55896e-13 0)
(3 -1.37027e-15 0)
(3 2.55215e-15 0)
(3 2.36264e-15 0)
(3 1.50365e-15 0)
(3 1.28299e-16 0)
(3 1.16165e-16 0)
(3 6.9919e-16 0)
(3 2.23414e-15 0)
(1.58586 -1.25311 0)
(1.60753 -1.25829 0)
(1.6298 -1.26094 0)
(1.59257 -1.31655 0)
(1.84403 -1.09721 0)
(2.73382 -0.232593 0)
(3.00468 0.000938655 0)
(2.99992 -7.11814e-05 0)
(3 7.5758e-07 0)
(3 -1.12832e-09 0)
(3 -6.53254e-14 0)
(3 7.53838e-14 0)
(3 1.05373e-15 0)
(3 2.35883e-15 0)
(3 2.09264e-15 0)
(3 2.41846e-15 0)
(3 2.63175e-15 0)
(3 8.79685e-17 0)
(3 3.39332e-16 0)
(3 1.37304e-15 0)
(1.58563 -1.25184 0)
(1.60345 -1.25621 0)
(1.60862 -1.26158 0)
(1.58248 -1.28664 0)
(1.75429 -1.18541 0)
(2.2548 -0.792493 0)
(3.00017 0.00507464 0)
(3.00019 0.000495129 0)
(3 -4.22355e-07 0)
(3 -7.22151e-10 0)
(3 -1.78407e-12 0)
(3 -3.48141e-13 0)
(3 1.87077e-15 0)
(3 7.34903e-15 0)
(3 -4.1031e-16 0)
(3 2.68673e-15 0)
(3 3.27905e-15 0)
(3 9.53708e-16 0)
(3 3.72708e-16 0)
(3 4.08599e-16 0)
(1.58053 -1.24626 0)
(1.59269 -1.2591 0)
(1.60027 -1.27139 0)
(1.60385 -1.2709 0)
(1.66857 -1.24405 0)
(1.70319 -1.23636 0)
(2.27408 -0.724812 0)
(2.99779 -0.0140753 0)
(3 -1.02394e-07 0)
(3 -1.39167e-09 0)
(3 1.40693e-10 0)
(3 -2.52529e-13 0)
(3 9.11671e-13 0)
(3 -1.17302e-12 0)
(3 3.21859e-13 0)
(3 5.91532e-15 0)
(3 1.79259e-15 0)
(3 4.77951e-16 0)
(3 1.33396e-15 0)
(3 -1.93891e-16 0)
(1.58021 -1.25813 0)
(1.58564 -1.26419 0)
(1.59307 -1.27052 0)
(1.60423 -1.26573 0)
(1.61349 -1.25295 0)
(1.59671 -1.26955 0)
(1.89486 -1.15728 0)
(2.94475 -0.372736 0)
(3.34255 0.573089 0)
(3 1.65745e-09 0)
(3 -8.69378e-09 0)
(3 7.26227e-10 0)
(3 1.89746e-10 0)
(3 4.77264e-10 0)
(3 1.2572e-11 0)
(3 -2.26506e-11 0)
(3 6.4388e-11 0)
(3 -1.02192e-12 0)
(3 -2.14259e-12 0)
(3 -5.80107e-14 0)
(1.16279 -0.775271 0)
(1.83714 -1.14317 0)
(1.83455 -1.1581 0)
(1.74622 -1.1895 0)
(1.72265 -1.19866 0)
(1.66828 -1.24516 0)
(1.65846 -1.21715 0)
(1.72488 -1.16896 0)
(1.75602 -1.23101 0)
(1.78745 -1.13775 0)
(2.28779 -0.72802 0)
(2.86877 -0.202475 0)
(3.09087 0.0258855 0)
(3.01742 0.0110995 0)
(3.00352 0.00487489 0)
(3.00138 0.00266258 0)
(3.0001 0.000585643 0)
(3 1.80099e-05 0)
(3 -7.84178e-06 0)
(3 -2.57365e-06 0)
(1.01986 -0.0179205 0)
(1.92237 -0.809102 0)
(2.12717 -0.832822 0)
(1.98993 -1.00123 0)
(1.96121 -1.00893 0)
(1.87097 -1.0945 0)
(1.79521 -1.13727 0)
(1.76404 -1.14752 0)
(1.7628 -1.16406 0)
(1.74092 -1.20691 0)
(1.72168 -1.19614 0)
(1.8873 -1.06162 0)
(2.12608 -0.877278 0)
(2.55223 -0.552726 0)
(3.01784 -0.112142 0)
(3.06296 0.0257705 0)
(3.00448 0.00579177 0)
(3.0014 0.00286288 0)
(3.00031 0.00149557 0)
(2.99998 0.000270627 0)
(1.10811 0.054607 0)
(1.84911 0.191876 0)
(2.22814 -0.168558 0)
(2.23612 -0.466199 0)
(2.21781 -0.607487 0)
(2.13024 -0.795379 0)
(2.05373 -0.898711 0)
(1.96522 -0.986078 0)
(1.89851 -1.04373 0)
(1.85732 -1.1342 0)
(1.79767 -1.16393 0)
(1.80079 -1.15724 0)
(1.82967 -1.13545 0)
(1.88297 -1.08913 0)
(2.08581 -0.943124 0)
(2.32379 -0.804771 0)
(2.76259 -0.433771 0)
(3.06612 -0.0521856 0)
(3.02719 0.0114131 0)
(2.99978 0.00164832 0)
(1.30707 0.485963 0)
(1.94288 0.730824 0)
(2.22825 0.459493 0)
(2.34913 0.252686 0)
(2.34744 -0.179415 0)
(2.3823 -0.304869 0)
(2.2534 -0.610452 0)
(2.21311 -0.680202 0)
(2.13586 -0.783083 0)
(2.07377 -0.927311 0)
(1.98411 -1.02754 0)
(1.92992 -1.0724 0)
(1.89842 -1.09445 0)
(1.8885 -1.09279 0)
(1.91132 -1.0761 0)
(1.9423 -1.06726 0)
(2.04146 -1.02552 0)
(2.26076 -0.912129 0)
(2.57476 -0.690629 0)
(2.95691 -0.258263 0)
(1.02805 1.03024 0)
(1.30713 1.33042 0)
(2.25678 0.213857 0)
(2.49272 0.469638 0)
(2.36707 0.597806 0)
(2.42117 0.294679 0)
(2.44271 0.0297734 0)
(2.38216 -0.273706 0)
(2.3301 -0.427122 0)
(2.30748 -0.575758 0)
(2.22849 -0.734491 0)
(2.15198 -0.850723 0)
(2.08932 -0.926534 0)
(2.03863 -0.969873 0)
(2.02237 -0.983851 0)
(1.98283 -1.03048 0)
(2.02534 -1.027 0)
(2.0501 -1.01957 0)
(2.10475 -1.01103 0)
(2.26715 -0.955235 0)
(0.86474 1.17942 0)
(1.44203 1.47195 0)
(1.81685 1.07814 0)
(2.54539 0.529177 0)
(2.55659 0.922405 0)
(2.53437 0.470984 0)
(2.53686 0.462675 0)
(2.50262 0.138743 0)
(2.47334 0.0202114 0)
(2.4721 -0.19176 0)
(2.42018 -0.400615 0)
(2.36422 -0.551349 0)
(2.31155 -0.661953 0)
(2.24728 -0.756099 0)
(2.20769 -0.809157 0)
(2.14434 -0.88333 0)
(2.11765 -0.909902 0)
(2.11491 -0.934824 0)
(2.1134 -0.981189 0)
(2.17306 -0.952779 0)
(1.01735 1.3312 0)
(1.46079 1.5427 0)
(1.78583 1.39693 0)
(1.91799 1.17431 0)
(2.21997 1.29944 0)
(2.55619 0.829312 0)
(2.65862 0.43919 0)
(2.65994 0.42499 0)
(2.60285 0.0877564 0)
(2.59527 0.0237888 0)
(2.56626 -0.140078 0)
(2.52366 -0.309021 0)
(2.49645 -0.424832 0)
(2.41975 -0.575877 0)
(2.38088 -0.622652 0)
(2.3259 -0.677744 0)
(2.28653 -0.69894 0)
(2.27275 -0.716569 0)
(2.24525 -0.772312 0)
(2.23722 -0.853281 0)
(1.22891 1.56395 0)
(1.51099 1.79579 0)
(1.78027 1.74244 0)
(1.90637 1.3164 0)
(2.08923 1.40965 0)
(2.34026 1.4533 0)
(2.52318 0.810326 0)
(2.63754 0.6637 0)
(2.65679 0.360419 0)
(2.65918 0.303102 0)
(2.64277 0.104872 0)
(2.62943 -0.0499797 0)
(2.61131 -0.167619 0)
(2.56064 -0.298091 0)
(2.53829 -0.313501 0)
(2.48728 -0.386807 0)
(2.4646 -0.398941 0)
(2.43699 -0.463645 0)
(2.35483 -0.621773 0)
(2.36516 -0.620211 0)
(1.45867 1.76112 0)
(1.59241 2.03424 0)
(1.78383 1.94941 0)
(1.79498 1.66645 0)
(1.92549 1.70186 0)
(2.14768 1.65697 0)
(2.39132 1.37424 0)
(2.46555 1.11999 0)
(2.50529 1.07561 0)
(2.5562 0.697308 0)
(2.60676 0.540913 0)
(2.64837 0.383416 0)
(2.65335 0.216836 0)
(2.63823 0.0854576 0)
(2.63847 0.00660581 0)
(2.60941 -0.120786 0)
(2.58104 -0.241596 0)
(2.54393 -0.338953 0)
(2.4826 -0.442332 0)
(2.50626 -0.37744 0)
(1.56739 1.88447 0)
(1.65078 2.17384 0)
(1.82669 2.06847 0)
(1.78502 2.0129 0)
(1.87626 1.84541 0)
(2.12632 1.67735 0)
(2.23678 1.61656 0)
(2.37816 1.28215 0)
(2.40804 1.27081 0)
(2.49177 1.05955 0)
(2.552 0.871793 0)
(2.62774 0.718119 0)
(2.67565 0.519314 0)
(2.69189 0.314985 0)
(2.71708 0.16844 0)
(2.70009 0.00105363 0)
(2.66882 -0.145143 0)
(2.638 -0.137272 0)
(2.60139 -0.167596 0)
(2.6535 -0.0423671 0)
(1.53825 1.86452 0)
(1.78382 2.21324 0)
(1.88957 2.216 0)
(1.8863 2.11374 0)
(1.99352 2.00878 0)
(2.2569 1.71274 0)
(2.29561 1.73949 0)
(2.43962 1.45797 0)
(2.546 1.31079 0)
(2.59873 1.26348 0)
(2.64813 0.960467 0)
(2.70767 0.810443 0)
(2.75897 0.630832 0)
(2.7695 0.412469 0)
(2.77988 0.283719 0)
(2.76799 0.200565 0)
(2.74045 0.145309 0)
(2.72386 0.226906 0)
(2.70437 0.193727 0)
(2.6937 0.0524989 0)
(1.43114 1.79604 0)
(1.83999 2.23557 0)
(2.04034 2.37387 0)
(2.1553 2.29221 0)
(2.2952 2.24998 0)
(2.49959 1.80158 0)
(2.50043 1.84432 0)
(2.6918 1.64117 0)
(2.8061 1.31505 0)
(2.81411 1.31041 0)
(2.80485 1.05348 0)
(2.79207 0.906257 0)
(2.80344 0.818656 0)
(2.8064 0.670204 0)
(2.80032 0.61868 0)
(2.7815 0.559644 0)
(2.75511 0.53258 0)
(2.79837 0.536283 0)
(2.76875 0.382778 0)
(2.76225 0.153294 0)
(1.27744 1.67862 0)
(1.76833 2.20486 0)
(2.09067 2.39688 0)
(2.32271 2.3732 0)
(2.37734 2.28917 0)
(2.45736 1.85337 0)
(2.51118 1.83145 0)
(2.59999 1.78169 0)
(2.64923 1.57816 0)
(2.66357 1.57873 0)
(2.65854 1.46305 0)
(2.67993 1.28722 0)
(2.69868 1.16872 0)
(2.71512 1.03751 0)
(2.73031 0.997619 0)
(2.7443 0.89334 0)
(2.77587 0.810733 0)
(2.87046 0.696516 0)
(2.86158 0.453585 0)
(2.85927 0.275142 0)
(1.22282 1.58381 0)
(1.63019 2.16489 0)
(2.01823 2.39034 0)
(2.31488 2.37491 0)
(2.31998 2.29943 0)
(2.26748 1.99462 0)
(2.1857 1.99791 0)
(2.28798 2.0042 0)
(2.39974 1.92888 0)
(2.40729 1.79891 0)
(2.43099 1.6328 0)
(2.4928 1.54381 0)
(2.563 1.38332 0)
(2.6159 1.28799 0)