/*--------------------------------*- C++ -*----------------------------------*\
  =========                 |
  \\      /  F ield         | OpenFOAM: The Open Source CFD Toolbox
   \\    /   O peration     | Website:  https://openfoam.org
    \\  /    A nd           | Version:  7
     \\/     M anipulation  |
\*---------------------------------------------------------------------------*/
FoamFile
{
    version     2.0;
    format      ascii;
    class       volScalarField;
    location    "0.3";
    object      p;
}
// * * * * * * * * * * * * * * * * * * * * * * * * * * * * * * * * * * * * * //

dimensions      [1 -1 -2 0 0 0 0];

internalField   nonuniform List<scalar> 
3700
(
0.0961483
0.14994
0.168773
0.206337
0.241376
0.282077
0.319347
0.373564
0.41696
0.454216
0.483249
0.506649
0.530343
0.561301
0.601728
0.629016
0.626067
0.608756
0.578074
0.552998
0.0664657
0.0967113
0.111364
0.135094
0.153586
0.172377
0.171686
0.165194
0.15596
0.155612
0.154402
0.155504
0.161535
0.174752
0.199169
0.235908
0.287299
0.320286
0.332829
0.328523
0.0681063
0.0648641
0.067533
0.0724914
0.0671585
0.0614145
0.0631835
0.0600227
0.0619616
0.0666179
0.0753929
0.0863207
0.0991711
0.116807
0.140931
0.171902
0.20935
0.258264
0.292895
0.296228
0.0709638
0.060983
0.0577657
0.056208
0.0529363
0.0524776
0.0530398
0.04937
0.0534644
0.0594202
0.0693675
0.0832112
0.0979067
0.115608
0.140404
0.177707
0.223612
0.278801
0.338404
0.406463
0.0737939
0.0631977
0.0579593
0.0531338
0.0478001
0.0443988
0.0429296
0.0419452
0.0474222
0.0543569
0.0640246
0.0781463
0.0966452
0.118594
0.144122
0.177682
0.225802
0.287544
0.353924
0.451746
0.0653185
0.0590386
0.0540776
0.0451727
0.035063
0.0333636
0.0374002
0.0403085
0.0466191
0.0532881
0.0619706
0.0747102
0.0949598
0.12326
0.155227
0.190407
0.237588
0.302497
0.37793
0.498958
0.0474822
0.0476295
0.0426571
0.0340954
0.0284815
0.032384
0.0403361
0.0487142
0.0576344
0.0663902
0.0765582
0.0887924
0.106969
0.133529
0.169995
0.215221
0.268276
0.341318
0.427967
0.584063
0.0338394
0.0383811
0.0356783
0.0291477
0.0294223
0.0371866
0.0493094
0.0651265
0.0853776
0.102234
0.118911
0.136488
0.157403
0.186737
0.230749
0.289371
0.358618
0.449091
0.554538
0.756854
0.02741
0.0314862
0.0309712
0.0281235
0.0296254
0.0389791
0.0517623
0.0713641
0.0994618
0.126195
0.156142
0.188364
0.224204
0.268186
0.326493
0.403888
0.50465
0.637452
0.791801
1.01595
0.0229663
0.0258106
0.0273833
0.0288108
0.0311616
0.0396787
0.0516097
0.0695754
0.0996824
0.136959
0.182283
0.229653
0.281493
0.340774
0.41234
0.510633
0.657784
0.86455
1.07639
1.23843
0.017896
0.0212952
0.0252295
0.0354086
0.0394096
0.0458274
0.0612424
0.0753361
0.09972
0.152358
0.222577
0.293142
0.366229
0.450741
0.568746
0.743116
0.980699
1.23622
1.39327
1.38762
0.0147658
0.0194646
0.0278825
0.0465207
0.0547473
0.0715165
0.0951546
0.130304
0.182357
0.26645
0.368839
0.485118
0.614126
0.767591
0.960933
1.21073
1.48015
1.61851
1.60753
1.52535
0.0158123
0.020729
0.0360051
0.0647011
0.0844086
0.12202
0.167852
0.241765
0.331571
0.442651
0.5802
0.752383
0.94939
1.18222
1.47135
1.77239
1.89434
1.85866
1.73778
1.46129
0.0214506
0.0279368
0.0452297
0.0812666
0.108647
0.170962
0.254762
0.368549
0.488881
0.632132
0.823533
1.06696
1.38144
1.75787
2.11486
2.20958
2.13989
1.96045
1.57746
1.15549
0.0249151
0.0316312
0.0448297
0.0833539
0.120075
0.224705
0.391808
0.584964
0.803788
1.05094
1.37215
1.79247
2.26156
2.60849
2.59525
2.46982
2.16797
1.60098
1.14148
1.00867
0.0229305
0.028965
0.032516
0.0616041
0.178549
0.438344
0.826046
1.24214
1.64183
2.04446
2.47149
2.9375
3.08862
3.00927
2.7971
2.2619
1.51325
1.08512
1.00317
0.999994
0.0181068
0.0251429
0.0762765
0.231932
0.615197
1.21119
1.85115
2.44002
2.8609
3.25542
3.56519
3.55143
3.4079
2.99311
2.11706
1.31418
1.0282
1.00018
0.999987
0.999996
0.0185352
0.0783313
0.409389
1.05635
1.76571
2.72222
3.42666
3.83324
4.04932
4.03031
3.96161
3.6213
2.72664
1.64632
1.09511
1.00177
0.999885
0.999958
0.999995
1
0.272461
0.797323
1.801
2.81446
3.70989
4.85294
4.88633
4.68723
4.38571
3.9815
3.05907
1.86276
1.15116
1.00254
0.999448
0.99978
0.999965
0.999999
1
1
2.13754
3.31414
4.44339
5.10555
5.76415
5.96772
5.15441
3.77108
2.71418
1.74979
1.13874
0.999857
0.998723
0.999406
0.99991
0.999999
1
1
1
1
6.30713
6.17388
6.20949
6.2987
6.39714
5.04697
0.999706
0.999736
1
1
1
1
1
1
1
1
1
1
1
1
6.34475
6.34098
6.34026
6.25735
5.39366
2.72914
1.12808
0.999999
1
1
1
1
1
1
1
1
1
1
1
1
6.37063
6.47346
6.44448
6.29605
4.37904
1.18292
0.997243
1
1
1
1
1
1
1
1
1
1
1
1
1
6.22923
6.48604
6.45156
5.67524
2.62897
0.978429
1.00032
1
1
1
1
1
1
1
1
1
1
1
1
1
6.13896
6.45029
6.43528
5.09141
1.51834
1
1
1
1
1
1
1
1
1
1
1
1
1
1
1
6.11888
6.43669
6.31303
3.92135
1.12505
1
1
1
1
1
1
1
1
1
1
1
1
1
1
1
6.18298
6.4585
6.25539
2.757
0.984401
1
1
1
1
1
1
1
1
1
1
1
1
1
1
1
6.49348
6.46914
5.66462
1.76126
1
1
1
1
1
1
1
1
1
1
1
1
1
1
1
1
6.94517
6.58257
4.61928
1.09342
1
1
1
1
1
1
1
1
1
1
1
1
1
1
1
1
7.20265
6.29149
3.36586
0.98904
1
1
1
1
1
1
1
1
1
1
1
1
1
1
1
1
7.40712
5.95927
2.26487
1
1
1
1
1
1
1
1
1
1
1
1
1
1
1
1
1
7.50089
5.34965
1.58414
1
1
1
1
1
1
1
1
1
1
1
1
1
1
1
1
1
7.55172
4.71934
1.14926
1
1
1
1
1
1
1
1
1
1
1
1
1
1
1
1
1
7.38118
3.98273
1.00165
1
1
1
1
1
1
1
1
1
1
1
1
1
1
1
1
1
7.15449
3.23493
1
1
1
1
1
1
1
1
1
1
1
1
1
1
1
1
1
1
6.973
2.52228
1
1
1
1
1
1
1
1
1
1
1
1
1
1
1
1
1
1
6.64387
1.91471
1
1
1
1
1
1
1
1
1
1
1
1
1
1
1
1
1
1
6.35457
1.3554
1
1
1
1
1
1
1
1
1
1
1
1
1
1
1
1
1
1
5.65742
1.0047
1
1
1
1
1
1
1
1
1
1
1
1
1
1
1
1
1
1
4.67514
1.00005
1
1
1
1
1
1
1
1
1
1
1
1
1
1
1
1
1
1
4.67514
1.00005
1
1
1
1
1
1
1
1
1
1
1
1
1
1
1
1
1
1
5.65742
1.0047
1
1
1
1
1
1
1
1
1
1
1
1
1
1
1
1
1
1
6.35457
1.3554
1
1
1
1
1
1
1
1
1
1
1
1
1
1
1
1
1
1
6.64387
1.91471
1
1
1
1
1
1
1
1
1
1
1
1
1
1
1
1
1
1
6.973
2.52228
1
1
1
1
1
1
1
1
1
1
1
1
1
1
1
1
1
1
7.15449
3.23493
1
1
1
1
1
1
1
1
1
1
1
1
1
1
1
1
1
1
7.38118
3.98273
1.00165
1
1
1
1
1
1
1
1
1
1
1
1
1
1
1
1
1
7.55172
4.71934
1.14926
1
1
1
1
1
1
1
1
1
1
1
1
1
1
1
1
1
7.50089
5.34965
1.58414
1
1
1
1
1
1
1
1
1
1
1
1
1
1
1
1
1
7.40712
5.95927
2.26487
1
1
1
1
1
1
1
1
1
1
1
1
1
1
1
1
1
7.20265
6.29149
3.36586
0.98904
1
1
1
1
1
1
1
1
1
1
1
1
1
1
1
1
6.94517
6.58257
4.61928
1.09342
1
1
1
1
1
1
1
1
1
1
1
1
1
1
1
1
6.49348
6.46914
5.66462
1.76126
1
1
1
1
1
1
1
1
1
1
1
1
1
1
1
1
6.18298
6.4585
6.25539
2.757
0.984401
1
1
1
1
1
1
1
1
1
1
1
1
1
1
1
6.11888
6.43669
6.31303
3.92135
1.12505
1
1
1
1
1
1
1
1
1
1
1
1
1
1
1
6.13896
6.45029
6.43528
5.09141
1.51834
1
1
1
1
1
1
1
1
1
1
1
1
1
1
1
6.22923
6.48604
6.45156
5.67524
2.62897
0.978429
1.00032
1
1
1
1
1
1
1
1
1
1
1
1
1
6.37063
6.47346
6.44448
6.29605
4.37904
1.18292
0.997243
1
1
1
1
1
1
1
1
1
1
1
1
1
6.34475
6.34098
6.34026
6.25735
5.39366
2.72914
1.12808
0.999999
1
1
1
1
1
1
1
1
1
1
1
1
6.30713
6.17388
6.20949
6.2987
6.39714
5.04697
0.999706
0.999736
1
1
1
1
1
1
1
1
1
1
1
1
2.13754
3.31414
4.44339
5.10555
5.76415
5.96772
5.15441
3.77108
2.71418
1.74979
1.13874
0.999857
0.998723
0.999406
0.99991
0.999999
1
1
1
1
0.272461
0.797323
1.801
2.81446
3.70989
4.85294
4.88633
4.68723
4.38571
3.9815
3.05907
1.86276
1.15116
1.00254
0.999448
0.99978
0.999965
0.999999
1
1
0.0185352
0.0783313
0.409389
1.05635
1.76571
2.72222
3.42666
3.83324
4.04932
4.03031
3.96161
3.6213
2.72664
1.64632
1.09511
1.00177
0.999885
0.999958
0.999995
1
0.0181068
0.0251429
0.0762765
0.231932
0.615197
1.21119
1.85115
2.44002
2.8609
3.25542
3.56519
3.55143
3.4079
2.99311
2.11706
1.31418
1.0282
1.00018
0.999987
0.999996
0.0229305
0.028965
0.032516
0.0616041
0.178549
0.438344
0.826046
1.24214
1.64183
2.04446
2.47149
2.9375
3.08862
3.00927
2.7971
2.2619
1.51325
1.08512
1.00317
0.999994
0.0249151
0.0316312
0.0448297
0.0833539
0.120075
0.224705
0.391808
0.584964
0.803788
1.05094
1.37215
1.79247
2.26156
2.60849
2.59525
2.46982
2.16797
1.60098
1.14148
1.00867
0.0214506
0.0279368
0.0452297
0.0812666
0.108647
0.170962
0.254762
0.368549
0.488881
0.632133
0.823533
1.06696
1.38144
1.75787
2.11487
2.20958
2.13989
1.96045
1.57746
1.15549
0.0158123
0.020729
0.0360051
0.0647011
0.0844086
0.12202
0.167852
0.241765
0.331571
0.442651
0.580201
0.752385
0.949392
1.18222
1.47135
1.77239
1.89435
1.85866
1.73778
1.46129
0.0147658
0.0194646
0.0278825
0.0465207
0.0547473
0.0715165
0.0951546
0.130304
0.182357
0.26645
0.368839
0.485116
0.614123
0.767596
0.960943
1.21073
1.48014
1.6185
1.60753
1.52535
0.017896
0.0212952
0.0252295
0.0354086
0.0394096
0.0458274
0.0612424
0.075336
0.09972
0.152358
0.222576
0.293144
0.366234
0.450737
0.568729
0.743125
0.980729
1.23624
1.39327
1.38762
0.0229663
0.0258106
0.0273833
0.0288107
0.0311616
0.0396788
0.0516097
0.0695755
0.0996825
0.136958
0.182284
0.229652
0.28149
0.340775
0.412356
0.510624
0.657747
0.864493
1.07636
1.23843
0.02741
0.0314862
0.0309712
0.0281235
0.0296254
0.0389791
0.0517623
0.0713641
0.0994619
0.126195
0.156142
0.188363
0.224206
0.268187
0.326486
0.403888
0.504662
0.637506
0.791871
1.01597
0.0338394
0.0383811
0.0356783
0.0291477
0.0294223
0.0371866
0.0493093
0.0651265
0.0853776
0.102234
0.118911
0.136489
0.1574
0.186736
0.230751
0.289381
0.358637
0.449065
0.554416
0.756772
0.0474822
0.0476295
0.0426571
0.0340954
0.0284815
0.032384
0.0403361
0.0487142
0.0576344
0.0663901
0.0765583
0.088791
0.106973
0.133527
0.17
0.215222
0.268254
0.341284
0.428071
0.584185
0.0653185
0.0590386
0.0540776
0.0451727
0.035063
0.0333636
0.0374002
0.0403085
0.0466191
0.0532882
0.0619707
0.0747106
0.0949576
0.123265
0.15522
0.190401
0.237587
0.302538
0.3779
0.49884
0.0737939
0.0631977
0.0579593
0.0531338
0.0478001
0.0443986
0.0429298
0.0419452
0.0474222
0.054357
0.0640246
0.0781468
0.096645
0.118594
0.144122
0.177684
0.225789
0.287569
0.353929
0.45181
0.0709638
0.0609829
0.0577658
0.0562081
0.0529362
0.052477
0.0530402
0.0493701
0.0534646
0.05942
0.0693681
0.083211
0.0979072
0.115607
0.140402
0.177707
0.223616
0.278788
0.338397
0.406472
0.068108
0.0648659
0.0675333
0.0724802
0.0671713
0.0614185
0.0631853
0.060023
0.0619583
0.0666159
0.0753949
0.0863218
0.0991703
0.116808
0.140932
0.171905
0.209349
0.258218
0.292984
0.2962
0.0664658
0.0967082
0.11137
0.135074
0.153676
0.172262
0.171588
0.165455
0.155879
0.155375
0.154486
0.155657
0.161559
0.174745
0.199173
0.235884
0.287348
0.320169
0.332811
0.328556
0.0961418
0.149933
0.168776
0.206292
0.241538
0.281978
0.319221
0.37375
0.417
0.454061
0.483237
0.506812
0.530349
0.561301
0.601718
0.628983
0.626047
0.608666
0.578077
0.553071
0.549713
0.625266
0.783277
0.936077
0.993373
0.999831
0.999999
1
1
1
1
1
1
1
1
1
1
1
1
1
0.399752
0.550144
0.759564
0.935861
0.994333
0.999879
0.999999
1
1
1
1
1
1
1
1
1
1
1
1
1
0.317671
0.520302
0.782637
0.950608
0.996361
0.999937
1
1
1
1
1
1
1
1
1
1
1
1
1
1
0.419742
0.560166
0.814379
0.968249
0.998448
0.999981
1
1
1
1
1
1
1
1
1
1
1
1
1
1
0.518217
0.661069
0.873249
0.984499
0.99957
0.999997
1
1
1
1
1
1
1
1
1
1
1
1
1
1
0.611594
0.761498
0.922961
0.992857
0.999876
0.999999
1
1
1
1
1
1
1
1
1
1
1
1
1
1
0.716057
0.84783
0.955122
0.996186
0.999941
1
1
1
1
1
1
1
1
1
1
1
1
1
1
1
0.846286
0.916136
0.971203
0.996769
0.999934
1
1
1
1
1
1
1
1
1
1
1
1
1
1
1
0.995252
0.975839
0.986072
0.99732
0.999893
0.999999
1
1
1
1
1
1
1
1
1
1
1
1
1
1
1.15001
1.02734
0.998498
0.998977
0.999837
0.999996
1
1
1
1
1
1
1
1
1
1
1
1
1
1
1.10372
1.0114
0.999956
0.999872
0.999968
0.999999
1
1
1
1
1
1
1
1
1
1
1
1
1
1
1.01343
1.00074
0.999995
0.999994
0.999999
1
1
1
1
1
1
1
1
1
1
1
1
1
1
1
1.00034
1
0.999998
0.999999
1
1
1
1
1
1
1
1
1
1
1
1
1
1
1
1
1
0.999999
1
1
1
1
1
1
1
1
1
1
1
1
1
1
1
1
1
1
1
1
1
1
1
1
1
1
1
1
1
1
1
1
1
1
1
1
1
1
1
1
1
1
1
1
1
1
1
1
1
1
1
1
1
1
1
1
1
1
1
1
1
1
1
1
1
1
1
1
1
1
1
1
1
1
1
1
1
1
1
1
1
1
1
1
1
1
1
1
1
1
1
1
1
1
1
1
1
1
1
1
1
1
1
1
1
1
1
1
1
1
1
1
1
1
1
1
1
1
1
1
1
1
1
1
1
1
1
1
1
1
1
1
1
1
1
1
1
1
1
1
1
1
1
1
1
1
1
1
1
1
1
1
1
1
1
1
1
1
1
1
1
1
1
1
1
1
1
1
1
1
1
1
1
1
1
1
1
1
1
1
1
1
1
1
1
1
1
1
1
1
1
1
1
1
1
1
1
1
1
1
1
1
1
1
1
1
1
1
1
1
1
1
1
1
1
1
1
1
1
1
1
1
1
1
1
1
1
1
1
1
1
1
1
1
1
1
1
1
1.24407
1.04586
1.00214
1.00003
1
1
1
1
1
1
1
1
1
1
1
1.1568
1.00626
1.00003
1
1
1
1
1
1
1
1
1
1
1
1
1.06363
1.00093
1
1
1
1
1
1
1
1
1
1
1
1
1
1.00974
1.00005
1
1
1
1
1
1
1
1
1
1
1
1
1
1.00028
1
1
1
1
1
1
1
1
1
1
1
1
1
1
0.999999
1
1
1
1
1
1
1
1
1
1
1
1
1
1
1
1
1
1
1
1
1
1
1
1
1
1
1
1
1
1
1
1
1
1
1
1
1
1
1
1
1
1
1
1
1
1
1
1
1
1
1
1
1
1
1
1
1
1
1
1
1
1
1
1
1
1
1
1
1
1
1
1
1
1
1
1
1
1
1
1
1
1
1
1
1
1
1
1
1
1
1
1
1
1
1
1
1
1
1
1
1
1
1
1
1
1
1
1
1
1
1
1
1
1
1
1
1
1
1
1
1
1
1
1
1
1
1
1
1
1
1
1
1
1
1
1
1
1
1
1
1
1
1
1
1
1
1
1
1
1
1
1
1
1
1
1
1
1
1
1
1
1
1
1
1
1
1
1
1
1
1
1
1
1
1
1
1
1
1
1
1
1
1
1
1
1
1
1
1
1
1
1
1
1
1
1
1
1
1
1
1
1
1
1
1
1
1
1
1
1
1
1
1
1
1
1
1
1
1
1
1
1
1
1
1
1
1
1
1
1
1
1
1
1
1
1
1
1
1
1
1
1
1
1
1
1
1
1
1
1
1
1
1
1
1
1
1
1
1
1
1
1
1
1
1
1
1
1
1
1
1
1
1
1
1
1
1
1
1
1
1
1
1
1
1
1
1
1
1
1
1
1
1
1
1
1
1
1
1
1
1
1
1
1
1
1
1
1
1
1
1
1
1
1
1
1
1
1
1
1
1
1
1
1
1
1
1
1
1
1
1
1
1
1
1
1
1
1
1
1
1
1
1
1
1
1
1
1
1
1
1
1
1
1
1
1
1
1
1
1
1
1
1
1
1
1
1
1
1
1
1
1
1
1
1
1
1
1
1
1
1
1
1
1
1
1
1
1
1
1
1
1
1
1
1
1
1
1
1
1
1
1
1
1
1
1
1
1
1
1
1
1
1
1
1
1
1
1
1
1
1
1
1
1
1
1
1
1
1
1
1
1
1
1
1
1
1
1
1
1
1
1
1
1
1
1
1
1
1
1
1
1
1
1
1
1
1
1
1
1
1
1
1
1
1
1
1
1
1
1
1
1
1
1
1
1
1
1
1
1
1
1
1
1
1
1
1
1
1
1
1
1
1
1
1
1
1
1
1
1
1
1
1
1
1
1
1
1
1
1
1
1
1
1
1
1
1
1
1
1
1
1
1
1
1
1
1
1
1
1
1
1
1
1
1
1
1
1
1
1
1
1
1
1
1
1
1
1
1
1
1
1
1
1
1
1
1
1
1
1
1
1
1
1
1
1
1
1
1
1
1
1
1
1
1
1
1
1
1
1
1
1
1
1
1
1
1
1
1
1
1
1
1
1
1
1
1
1
1
1
1
1
1
1
1
1
1
1
1
1
1
1
1
1
1
1
1
1
1
1
1
1
1
1
1
1
1
1
1
1
1
1
1
1
1
1
1
1
1
1
1
1
1
1
1
1
1
1
1
1
1
1
1
1
1
1
1
1
1
1
1
1
1
1
1
1
1
1
1
1
1
1
1
1
1
1
1
1
1
1
1
1
1
1
1
1
1
1
1
1
1
1
1
1
1
1
1
1
1
1
1
1
1
1
1
1
1
1
1
1
1
1
1
1
1
1
1
1
1
1
1
1
1
1
1
1
1
1
1
1
1
1
1
1
1
1
1
1
1
1
1
1
1
1
1
1
1
1
1
1
1
1
1
1
1
1
1
1
1
1
1
1
1
1
1
1
1
1
1
1
1
1
1
1
1
1
1
1
1
1
1
1
1
1
1
1
1
1
1
1
1
1
1
1
1
1
1
1
1
1
1
1
1
1
1
1
1
1
1
1
1
1
1
1
1
1
1
1
1
1
1
1
1
1
1
1
1
1
1
1
1
1
1
1
1
1
1
1
1
1
1
1
1
1
1
1
1
1
1
1
1
1
1
1
1
1
1
1
1
1
1
1
1
1
1
1
1
1
1
1
1
1
1
1
1
1
1
1
1
1
1
1
1
1
1
1
1
1
1
1
1
1
1
1
1
1
1
1
1
1
1
1
1
1
1
1
1
1
1
1
1
1
1
1
1
1
1
1
1
1
1
1
1
1
1
1
1
1
1
1
1
1
1
1
0.999999
1
1
1
1
1
1
1
1
1
1
1
1
1
1
1.00028
1
1
1
1
1
1
1
1
1
1
1
1
1
1
1.00974
1.00005
1
1
1
1
1
1
1
1
1
1
1
1
1
1.06363
1.00093
1
1
1
1
1
1
1
1
1
1
1
1
1
1.1568
1.00626
1.00003
1
1
1
1
1
1
1
1
1
1
1
1
1.24407
1.04586
1.00214
1.00003
1
1
1
1
1
1
1
1
1
1
1
1.10372
1.01343
1.00034
1
1
1
1
1
1
1
1
1
1
1
1
1.0114
1.00074
1
0.999999
1
1
1
1
1
1
1
1
1
1
1
0.999956
0.999995
0.999998
1
1
1
1
1
1
1
1
1
1
1
1
0.999872
0.999994
0.999999
1
1
1
1
1
1
1
1
1
1
1
1
0.999968
0.999999
1
1
1
1
1
1
1
1
1
1
1
1
1
0.999999
1
1
1
1
1
1
1
1
1
1
1
1
1
1
1
1
1
1
1
1
1
1
1
1
1
1
1
1
1
1
1
1
1
1
1
1
1
1
1
1
1
1
1
1
1
1
1
1
1
1
1
1
1
1
1
1
1
1
1
1
1
1
1
1
1
1
1
1
1
1
1
1
1
1
1
1
1
1
1
1
1
1
1
1
1
1
1
1
1
1
1
1
1
1
1
1
1
1
1
1
1
1
1
1
1
1
1
1
1
1
1
1
1
1
1
1
1
1
1
1
1
1
1
1
1
1
1
1
1
1
1
1
1
1
1
1
1
1
1
1
1
1
1
1
1
1
1
1
1
1
1
1
1
1
1
1
1
1
1
1
1
1
1
1
1
1
1
1
1
1
1
1
1
1
1
1
1
1
1
1
1
1
1
1
1
1
1
1
1
1
1
1
1
1
1
1
1
1
1
1
1
1
1
1
1
1
1
1
1
1
1
1
1
1
1
1
1
1
1
1
1
1
1
1
1.15001
1.02734
0.998498
0.998977
0.999837
0.999996
1
1
1
1
1
1
1
1
1
1
1
1
1
1
0.99525
0.975834
0.986069
0.99732
0.999893
0.999999
1
1
1
1
1
1
1
1
1
1
1
1
1
1
0.84629
0.916136
0.971201
0.996769
0.999934
1
1
1
1
1
1
1
1
1
1
1
1
1
1
1
0.716027
0.847843
0.955143
0.996188
0.999941
1
1
1
1
1
1
1
1
1
1
1
1
1
1
1
0.611721
0.76173
0.923135
0.992892
0.999877
0.999999
1
1
1
1
1
1
1
1
1
1
1
1
1
1
0.517945
0.660908
0.87343
0.984635
0.999583
0.999997
1
1
1
1
1
1
1
1
1
1
1
1
1
1
0.420154
0.560617
0.814146
0.96837
0.998485
0.999982
1
1
1
1
1
1
1
1
1
1
1
1
1
1
0.317009
0.515243
0.778563
0.949676
0.996283
0.999934
1
1
1
1
1
1
1
1
1
1
1
1
1
1
0.399224
0.552491
0.761608
0.936245
0.994006
0.999863
0.999999
1
1
1
1
1
1
1
1
1
1
1
1
1
0.549318
0.628413
0.782948
0.927695
0.991632
0.999767
0.999998
1
1
1
1
1
1
1
1
1
1
1
1
1
)
;

boundaryField
{
    inlet
    {
        type            fixedValue;
        value           uniform 1;
    }
    outlet
    {
        type            zeroGradient;
    }
    airfoil
    {
        type            zeroGradient;
    }
    top
    {
        type            symmetryPlane;
    }
    bottom
    {
        type            symmetryPlane;
    }
    defaultFaces
    {
        type            empty;
    }
}


// ************************************************************************* //
