/*--------------------------------*- C++ -*----------------------------------*\
  =========                 |
  \\      /  F ield         | OpenFOAM: The Open Source CFD Toolbox
   \\    /   O peration     | Website:  https://openfoam.org
    \\  /    A nd           | Version:  7
     \\/     M anipulation  |
\*---------------------------------------------------------------------------*/
FoamFile
{
    version     2.0;
    format      ascii;
    class       volVectorField;
    location    "0.3";
    object      U;
}
// * * * * * * * * * * * * * * * * * * * * * * * * * * * * * * * * * * * * * //

dimensions      [0 1 -1 0 0 0 0];

internalField   nonuniform List<vector> 
3700
(
(0.44 -0.0855652 0)
(0.351095 -0.155436 0)
(0.434254 -0.0590541 0)
(0.545477 -0.0875036 0)
(0.733261 -0.101484 0)
(0.959874 -0.154827 0)
(1.18347 -0.157369 0)
(1.33244 -0.216504 0)
(1.44668 -0.215709 0)
(1.52734 -0.227033 0)
(1.5919 -0.250093 0)
(1.64838 -0.279674 0)
(1.70307 -0.308429 0)
(1.76567 -0.328123 0)
(1.83934 -0.332059 0)
(1.89805 -0.322629 0)
(1.91316 -0.311952 0)
(1.91079 -0.296048 0)
(1.90821 -0.266737 0)
(1.91768 -0.241415 0)
(0.695147 -0.247005 0)
(0.573497 -0.229028 0)
(0.609972 -0.0243289 0)
(0.748077 -0.0413017 0)
(1.02343 -0.0491163 0)
(1.38213 -0.283937 0)
(1.69351 -0.595368 0)
(1.84528 -0.882508 0)
(1.89599 -1.08476 0)
(1.92428 -1.22592 0)
(1.94398 -1.35799 0)
(1.96665 -1.46075 0)
(1.99699 -1.53269 0)
(2.04997 -1.56235 0)
(2.10236 -1.5049 0)
(2.16642 -1.38282 0)
(2.24979 -1.2023 0)
(2.26228 -1.01076 0)
(2.26776 -0.890169 0)
(2.24526 -0.812999 0)
(0.94183 -0.805723 0)
(0.912477 -0.771369 0)
(1.03003 -0.667044 0)
(1.26281 -0.816599 0)
(1.63184 -0.955429 0)
(1.99005 -1.26074 0)
(2.22582 -1.58473 0)
(2.2822 -1.70686 0)
(2.25532 -1.78324 0)
(2.23058 -1.88226 0)
(2.19143 -1.92255 0)
(2.16145 -1.92302 0)
(2.15926 -1.92208 0)
(2.18326 -1.87805 0)
(2.22375 -1.77826 0)
(2.29306 -1.6253 0)
(2.37481 -1.46752 0)
(2.48228 -1.3273 0)
(2.51814 -1.19001 0)
(2.48475 -1.05357 0)
(0.995128 -0.949163 0)
(1.08386 -0.957182 0)
(1.26068 -1.03724 0)
(1.52662 -1.20351 0)
(1.86174 -1.29603 0)
(2.17813 -1.37192 0)
(2.30053 -1.6249 0)
(2.4037 -1.64983 0)
(2.37911 -1.73989 0)
(2.36548 -1.76322 0)
(2.33316 -1.75475 0)
(2.28079 -1.7513 0)
(2.24494 -1.74628 0)
(2.26142 -1.73883 0)
(2.32004 -1.70841 0)
(2.37577 -1.59457 0)
(2.4406 -1.37196 0)
(2.52905 -1.19216 0)
(2.6176 -1.08508 0)
(2.67578 -0.882593 0)
(1.02995 -0.905165 0)
(1.18115 -0.918198 0)
(1.46629 -1.10089 0)
(1.77781 -1.35724 0)
(2.09754 -1.52067 0)
(2.1531 -1.75825 0)
(2.13449 -1.93141 0)
(2.28578 -1.8422 0)
(2.32439 -1.87706 0)
(2.38447 -1.80398 0)
(2.40591 -1.6963 0)
(2.40716 -1.61697 0)
(2.41168 -1.56388 0)
(2.42343 -1.55867 0)
(2.42915 -1.52512 0)
(2.45238 -1.50649 0)
(2.51318 -1.34191 0)
(2.5948 -1.13685 0)
(2.68017 -0.996417 0)
(2.79968 -0.803357 0)
(1.07291 -0.828359 0)
(1.28555 -0.866576 0)
(1.63288 -1.16486 0)
(1.95629 -1.57322 0)
(1.93206 -1.87256 0)
(1.96628 -1.92869 0)
(2.05096 -2.03123 0)
(2.2582 -1.84929 0)
(2.34388 -1.87503 0)
(2.45413 -1.77892 0)
(2.54729 -1.6129 0)
(2.62472 -1.45287 0)
(2.71558 -1.3373 0)
(2.73204 -1.30041 0)
(2.72482 -1.25147 0)
(2.70682 -1.23073 0)
(2.70281 -1.20584 0)
(2.7411 -1.06011 0)
(2.80242 -0.932938 0)
(2.9197 -0.688283 0)
(1.06866 -0.703281 0)
(1.36523 -0.803137 0)
(1.67148 -1.19918 0)
(1.74608 -1.70356 0)
(1.74339 -1.97655 0)
(1.85416 -2.00138 0)
(1.88577 -2.02979 0)
(2.1033 -1.86649 0)
(2.32867 -1.71447 0)
(2.55661 -1.58496 0)
(2.7465 -1.47415 0)
(2.88751 -1.3464 0)
(2.94452 -1.16789 0)
(2.94703 -1.02063 0)
(2.94808 -0.919037 0)
(2.9643 -0.852122 0)
(2.97784 -0.873171 0)
(2.98286 -0.820139 0)
(2.99184 -0.77615 0)
(3.04982 -0.533677 0)
(1.07441 -0.669635 0)
(1.32649 -0.867877 0)
(1.55436 -1.33732 0)
(1.60707 -1.71016 0)
(1.67095 -1.97382 0)
(1.69781 -2.02292 0)
(1.84581 -1.96212 0)
(2.05951 -1.78257 0)
(2.19723 -1.66539 0)
(2.36876 -1.5145 0)
(2.51273 -1.41029 0)
(2.64287 -1.28989 0)
(2.7588 -1.12226 0)
(2.85101 -0.907054 0)
(2.91387 -0.743399 0)
(2.97029 -0.633417 0)
(3.02858 -0.53666 0)
(3.07521 -0.452548 0)
(3.10478 -0.394254 0)
(3.12522 -0.200848 0)
(1.12421 -0.764339 0)
(1.31379 -1.0094 0)
(1.53372 -1.4337 0)
(1.56435 -1.75584 0)
(1.72589 -1.93674 0)
(1.82096 -2.0044 0)
(2.02127 -1.89038 0)
(2.14617 -1.75558 0)
(2.23895 -1.65858 0)
(2.36197 -1.46513 0)
(2.47135 -1.31043 0)
(2.56262 -1.17312 0)
(2.64218 -1.04593 0)
(2.72284 -0.895387 0)
(2.80495 -0.727267 0)
(2.88413 -0.586794 0)
(2.97198 -0.468068 0)
(3.05796 -0.323593 0)
(3.11606 -0.176834 0)
(3.1319 0.00744534 0)
(1.31278 -0.91077 0)
(1.43506 -1.0861 0)
(1.64068 -1.32408 0)
(1.72441 -1.72928 0)
(2.13654 -1.74514 0)
(2.25773 -1.75537 0)
(2.36102 -1.63931 0)
(2.45406 -1.43505 0)
(2.547 -1.4858 0)
(2.59713 -1.2925 0)
(2.63715 -1.12602 0)
(2.66783 -0.946556 0)
(2.69931 -0.802393 0)
(2.73864 -0.680801 0)
(2.79868 -0.542747 0)
(2.87546 -0.341084 0)
(2.96647 -0.155051 0)
(3.05182 0.00907113 0)
(3.10644 0.12314 0)
(3.11657 0.19202 0)
(1.68726 -1.16542 0)
(1.71199 -1.28374 0)
(1.78574 -1.3166 0)
(2.05509 -1.63567 0)
(2.45294 -1.77954 0)
(2.80974 -1.42189 0)
(2.97973 -1.5511 0)
(3.0093 -1.06328 0)
(3.01207 -0.854124 0)
(2.99814 -0.769447 0)
(2.91779 -0.658338 0)
(2.83578 -0.440411 0)
(2.79845 -0.287105 0)
(2.78425 -0.130879 0)
(2.80488 -0.0165322 0)
(2.87141 0.0725759 0)
(2.95496 0.193933 0)
(3.03367 0.301726 0)
(3.07954 0.334614 0)
(3.08589 0.314466 0)
(1.90302 -1.3692 0)
(1.88344 -1.62896 0)
(2.09269 -1.531 0)
(2.14573 -1.73099 0)
(2.42642 -1.69121 0)
(2.71862 -1.39018 0)
(2.85883 -1.26355 0)
(2.98343 -1.04121 0)
(3.02542 -0.683528 0)
(2.95681 -0.542819 0)
(2.87368 -0.414582 0)
(2.80048 -0.225566 0)
(2.75045 -0.027932 0)
(2.73602 0.114155 0)
(2.76457 0.244709 0)
(2.82577 0.385636 0)
(2.90758 0.492806 0)
(2.99246 0.500737 0)
(3.01949 0.472503 0)
(3.05422 0.396915 0)
(1.84981 -1.52564 0)
(1.79646 -1.90676 0)
(1.93047 -1.70845 0)
(1.87686 -1.80206 0)
(2.17336 -1.4924 0)
(2.39464 -1.44286 0)
(2.57243 -1.07838 0)
(2.70485 -0.907471 0)
(2.73301 -0.662296 0)
(2.73539 -0.485289 0)
(2.71801 -0.291255 0)
(2.69426 -0.121876 0)
(2.6682 0.06944 0)
(2.67159 0.276633 0)
(2.70305 0.491383 0)
(2.76853 0.630685 0)
(2.87011 0.649506 0)
(2.91704 0.615519 0)
(2.98203 0.532034 0)
(3.01528 0.358118 0)
(1.50608 -1.31995 0)
(1.37837 -1.68672 0)
(1.66542 -1.58719 0)
(1.73421 -1.7347 0)
(2.08473 -1.31241 0)
(2.32735 -1.28702 0)
(2.54466 -0.846443 0)
(2.71586 -0.628983 0)
(2.7283 -0.254903 0)
(2.71446 -0.00134419 0)
(2.67269 0.177113 0)
(2.63645 0.318589 0)
(2.57338 0.518122 0)
(2.58307 0.675199 0)
(2.61445 0.787456 0)
(2.73326 0.782641 0)
(2.79317 0.747441 0)
(2.89176 0.645767 0)
(2.97873 0.420346 0)
(3.00654 0.129055 0)
(1.33363 -1.22227 0)
(1.27075 -1.55985 0)
(1.7621 -1.29834 0)
(1.9297 -1.62085 0)
(2.24459 -0.782799 0)
(2.50589 -0.700634 0)
(2.67215 -0.296381 0)
(2.76889 0.000405986 0)
(2.71185 0.370364 0)
(2.62609 0.597525 0)
(2.53976 0.729562 0)
(2.46336 0.819241 0)
(2.44523 0.883539 0)
(2.48618 0.945191 0)
(2.57932 0.903586 0)
(2.65775 0.867989 0)
(2.8068 0.720124 0)
(2.95091 0.431816 0)
(3.004 0.113835 0)
(3.00072 0.0070467 0)
(1.03534 -1.0238 0)
(1.21712 -1.34527 0)
(1.92628 -0.811911 0)
(2.51371 -0.243554 0)
(2.63414 0.122705 0)
(2.58502 0.211091 0)
(2.66921 0.189274 0)
(2.58495 0.498818 0)
(2.55252 0.658717 0)
(2.42122 0.867688 0)
(2.37383 0.939432 0)
(2.28891 1.05619 0)
(2.36923 1.04407 0)
(2.4206 1.02508 0)
(2.53928 0.954269 0)
(2.74623 0.744713 0)
(2.94584 0.371541 0)
(3.00366 0.065518 0)
(3.00024 0.0025162 0)
(2.99999 -3.36049e-06 0)
(0.923075 -0.533243 0)
(1.33277 -0.553126 0)
(2.55131 -0.571053 0)
(2.5931 0.507819 0)
(2.58797 0.361722 0)
(2.48965 0.481602 0)
(2.48443 0.593944 0)
(2.38708 0.80524 0)
(2.29225 0.99076 0)
(2.18698 1.13125 0)
(2.17618 1.17165 0)
(2.23067 1.14156 0)
(2.29466 1.10893 0)
(2.48583 0.96042 0)
(2.7565 0.666811 0)
(2.97789 0.221084 0)
(3.00297 0.0201777 0)
(2.99997 0.000151853 0)
(3 -9.98546e-06 0)
(3 -4.14903e-06 0)
(1.07708 -0.278736 0)
(1.96403 0.913267 0)
(2.34376 0.532161 0)
(2.43075 0.518441 0)
(2.39167 0.71197 0)
(2.27656 0.889649 0)
(2.21999 1.02587 0)
(2.14552 1.13923 0)
(2.04282 1.24386 0)
(2.05661 1.25029 0)
(2.10239 1.22408 0)
(2.24491 1.10989 0)
(2.52272 0.858664 0)
(2.88206 0.402539 0)
(3.01052 0.0581344 0)
(3.00064 0.00114505 0)
(2.99998 -8.5597e-05 0)
(3 -3.72626e-05 0)
(3 -4.80128e-06 0)
(3 -5.84387e-08 0)
(1.03435 0.0560058 0)
(2.05281 0.812123 0)
(2.21679 0.982158 0)
(2.20941 1.0497 0)
(2.12286 1.16479 0)
(2.01934 1.2008 0)
(1.98033 1.26059 0)
(1.96289 1.29314 0)
(1.94762 1.2963 0)
(2.09887 1.1641 0)
(2.36538 0.922025 0)
(2.79657 0.471807 0)
(3.02651 0.0725188 0)
(3.004 0.000148795 0)
(2.99992 -0.000373312 0)
(3.00001 -0.000189473 0)
(3.00001 -3.14047e-05 0)
(3 -6.57922e-07 0)
(3 1.80571e-08 0)
(3 4.38313e-09 0)
(1.23273 0.840621 0)
(1.98927 1.2509 0)
(2.00864 1.2778 0)
(1.94592 1.30411 0)
(1.87465 1.34484 0)
(1.88383 1.26636 0)
(1.91715 1.26742 0)
(1.87208 1.28417 0)
(2.17724 0.992528 0)
(2.72999 0.418287 0)
(3.03027 0.0513635 0)
(3.00793 -0.00299257 0)
(3 -0.000867999 0)
(3.00006 -0.000503795 0)
(3 -7.94272e-05 0)
(3 -5.47322e-07 0)
(3 1.75408e-07 0)
(3 5.73791e-08 0)
(3 2.97176e-09 0)
(3 -1.75662e-11 0)
(1.74404 1.35945 0)
(1.78398 1.35398 0)
(1.78663 1.36081 0)
(1.77907 1.35681 0)
(1.79215 1.31658 0)
(2.23769 0.976497 0)
(3.27349 -0.251706 0)
(2.99996 -2.89296e-05 0)
(3.00001 1.02964e-06 0)
(3 1.79401e-07 0)
(3 9.74348e-10 0)
(3 -4.02431e-11 0)
(3 2.31729e-11 0)
(3 2.27609e-11 0)
(3 8.91467e-12 0)
(3 9.00244e-12 0)
(3 -3.0484e-12 0)
(3 1.58067e-12 0)
(3 2.61743e-16 0)
(3 -3.63009e-16 0)
(1.71916 1.33637 0)
(1.75173 1.33534 0)
(1.77454 1.33064 0)
(1.7782 1.32826 0)
(1.8202 1.30823 0)
(2.15538 0.990886 0)
(2.94532 0.076904 0)
(3.00001 -1.61439e-07 0)
(3 -4.16534e-09 0)
(3 -6.43996e-10 0)
(3 4.72075e-12 0)
(3 5.61511e-13 0)
(3 4.7345e-13 0)
(3 -6.13603e-14 0)
(3 -4.16635e-15 0)
(3 -1.04871e-15 0)
(3 1.70322e-15 0)
(3 1.83898e-16 0)
(3 4.96703e-16 0)
(3 -3.74007e-16 0)
(1.70535 1.32629 0)
(1.72719 1.3296 0)
(1.75743 1.32197 0)
(1.77883 1.30302 0)
(2.24981 0.988424 0)
(2.97121 0.0776489 0)
(3.0005 -0.00222649 0)
(3 1.09426e-08 0)
(3 6.48956e-11 0)
(3 2.5662e-12 0)
(3 -2.15302e-13 0)
(3 -1.08035e-14 0)
(3 -2.77514e-15 0)
(3 5.27377e-16 0)
(3 -6.47624e-16 0)
(3 -9.38346e-16 0)
(3 -2.01191e-15 0)
(3 2.67201e-15 0)
(3 1.1042e-15 0)
(3 7.62176e-16 0)
(1.67603 1.32205 0)
(1.70777 1.32479 0)
(1.74387 1.31299 0)
(1.7912 1.32243 0)
(2.29556 0.789582 0)
(3.01871 -0.0111841 0)
(2.99976 0.000239921 0)
(3 -2.55955e-10 0)
(3 -3.36103e-13 0)
(3 -1.40134e-14 0)
(3 2.66218e-15 0)
(3 -3.92081e-16 0)
(3 -5.22369e-17 0)
(3 1.50823e-16 0)
(3 -1.15089e-15 0)
(3 -6.35933e-16 0)
(3 -1.96102e-15 0)
(3 1.70461e-15 0)
(3 6.9888e-16 0)
(3 1.07731e-15 0)
(1.64623 1.31901 0)
(1.6622 1.32114 0)
(1.73292 1.30228 0)
(2.01643 1.15434 0)
(2.74649 0.305363 0)
(3 6.51823e-10 0)
(3 -5.34956e-11 0)
(3 -1.98806e-12 0)
(3 2.51898e-14 0)
(3 2.53459e-15 0)
(3 -4.04469e-16 0)
(3 -4.98956e-16 0)
(3 -3.1474e-17 0)
(3 -5.43781e-17 0)
(3 -7.13968e-16 0)
(3 -2.66372e-17 0)
(3 -5.75178e-17 0)
(3 7.25725e-16 0)
(3 4.47591e-16 0)
(3 7.87096e-16 0)
(1.62849 1.32269 0)
(1.61743 1.317 0)
(1.72242 1.31155 0)
(2.00532 1.07082 0)
(2.90467 0.0946394 0)
(3 4.97722e-10 0)
(3 -2.55406e-11 0)
(3 5.5686e-13 0)
(3 -3.04075e-15 0)
(3 -1.11911e-16 0)
(3 -4.83682e-16 0)
(3 -7.95893e-16 0)
(3 -2.08915e-16 0)
(3 -1.05358e-16 0)
(3 -1.53975e-16 0)
(3 -8.15731e-17 0)
(3 -7.33454e-17 0)
(3 8.87663e-16 0)
(3 4.41551e-16 0)
(3 1.03e-17 0)
(1.60631 1.32818 0)
(1.56991 1.32983 0)
(1.76219 1.24081 0)
(2.31854 0.723823 0)
(3.01243 -0.0141994 0)
(3 -1.75761e-11 0)
(3 9.77086e-13 0)
(3 -2.31187e-14 0)
(3 6.05551e-17 0)
(3 -6.41971e-18 0)
(3 -2.01836e-16 0)
(3 -7.44445e-16 0)
(3 -7.03069e-16 0)
(3 -2.19117e-16 0)
(3 1.87493e-16 0)
(3 -3.41783e-16 0)
(3 4.93107e-17 0)
(3 2.55637e-16 0)
(3 6.51502e-16 0)
(3 2.55902e-16 0)
(1.6122 1.33701 0)
(1.52275 1.34912 0)
(1.79588 1.17753 0)
(2.53797 0.436157 0)
(3 -3.32828e-10 0)
(3 4.4598e-12 0)
(3 -1.38633e-13 0)
(3 1.73524e-15 0)
(3 -9.71199e-16 0)
(3 -5.22867e-16 0)
(3 -5.15248e-16 0)
(3 -7.15614e-16 0)
(3 -4.70347e-16 0)
(3 2.98387e-17 0)
(3 4.44385e-16 0)
(3 1.19799e-16 0)
(3 -1.14068e-16 0)
(3 3.92489e-16 0)
(3 3.77522e-16 0)
(3 -1.26049e-16 0)
(1.60626 1.30824 0)
(1.49486 1.35024 0)
(2.07483 0.99469 0)
(2.93552 0.0713543 0)
(3 4.80613e-10 0)
(3 -1.48299e-11 0)
(3 3.75306e-13 0)
(3 -6.40793e-15 0)
(3 -8.20974e-16 0)
(3 -6.54977e-16 0)
(3 -8.08721e-16 0)
(3 -9.97703e-16 0)
(3 -7.55988e-16 0)
(3 2.62261e-16 0)
(3 6.1364e-16 0)
(3 5.22331e-16 0)
(3 1.4931e-16 0)
(3 5.86426e-16 0)
(3 5.69177e-16 0)
(3 3.48579e-16 0)
(1.61221 1.30043 0)
(1.49089 1.39728 0)
(2.1518 0.839387 0)
(3.00938 -0.00853885 0)
(3 -5.52077e-13 0)
(3 1.11171e-14 0)
(3 -4.7784e-15 0)
(3 -1.42812e-15 0)
(3 -9.93036e-16 0)
(3 -9.06753e-16 0)
(3 -8.16245e-16 0)
(3 -1.00287e-15 0)
(3 -1.03613e-15 0)
(3 -2.85087e-16 0)
(3 3.86589e-17 0)
(3 3.112e-17 0)
(3 1.55214e-16 0)
(3 1.81993e-16 0)
(3 3.13858e-16 0)
(3 6.4142e-16 0)
(1.62711 1.28389 0)
(1.58206 1.31439 0)
(2.43337 0.528139 0)
(3 3.04054e-11 0)
(3 8.4939e-13 0)
(3 -2.2527e-14 0)
(3 -6.85321e-16 0)
(3 -1.19838e-15 0)
(3 -7.69785e-16 0)
(3 -1.52474e-15 0)
(3 -9.11188e-16 0)
(3 -1.04288e-15 0)
(3 -1.14716e-15 0)
(3 -9.77425e-16 0)
(3 -8.97725e-16 0)
(3 -5.72136e-16 0)
(3 -1.29271e-16 0)
(3 -1.19681e-16 0)
(3 4.01202e-17 0)
(3 7.87995e-16 0)
(1.64262 1.26338 0)
(1.6352 1.24005 0)
(2.65611 0.280466 0)
(3 1.10535e-10 0)
(3 -3.24683e-13 0)
(3 3.33108e-15 0)
(3 -4.3269e-16 0)
(3 -7.47807e-16 0)
(3 -3.73712e-16 0)
(3 -6.78378e-16 0)
(3 -5.88916e-16 0)
(3 -2.16813e-16 0)
(3 -8.51548e-16 0)
(3 -1.13485e-15 0)
(3 -1.46623e-15 0)
(3 -1.06221e-15 0)
(3 -7.31397e-16 0)
(3 -8.84936e-16 0)
(3 -9.20632e-16 0)
(3 -1.15263e-15 0)
(1.65778 1.24369 0)
(1.83771 1.09505 0)
(2.88356 0.0861237 0)
(3 -5.3673e-10 0)
(3 9.09392e-13 0)
(3 -4.03428e-15 0)
(3 4.45383e-17 0)
(3 3.05499e-17 0)
(3 -2.76906e-16 0)
(3 -2.64436e-16 0)
(3 1.94381e-16 0)
(3 3.20592e-16 0)
(3 2.46491e-16 0)
(3 -1.64482e-16 0)
(3 -2.69592e-16 0)
(3 -5.04491e-16 0)
(3 -2.6054e-16 0)
(3 2.92489e-16 0)
(3 8.18197e-16 0)
(3 -1.5891e-17 0)
(1.67641 1.19702 0)
(1.89692 0.979454 0)
(2.99814 0.00163274 0)
(3 1.65684e-12 0)
(3 -1.08014e-14 0)
(3 3.23437e-16 0)
(3 -1.17994e-16 0)
(3 -5.96453e-17 0)
(3 -1.19228e-16 0)
(3 -1.63993e-16 0)
(3 6.26714e-16 0)
(3 7.21811e-16 0)
(3 1.06477e-15 0)
(3 4.69382e-16 0)
(3 4.75941e-17 0)
(3 -2.96234e-16 0)
(3 6.61869e-17 0)
(3 5.79586e-16 0)
(3 1.18128e-15 0)
(3 1.51263e-15 0)
(1.70059 1.16867 0)
(2.05693 0.823573 0)
(3 -4.68197e-14 0)
(3 -1.71403e-14 0)
(3 7.84174e-16 0)
(3 1.15527e-15 0)
(3 1.52765e-15 0)
(3 1.67126e-15 0)
(3 8.49255e-16 0)
(3 3.74669e-16 0)
(3 4.74715e-16 0)
(3 7.04942e-16 0)
(3 1.4378e-15 0)
(3 2.24239e-15 0)
(3 2.02614e-15 0)
(3 7.30957e-16 0)
(3 -9.10105e-16 0)
(3 -6.5264e-16 0)
(3 -3.07193e-16 0)
(3 5.62954e-17 0)
(1.76751 1.0996 0)
(2.21906 0.661621 0)
(3 8.3958e-14 0)
(3 -3.18479e-16 0)
(3 -7.81029e-16 0)
(3 1.5358e-16 0)
(3 3.49557e-16 0)
(3 4.12407e-16 0)
(3 4.27879e-16 0)
(3 -1.828e-16 0)
(3 -7.58566e-16 0)
(3 -1.04618e-15 0)
(3 -2.06692e-15 0)
(3 -1.81313e-15 0)
(3 -1.44689e-15 0)
(3 -8.06455e-16 0)
(3 -4.98459e-16 0)
(3 -5.80618e-16 0)
(3 -8.11803e-16 0)
(3 -5.29569e-16 0)
(1.80968 1.0109 0)
(2.43157 0.447938 0)
(3 2.0508e-15 0)
(3 1.35495e-15 0)
(3 -4.30374e-16 0)
(3 -3.09979e-16 0)
(3 5.25319e-16 0)
(3 6.56388e-16 0)
(3 4.29315e-17 0)
(3 -6.22365e-16 0)
(3 -1.85392e-15 0)
(3 -2.65029e-15 0)
(3 -2.74837e-15 0)
(3 -2.81799e-15 0)
(3 -2.8079e-15 0)
(3 -2.37807e-15 0)
(3 -2.15063e-15 0)
(3 -2.02217e-15 0)
(3 -2.12889e-15 0)
(3 -1.41441e-15 0)
(1.96542 0.890788 0)
(2.72119 0.208602 0)
(3 3.2423e-16 0)
(3 -1.2264e-16 0)
(3 -7.87374e-16 0)
(3 -8.45356e-16 0)
(3 -1.2065e-16 0)
(3 5.03671e-16 0)
(3 1.13694e-15 0)
(3 1.39392e-15 0)
(3 2.57275e-15 0)
(3 2.44876e-15 0)
(3 2.51195e-15 0)
(3 2.44369e-15 0)
(3 2.01312e-15 0)
(3 1.52767e-15 0)
(3 1.1848e-15 0)
(3 9.54711e-16 0)
(3 4.05449e-16 0)
(3 9.89976e-17 0)
(2.07969 0.634362 0)
(2.99243 0.000286165 0)
(3 2.21836e-15 0)
(3 6.37081e-16 0)
(3 -6.45611e-16 0)
(3 -6.03501e-16 0)
(3 -3.82477e-16 0)
(3 -4.44851e-16 0)
(3 -2.2692e-17 0)
(3 1.41532e-16 0)
(3 6.07916e-16 0)
(3 6.99766e-16 0)
(3 1.19989e-15 0)
(3 1.96575e-15 0)
(3 1.93253e-15 0)
(3 2.0687e-15 0)
(3 1.54681e-15 0)
(3 1.5942e-15 0)
(3 1.68598e-15 0)
(3 1.578e-15 0)
(1.99323 0.378899 0)
(2.99993 -8.3437e-06 0)
(3 9.75205e-16 0)
(3 1.48267e-16 0)
(3 -5.14228e-16 0)
(3 -7.73125e-16 0)
(3 -8.76206e-16 0)
(3 -7.02099e-16 0)
(3 -6.47724e-16 0)
(3 -1.26281e-16 0)
(3 -2.21054e-16 0)
(3 1.01662e-16 0)
(3 3.61194e-16 0)
(3 5.46773e-16 0)
(3 6.28172e-16 0)
(3 6.83343e-16 0)
(3 4.84814e-16 0)
(3 6.84379e-16 0)
(3 8.6566e-16 0)
(3 8.70221e-16 0)
(1.99323 -0.378899 0)
(2.99993 8.3437e-06 0)
(3 -2.58744e-16 0)
(3 -3.61767e-16 0)
(3 -8.09189e-16 0)
(3 -7.75128e-16 0)
(3 -5.29486e-16 0)
(3 -2.4751e-16 0)
(3 -7.9836e-18 0)
(3 2.12693e-16 0)
(3 8.81307e-16 0)
(3 8.32407e-16 0)
(3 1.72838e-16 0)
(3 -7.22075e-16 0)
(3 -8.47685e-16 0)
(3 -8.18209e-16 0)
(3 -5.87743e-16 0)
(3 -3.37015e-16 0)
(3 -3.09676e-16 0)
(3 -4.09886e-16 0)
(2.07969 -0.634362 0)
(2.99243 -0.000286165 0)
(3 -4.5917e-16 0)
(3 -6.25e-16 0)
(3 -2.87472e-16 0)
(3 1.51668e-16 0)
(3 5.02363e-16 0)
(3 1.27438e-15 0)
(3 1.77837e-15 0)
(3 1.98433e-15 0)
(3 1.61621e-15 0)
(3 7.51133e-16 0)
(3 -1.6171e-17 0)
(3 -8.5902e-16 0)
(3 -1.1556e-15 0)
(3 -7.8513e-16 0)
(3 -1.94198e-16 0)
(3 -1.33407e-16 0)
(3 -4.05625e-16 0)
(3 -4.37369e-16 0)
(1.96542 -0.890788 0)
(2.72119 -0.208602 0)
(3 -1.27811e-15 0)
(3 -9.72309e-16 0)
(3 -9.14337e-16 0)
(3 -1.91718e-16 0)
(3 3.9291e-16 0)
(3 1.55391e-15 0)
(3 2.50023e-15 0)
(3 1.43192e-15 0)
(3 1.83621e-16 0)
(3 -2.65495e-16 0)
(3 -6.26863e-16 0)
(3 -5.87138e-16 0)
(3 7.31809e-16 0)
(3 1.16225e-15 0)
(3 1.12747e-15 0)
(3 6.15245e-16 0)
(3 -4.28405e-17 0)
(3 1.30052e-16 0)
(1.80968 -1.0109 0)
(2.43157 -0.447938 0)
(3 5.9227e-16 0)
(3 4.69163e-16 0)
(3 3.49624e-16 0)
(3 3.51264e-16 0)
(3 2.58039e-16 0)
(3 1.9561e-16 0)
(3 -5.51034e-16 0)
(3 -1.61434e-15 0)
(3 -1.90299e-15 0)
(3 -1.8504e-15 0)
(3 -1.40024e-15 0)
(3 -1.04428e-15 0)
(3 -6.8688e-16 0)
(3 -6.16135e-16 0)
(3 -8.18088e-16 0)
(3 -7.85995e-16 0)
(3 -5.00629e-16 0)
(3 -3.28259e-16 0)
(1.76751 -1.0996 0)
(2.21906 -0.661621 0)
(3 -8.33739e-14 0)
(3 1.76621e-16 0)
(3 6.69269e-16 0)
(3 4.54629e-16 0)
(3 4.42822e-16 0)
(3 4.06161e-16 0)
(3 9.79157e-17 0)
(3 -4.42216e-16 0)
(3 -4.01015e-16 0)
(3 -1.13003e-17 0)
(3 8.11287e-16 0)
(3 7.42638e-16 0)
(3 1.15932e-15 0)
(3 1.31793e-15 0)
(3 1.63801e-15 0)
(3 1.58525e-15 0)
(3 1.37134e-15 0)
(3 1.02334e-15 0)
(1.70059 -1.16867 0)
(2.05693 -0.823573 0)
(3 4.59347e-14 0)
(3 1.61043e-14 0)
(3 -1.17329e-15 0)
(3 -5.74831e-16 0)
(3 -1.02855e-16 0)
(3 3.6974e-16 0)
(3 -4.6921e-17 0)
(3 -1.24261e-16 0)
(3 -3.41437e-17 0)
(3 3.33345e-16 0)
(3 9.30906e-16 0)
(3 1.06395e-15 0)
(3 1.09448e-15 0)
(3 1.0119e-15 0)
(3 5.25646e-16 0)
(3 1.7012e-16 0)
(3 -5.25988e-17 0)
(3 -6.86717e-16 0)
(1.67641 -1.19702 0)
(1.89692 -0.979454 0)
(2.99814 -0.00163274 0)
(3 -1.65625e-12 0)
(3 1.10672e-14 0)
(3 -6.73734e-16 0)
(3 -7.02015e-16 0)
(3 -9.0066e-17 0)
(3 -4.26602e-16 0)
(3 -3.96848e-16 0)
(3 -4.49909e-16 0)
(3 9.76212e-17 0)
(3 5.54143e-16 0)
(3 3.0012e-16 0)
(3 2.60809e-16 0)
(3 -2.35744e-16 0)
(3 -6.28696e-16 0)
(3 -6.73249e-16 0)
(3 -7.32146e-16 0)
(3 -1.00729e-15 0)
(1.65778 -1.24369 0)
(1.83771 -1.09505 0)
(2.88356 -0.0861237 0)
(3 5.36731e-10 0)
(3 -9.09029e-13 0)
(3 3.59344e-15 0)
(3 -9.43266e-16 0)
(3 -7.35832e-16 0)
(3 -5.21299e-16 0)
(3 -6.62244e-16 0)
(3 -8.39803e-16 0)
(3 -5.62978e-16 0)
(3 -5.16802e-16 0)
(3 -2.21305e-16 0)
(3 -2.22505e-16 0)
(3 -1.06541e-15 0)
(3 -1.43607e-15 0)
(3 -1.14579e-15 0)
(3 -1.09395e-15 0)
(3 -6.17702e-16 0)
(1.64262 -1.26338 0)
(1.6352 -1.24005 0)
(2.65611 -0.280466 0)
(3 -1.10535e-10 0)
(3 3.25387e-13 0)
(3 -3.56086e-15 0)
(3 -7.69431e-16 0)
(3 -4.35134e-16 0)
(3 -6.74348e-17 0)
(3 7.71651e-17 0)
(3 -3.38747e-16 0)
(3 -3.97072e-16 0)
(3 1.50716e-16 0)
(3 2.69724e-16 0)
(3 -1.21074e-16 0)
(3 -7.01815e-16 0)
(3 -6.84688e-16 0)
(3 1.1023e-16 0)
(3 3.22496e-16 0)
(3 -2.85899e-16 0)
(1.62711 -1.28389 0)
(1.58206 -1.31439 0)
(2.43337 -0.528139 0)
(3 -3.04051e-11 0)
(3 -8.50193e-13 0)
(3 2.15174e-14 0)
(3 -8.80035e-16 0)
(3 -3.01489e-16 0)
(3 -3.93905e-16 0)
(3 -7.4373e-16 0)
(3 -8.18181e-16 0)
(3 -5.04096e-16 0)
(3 2.0087e-16 0)
(3 2.59466e-16 0)
(3 -3.42552e-16 0)
(3 -6.68312e-16 0)
(3 -7.00159e-16 0)
(3 -2.79589e-16 0)
(3 -6.50946e-16 0)
(3 -1.64725e-15 0)
(1.61221 -1.30043 0)
(1.49089 -1.39728 0)
(2.1518 -0.839387 0)
(3.00938 0.00853885 0)
(3 5.51086e-13 0)
(3 -1.28058e-14 0)
(3 2.2439e-15 0)
(3 -4.13374e-16 0)
(3 -6.28298e-16 0)
(3 -5.28958e-16 0)
(3 -2.52053e-16 0)
(3 5.9948e-16 0)
(3 7.49179e-16 0)
(3 4.5824e-16 0)
(3 -2.22832e-16 0)
(3 -4.50751e-16 0)
(3 8.12068e-17 0)
(3 2.52402e-16 0)
(3 -4.50157e-17 0)
(3 -2.47372e-16 0)
(1.60626 -1.30824 0)
(1.49486 -1.35024 0)
(2.07483 -0.99469 0)
(2.93552 -0.0713543 0)
(3 -4.80614e-10 0)
(3 1.48276e-11 0)
(3 -3.77593e-13 0)
(3 3.90643e-15 0)
(3 -1.23343e-15 0)
(3 -5.78109e-16 0)
(3 -3.53676e-16 0)
(3 8.38505e-16 0)
(3 1.0541e-15 0)
(3 1.09733e-16 0)
(3 -5.41828e-16 0)
(3 -2.06758e-17 0)
(3 5.36147e-16 0)
(3 6.39167e-16 0)
(3 -1.40049e-16 0)
(3 5.79247e-16 0)
(1.6122 -1.33701 0)
(1.52275 -1.34912 0)
(1.79588 -1.17753 0)
(2.53797 -0.436157 0)
(3 3.32826e-10 0)
(3 -4.46272e-12 0)
(3 1.35258e-13 0)
(3 -3.74e-15 0)
(3 -7.08298e-16 0)
(3 -7.76631e-16 0)
(3 -6.11659e-16 0)
(3 4.8379e-16 0)
(3 7.89641e-16 0)
(3 1.50017e-16 0)
(3 -8.20504e-16 0)
(3 -2.34431e-16 0)
(3 6.96193e-16 0)
(3 3.22794e-16 0)
(3 -2.95537e-16 0)
(3 8.42546e-16 0)
(1.60631 -1.32818 0)
(1.56991 -1.32983 0)
(1.76219 -1.24081 0)
(2.31854 -0.723823 0)
(3.01243 0.0141994 0)
(3 1.75746e-11 0)
(3 -9.7863e-13 0)
(3 2.32135e-14 0)
(3 -4.94152e-16 0)
(3 -5.10779e-16 0)
(3 -8.73779e-16 0)
(3 -4.28885e-16 0)
(3 3.93018e-16 0)
(3 4.95896e-16 0)
(3 -5.56708e-16 0)
(3 -2.5248e-17 0)
(3 5.88728e-16 0)
(3 4.42582e-16 0)
(3 4.41766e-16 0)
(3 9.92338e-16 0)
(1.62849 -1.32269 0)
(1.61743 -1.317 0)
(1.72242 -1.31155 0)
(2.00532 -1.07082 0)
(2.90467 -0.0946394 0)
(3 -4.97722e-10 0)
(3 2.5541e-11 0)
(3 -5.56635e-13 0)
(3 3.63903e-15 0)
(3 8.20544e-16 0)
(3 6.49157e-17 0)
(3 -6.51736e-16 0)
(3 3.30938e-16 0)
(3 4.07697e-16 0)
(3 2.2045e-17 0)
(3 1.97377e-16 0)
(3 -2.44803e-16 0)
(3 5.1732e-16 0)
(3 1.21001e-15 0)
(3 6.40853e-16 0)
(1.64623 -1.31901 0)
(1.6622 -1.32114 0)
(1.73292 -1.30228 0)
(2.01643 -1.15434 0)
(2.74649 -0.305363 0)
(3 -6.51823e-10 0)
(3 5.34962e-11 0)
(3 1.98834e-12 0)
(3 -2.41498e-14 0)
(3 -7.83955e-16 0)
(3 7.90638e-16 0)
(3 5.29696e-16 0)
(3 4.16728e-17 0)
(3 1.289e-16 0)
(3 6.66532e-16 0)
(3 8.31116e-16 0)
(3 -4.10729e-16 0)
(3 7.12914e-16 0)
(3 1.13788e-15 0)
(3 1.03784e-15 0)
(1.67603 -1.32205 0)
(1.70777 -1.32479 0)
(1.74387 -1.31299 0)
(1.7912 -1.32243 0)
(2.29556 -0.789582 0)
(3.01871 0.0111841 0)
(2.99976 -0.000239921 0)
(3 2.55955e-10 0)
(3 3.36916e-13 0)
(3 1.53905e-14 0)
(3 -2.12178e-15 0)
(3 3.80287e-16 0)
(3 3.53822e-16 0)
(3 -4.88806e-16 0)
(3 -5.70362e-16 0)
(3 1.87145e-16 0)
(3 -3.82809e-16 0)
(3 1.60216e-15 0)
(3 7.69205e-16 0)
(3 1.32548e-15 0)
(1.70535 -1.32629 0)
(1.72719 -1.3296 0)
(1.75743 -1.32197 0)
(1.77883 -1.30302 0)
(2.24981 -0.988424 0)
(2.97121 -0.0776489 0)
(3.0005 0.00222649 0)
(3 -1.09426e-08 0)
(3 -6.48953e-11 0)
(3 -2.56617e-12 0)
(3 2.15021e-13 0)
(3 9.24066e-15 0)
(3 3.018e-15 0)
(3 -2.85147e-16 0)
(3 -2.08284e-15 0)
(3 -7.19222e-16 0)
(3 -1.76965e-16 0)
(3 1.23659e-15 0)
(3 1.44386e-15 0)
(3 3.40915e-16 0)
(1.71916 -1.33637 0)
(1.75173 -1.33534 0)
(1.77454 -1.33064 0)
(1.7782 -1.32826 0)
(1.8202 -1.30823 0)
(2.15538 -0.990886 0)
(2.94532 -0.076904 0)
(3.00001 1.61439e-07 0)
(3 4.16534e-09 0)
(3 6.43995e-10 0)
(3 -4.72225e-12 0)
(3 -5.60516e-13 0)
(3 -4.73776e-13 0)
(3 6.17397e-14 0)
(3 2.53387e-15 0)
(3 -2.50685e-16 0)
(3 -2.38641e-15 0)
(3 3.33561e-15 0)
(3 4.54499e-16 0)
(3 5.91353e-16 0)
(1.74404 -1.35945 0)
(1.78398 -1.35398 0)
(1.78663 -1.36081 0)
(1.77907 -1.35681 0)
(1.79215 -1.31658 0)
(2.23769 -0.976497 0)
(3.27349 0.251706 0)
(2.99996 2.89296e-05 0)
(3.00001 -1.02964e-06 0)
(3 -1.79401e-07 0)
(3 -9.7435e-10 0)
(3 4.02429e-11 0)
(3 -2.31733e-11 0)
(3 -2.27609e-11 0)
(3 -8.91441e-12 0)
(3 -8.99895e-12 0)
(3 3.05126e-12 0)
(3 -1.58459e-12 0)
(3 -3.49767e-16 0)
(3 6.48736e-16 0)
(1.23273 -0.840621 0)
(1.98927 -1.2509 0)
(2.00864 -1.2778 0)
(1.94592 -1.30411 0)
(1.87465 -1.34484 0)
(1.88383 -1.26636 0)
(1.91715 -1.26742 0)
(1.87208 -1.28417 0)
(2.17724 -0.992528 0)
(2.72999 -0.418287 0)
(3.03027 -0.0513635 0)
(3.00793 0.00299257 0)
(3 0.000867999 0)
(3.00006 0.000503795 0)
(3 7.94272e-05 0)
(3 5.47322e-07 0)
(3 -1.75408e-07 0)
(3 -5.73791e-08 0)
(3 -2.97176e-09 0)
(3 1.75667e-11 0)
(1.03435 -0.0560058 0)
(2.05281 -0.812123 0)
(2.21679 -0.982158 0)
(2.20941 -1.0497 0)
(2.12286 -1.16479 0)
(2.01934 -1.2008 0)
(1.98033 -1.26059 0)
(1.96289 -1.29314 0)
(1.94762 -1.2963 0)
(2.09887 -1.1641 0)
(2.36538 -0.922025 0)
(2.79657 -0.471807 0)
(3.02651 -0.0725188 0)
(3.004 -0.000148795 0)
(2.99992 0.000373312 0)
(3.00001 0.000189473 0)
(3.00001 3.14047e-05 0)
(3 6.57922e-07 0)
(3 -1.80571e-08 0)
(3 -4.38313e-09 0)
(1.07708 0.278736 0)
(1.96403 -0.913267 0)
(2.34376 -0.532161 0)
(2.43075 -0.518442 0)
(2.39167 -0.71197 0)
(2.27656 -0.889649 0)
(2.21999 -1.02587 0)
(2.14552 -1.13923 0)
(2.04282 -1.24386 0)
(2.05661 -1.25029 0)
(2.10239 -1.22408 0)
(2.24491 -1.10989 0)
(2.52272 -0.858664 0)
(2.88206 -0.402539 0)
(3.01052 -0.0581344 0)
(3.00064 -0.00114505 0)
(2.99998 8.5597e-05 0)
(3 3.72626e-05 0)
(3 4.80128e-06 0)
(3 5.84387e-08 0)
(0.923075 0.533243 0)
(1.33277 0.553126 0)
(2.55131 0.571053 0)
(2.5931 -0.507819 0)
(2.58797 -0.361722 0)
(2.48965 -0.481602 0)
(2.48443 -0.593944 0)
(2.38708 -0.80524 0)
(2.29225 -0.99076 0)
(2.18698 -1.13125 0)
(2.17618 -1.17165 0)
(2.23067 -1.14156 0)
(2.29466 -1.10893 0)
(2.48583 -0.96042 0)
(2.7565 -0.666811 0)
(2.97789 -0.221084 0)
(3.00297 -0.0201777 0)
(2.99997 -0.000151853 0)
(3 9.98547e-06 0)
(3 4.14903e-06 0)
(1.03534 1.0238 0)
(1.21712 1.34527 0)
(1.92628 0.811911 0)
(2.51371 0.243554 0)
(2.63414 -0.122705 0)
(2.58502 -0.211091 0)
(2.66921 -0.189274 0)
(2.58495 -0.498818 0)
(2.55252 -0.658718 0)
(2.42122 -0.867688 0)
(2.37383 -0.939432 0)
(2.28891 -1.05619 0)
(2.36923 -1.04407 0)
(2.4206 -1.02508 0)
(2.53928 -0.954269 0)
(2.74623 -0.744713 0)
(2.94584 -0.371541 0)
(3.00366 -0.065518 0)
(3.00024 -0.0025162 0)
(2.99999 3.36046e-06 0)
(1.33363 1.22227 0)
(1.27075 1.55985 0)
(1.7621 1.29834 0)
(1.9297 1.62085 0)
(2.24459 0.782799 0)
(2.50589 0.700634 0)
(2.67215 0.296381 0)
(2.76889 -0.000405992 0)
(2.71185 -0.370363 0)
(2.62609 -0.597527 0)
(2.53976 -0.729563 0)
(2.46336 -0.81924 0)
(2.44523 -0.883538 0)
(2.48618 -0.945192 0)
(2.57932 -0.903586 0)
(2.65775 -0.867989 0)
(2.8068 -0.720124 0)
(2.95091 -0.431816 0)
(3.004 -0.113835 0)
(3.00072 -0.00704669 0)
(1.50608 1.31995 0)
(1.37837 1.68672 0)
(1.66542 1.58719 0)
(1.73421 1.7347 0)
(2.08473 1.31241 0)
(2.32735 1.28702 0)
(2.54466 0.846443 0)
(2.71586 0.628983 0)
(2.7283 0.254901 0)
(2.71446 0.00134709 0)
(2.67269 -0.17711 0)
(2.63645 -0.318593 0)
(2.57338 -0.518125 0)
(2.58307 -0.675196 0)
(2.61445 -0.787454 0)
(2.73326 -0.782641 0)
(2.79317 -0.747442 0)
(2.89176 -0.645767 0)
(2.97873 -0.420346 0)
(3.00654 -0.129055 0)
(1.84981 1.52564 0)
(1.79646 1.90676 0)
(1.93047 1.70845 0)
(1.87686 1.80206 0)
(2.17336 1.4924 0)
(2.39464 1.44286 0)
(2.57243 1.07838 0)
(2.70485 0.90747 0)
(2.73301 0.662298 0)
(2.73539 0.485288 0)
(2.71801 0.29125 0)
(2.69426 0.12188 0)
(2.6682 -0.0694286 0)
(2.67159 -0.276639 0)
(2.70305 -0.491393 0)
(2.76853 -0.630686 0)
(2.87011 -0.649503 0)
(2.91704 -0.615518 0)
(2.98203 -0.532034 0)
(3.01528 -0.358117 0)
(1.90302 1.3692 0)
(1.88344 1.62896 0)
(2.09269 1.531 0)
(2.14573 1.73099 0)
(2.42642 1.69121 0)
(2.71862 1.39018 0)
(2.85883 1.26355 0)
(2.98343 1.04121 0)
(3.02542 0.683526 0)
(2.95681 0.542821 0)
(2.87368 0.414588 0)
(2.80048 0.225571 0)
(2.75044 0.027898 0)
(2.73601 -0.114146 0)
(2.76458 -0.244668 0)
(2.82577 -0.385636 0)
(2.90757 -0.492826 0)
(2.99245 -0.500753 0)
(3.01949 -0.472505 0)
(3.05421 -0.396916 0)
(1.68726 1.16542 0)
(1.71199 1.28374 0)
(1.78574 1.3166 0)
(2.05509 1.63567 0)
(2.45294 1.77954 0)
(2.80974 1.42189 0)
(2.97973 1.5511 0)
(3.0093 1.06328 0)
(3.01207 0.854126 0)
(2.99814 0.769443 0)
(2.91779 0.658335 0)
(2.83577 0.440394 0)
(2.79846 0.28716 0)
(2.78425 0.1309 0)
(2.80485 0.0164118 0)
(2.8714 -0.0725736 0)
(2.95497 -0.193871 0)
(3.03369 -0.301648 0)
(3.07955 -0.334589 0)
(3.08589 -0.314458 0)
(1.31278 0.91077 0)
(1.43506 1.0861 0)
(1.64068 1.32408 0)
(1.72441 1.72928 0)
(2.13654 1.74514 0)
(2.25773 1.75537 0)
(2.36102 1.63931 0)
(2.45406 1.43506 0)
(2.547 1.48581 0)
(2.59713 1.2925 0)
(2.63714 1.12602 0)
(2.66783 0.946569 0)
(2.69932 0.802394 0)
(2.73865 0.680691 0)
(2.79869 0.542911 0)
(2.87546 0.341105 0)
(2.96647 0.154972 0)
(3.05179 -0.00927538 0)
(3.10641 -0.123284 0)
(3.11657 -0.192044 0)
(1.12421 0.764339 0)
(1.31379 1.0094 0)
(1.53372 1.4337 0)
(1.56435 1.75584 0)
(1.72589 1.93674 0)
(1.82096 2.0044 0)
(2.02127 1.89038 0)
(2.14617 1.75558 0)
(2.23895 1.65858 0)
(2.36197 1.46513 0)
(2.47135 1.31043 0)
(2.56262 1.17314 0)
(2.64219 1.04585 0)
(2.7228 0.89555 0)
(2.80499 0.727162 0)
(2.88414 0.586733 0)
(2.97195 0.467969 0)
(3.05793 0.32388 0)
(3.11607 0.177221 0)
(3.13191 -0.00733137 0)
(1.07441 0.669635 0)
(1.32649 0.867877 0)
(1.55436 1.33732 0)
(1.60707 1.71016 0)
(1.67095 1.97382 0)
(1.69781 2.02292 0)
(1.84581 1.96212 0)
(2.05951 1.78257 0)
(2.19723 1.66539 0)
(2.36876 1.5145 0)
(2.51272 1.4103 0)
(2.64287 1.28985 0)
(2.7588 1.12238 0)
(2.85102 0.906887 0)
(2.91385 0.743455 0)
(2.97028 0.633333 0)
(3.02864 0.537153 0)
(3.07535 0.452529 0)
(3.10479 0.393363 0)
(3.12518 0.200462 0)
(1.06866 0.703281 0)
(1.36523 0.803137 0)
(1.67148 1.19918 0)
(1.74608 1.70356 0)
(1.74339 1.97655 0)
(1.85416 2.00138 0)
(1.88577 2.02979 0)
(2.1033 1.86648 0)
(2.32867 1.71447 0)
(2.55661 1.58496 0)
(2.7465 1.47415 0)
(2.88752 1.34641 0)
(2.94448 1.16784 0)