/*--------------------------------*- C++ -*----------------------------------*\
  =========                 |
  \\      /  F ield         | OpenFOAM: The Open Source CFD Toolbox
   \\    /   O peration     | Website:  https://openfoam.org
    \\  /    A nd           | Version:  7
     \\/     M anipulation  |
\*---------------------------------------------------------------------------*/
FoamFile
{
    version     2.0;
    format      ascii;
    class       volScalarField;
    location    "8.4";
    object      p;
}
// * * * * * * * * * * * * * * * * * * * * * * * * * * * * * * * * * * * * * //

dimensions      [1 -1 -2 0 0 0 0];

internalField   nonuniform List<scalar> 
3700
(
0.0925339
0.163233
0.20887
0.253894
0.294247
0.330839
0.365627
0.396245
0.41719
0.424474
0.441371
0.457688
0.476416
0.480113
0.487653
0.499462
0.501353
0.51886
0.530088
0.537031
0.0648437
0.074
0.094262
0.110805
0.117765
0.116892
0.114945
0.109078
0.0935321
0.0960511
0.108059
0.122249
0.14302
0.170549
0.199093
0.214265
0.206111
0.203622
0.209679
0.212897
0.0699296
0.0782368
0.084246
0.0769907
0.062818
0.0540982
0.0505692
0.0505321
0.0518483
0.056165
0.0641349
0.0724574
0.0833493
0.0965891
0.107627
0.114805
0.118021
0.11898
0.119486
0.12104
0.0744926
0.0787919
0.0741561
0.0649721
0.0582831
0.0581247
0.0580962
0.0597373
0.0639929
0.0744509
0.0754484
0.0813026
0.091312
0.10654
0.123452
0.140637
0.156623
0.167433
0.174137
0.175471
0.0772378
0.0732816
0.0652358
0.0602292
0.0612147
0.0649865
0.0705603
0.0821836
0.0953286
0.113274
0.108327
0.113009
0.108696
0.113123
0.127266
0.149465
0.17353
0.197645
0.219716
0.239105
0.0897427
0.0672387
0.0544199
0.0524838
0.0568039
0.0637185
0.072102
0.0897626
0.113096
0.132633
0.149062
0.164411
0.162568
0.167147
0.165998
0.17123
0.187838
0.223099
0.258722
0.315484
0.0990974
0.058224
0.0455896
0.0476639
0.0518282
0.0581372
0.0684719
0.087631
0.117087
0.144514
0.174895
0.194413
0.217938
0.238863
0.248641
0.256679
0.267753
0.282821
0.311896
0.39782
0.0968399
0.0509319
0.0421962
0.0474063
0.052651
0.0586261
0.0692617
0.0869319
0.112778
0.144642
0.185518
0.214946
0.257695
0.292869
0.32752
0.360521
0.388681
0.412963
0.438254
0.535647
0.0914828
0.0476101
0.04308
0.0545854
0.0648844
0.0763259
0.0964912
0.12096
0.141237
0.158583
0.190425
0.230268
0.288243
0.340046
0.394874
0.455645
0.511967
0.568952
0.607194
0.730881
0.0826999
0.0445828
0.0458501
0.0607247
0.0741075
0.0969445
0.140704
0.180477
0.213504
0.250335
0.283004
0.321831
0.367358
0.421945
0.481369
0.560436
0.654958
0.747925
0.838931
0.961444
0.0653705
0.0384844
0.041501
0.0532953
0.0720179
0.100721
0.1634
0.216312
0.2776
0.358669
0.423422
0.490207
0.555267
0.620635
0.674429
0.745667
0.848684
0.964339
1.16742
1.14939
0.0478486
0.0295771
0.0295459
0.0430972
0.0647233
0.0969837
0.163717
0.221511
0.308241
0.438396
0.547096
0.656346
0.765369
0.861009
0.958845
1.06857
1.18719
1.31274
1.53963
1.51057
0.0338632
0.0213165
0.0211599
0.0400384
0.0635433
0.10284
0.167855
0.243639
0.385797
0.552928
0.720327
0.872749
1.02658
1.16014
1.32457
1.49957
1.67271
1.836
2.09078
2.07923
0.0248302
0.0159305
0.0168456
0.0376592
0.0758878
0.215741
0.361665
0.53542
0.761844
0.969163
1.15471
1.31415
1.47796
1.63874
1.8523
2.09254
2.33907
2.58964
2.79492
3.00351
0.0172032
0.0137147
0.0151159
0.0616424
0.195119
0.44706
0.673384
0.940763
1.25498
1.55395
1.77679
1.98158
2.19179
2.41868
2.70762
2.99041
3.27106
3.51054
3.65344
3.77704
0.00743326
0.0158046
0.0391932
0.18536
0.454464
0.741877
1.06038
1.45878
1.90732
2.30053
2.58843
2.85623
3.1226
3.4182
3.74351
3.9692
4.1045
4.14196
4.04781
3.91761
0.00605904
0.0376705
0.164743
0.425249
0.896807
1.41681
1.95609
2.5203
3.13448
3.54286
3.78651
4.00895
4.20229
4.35904
4.46346
4.3928
4.17963
3.65093
2.79741
1.89544
0.0388578
0.172996
0.545432
1.17702
2.03035
2.86331
3.56895
4.26555
4.78265
4.85509
4.77972
4.74631
4.69205
4.52103
4.0188
3.06685
2.09221
1.33299
1.01855
0.992865
0.304766
0.853662
1.91807
3.14046
4.24056
4.89317
5.43476
5.87401
5.73528
5.29404
4.86819
4.33466
3.41379
2.33655
1.42947
1.03034
0.989453
0.99495
0.997325
0.999436
2.31331
3.6329
4.88864
5.71551
6.26676
6.42742
6.56575
6.2347
4.53393
3.19696
2.36071
1.55835
1.07975
0.987248
0.992861
0.996328
0.999191
0.999977
1.00002
1.00001
6.95087
6.89739
6.85651
6.91229
7.02422
6.77274
5.99741
2.32899
0.651179
1
1
1
1
1
1
1
1
1
1
1
6.95226
6.88394
6.79532
6.73723
6.71171
5.76121
2.70447
1.03296
1
1
1
1
1
1
1
1
1
1
1
1
6.7956
6.84226
6.83316
6.71037
6.2931
3.38765
1.03752
0.99915
1
1
1
1
1
1
1
1
1
1
1
1
6.65989
6.79236
6.82481
6.6723
4.69628
1.38182
0.994114
1.00012
0.999999
1
1
1
1
1
1
1
1
1
1
1
6.55786
6.78118
6.79309
6.03921
2.68517
0.976077
1.00035
0.999994
1
1
1
1
1
1
1
1
1
1
1
1
6.47427
6.82153
6.77103
4.94073
1.49804
1
1
1
1
1
1
1
1
1
1
1
1
1
1
1
6.41727
6.74988
6.74566
3.56179
0.973079
1
1
1
1
1
1
1
1
1
1
1
1
1
1
1
6.46742
6.62404
6.01094
2.0423
0.999997
1
1
1
1
1
1
1
1
1
1
1
1
1
1
1
6.97416
6.63133
4.87046
1.21498
1
1
1
1
1
1
1
1
1
1
1
1
1
1
1
1
7.29386
6.42445
3.40869
0.98793
1
1
1
1
1
1
1
1
1
1
1
1
1
1
1
1
7.44371
5.95507
2.30494
1
1
1
1
1
1
1
1
1
1
1
1
1
1
1
1
1
7.50385
5.39127
1.60578
1
1
1
1
1
1
1
1
1
1
1
1
1
1
1
1
1
7.52214
4.76579
1.17881
1
1
1
1
1
1
1
1
1
1
1
1
1
1
1
1
1
7.34492
4.03442
1.02101
1
1
1
1
1
1
1
1
1
1
1
1
1
1
1
1
1
7.23594
3.20319
1
1
1
1
1
1
1
1
1
1
1
1
1
1
1
1
1
1
6.96286
2.47047
1
1
1
1
1
1
1
1
1
1
1
1
1
1
1
1
1
1
6.61194
1.89531
1
1
1
1
1
1
1
1
1
1
1
1
1
1
1
1
1
1
6.35592
1.38338
1
1
1
1
1
1
1
1
1
1
1
1
1
1
1
1
1
1
5.71393
1.00638
1
1
1
1
1
1
1
1
1
1
1
1
1
1
1
1
1
1
4.6353
1.00006
1
1
1
1
1
1
1
1
1
1
1
1
1
1
1
1
1
1
4.63885
1.00006
1
1
1
1
1
1
1
1
1
1
1
1
1
1
1
1
1
1
5.69327
1.00628
1
1
1
1
1
1
1
1
1
1
1
1
1
1
1
1
1
1
6.36735
1.38412
1
1
1
1
1
1
1
1
1
1
1
1
1
1
1
1
1
1
6.62167
1.91161
1
1
1
1
1
1
1
1
1
1
1
1
1
1
1
1
1
1
6.92823
2.4733
1
1
1
1
1
1
1
1
1
1
1
1
1
1
1
1
1
1
7.26167
3.18108
1
1
1
1
1
1
1
1
1
1
1
1
1
1
1
1
1
1
7.35145
4.0305
1.02065
1
1
1
1
1
1
1
1
1
1
1
1
1
1
1
1
1
7.51054
4.76486
1.18248
1
1
1
1
1
1
1
1
1
1
1
1
1
1
1
1
1
7.49482
5.40436
1.60905
1
1
1
1
1
1
1
1
1
1
1
1
1
1
1
1
1
7.43636
5.95464
2.31557
1
1
1
1
1
1
1
1
1
1
1
1
1
1
1
1
1
7.28985
6.41675
3.41519
0.988005
1
1
1
1
1
1
1
1
1
1
1
1
1
1
1
1
6.98581
6.65189
4.8751
1.20416
1
1
1
1
1
1
1
1
1
1
1
1
1
1
1
1
6.45606
6.6154
6.00537
2.05313
0.999999
1
1
1
1
1
1
1
1
1
1
1
1
1
1
1
6.40057
6.7118
6.74115
3.55585
0.973053
1
1
1
1
1
1
1
1
1
1
1
1
1
1
1
6.47007
6.83307
6.78494
4.95774
1.48876
1
1
1
1
1
1
1
1
1
1
1
1
1
1
1
6.5688
6.80291
6.79585
6.0145
2.70779
0.975789
1.00035
0.999994
1
1
1
1
1
1
1
1
1
1
1
1
6.67105
6.80386
6.82697
6.65797
4.69044
1.37497
0.994413
1.00011
0.999999
1
1
1
1
1
1
1
1
1
1
1
6.79415
6.83847
6.83726
6.71987
6.32826
3.36483
1.03191
0.999309
1
1
1
1
1
1
1
1
1
1
1
1
6.95155
6.88751
6.80899
6.73943
6.69022
5.75833
2.70169
1.03369
1
1
1
1
1
1
1
1
1
1
1
1
6.95423
6.90247
6.86458
6.90126
6.99807
6.76719
6.00532
2.35962
0.644142
1
1
1
1
1
1
1
1
1
1
1
2.31392
3.634
4.89539
5.71241
6.25014
6.42266
6.56331
6.24144
4.54069
3.20043
2.35988
1.55498
1.07789
0.987126
0.992804
0.996286
0.99918
0.999976
1.00002
1.00001
0.307191
0.857008
1.92606
3.1472
4.23838
4.88938
5.43392
5.87324
5.7321
5.28947
4.86494
4.33303
3.41357
2.3374
1.42955
1.0303
0.989464
0.994962
0.997332
0.999438
0.0359773
0.169395
0.540089
1.177
2.03449
2.86818
3.5679
4.26261
4.77793
4.851
4.77903
4.75129
4.69842
4.52359
4.01688
3.06446
2.09043
1.33199
1.01832
0.992863
0.0057533
0.0333851
0.162803
0.417833
0.893815
1.41736
1.9638
2.52685
3.13277
3.53509
3.78637
4.0157
4.20904
4.36061
4.46246
4.39186
4.17881
3.64973
2.79645
1.89521
0.00724528
0.0148372
0.0401894
0.183412
0.452465
0.746268
1.06604
1.4595
1.90417
2.29731
2.59191
2.86296
3.12637
3.41793
3.74169
3.9679
4.1042
4.14232
4.04811
3.91819
0.0163267
0.0135995
0.0155091
0.0641703
0.192486
0.445022
0.666865
0.937054
1.25471
1.557
1.78256
1.98716
2.19479
2.41973
2.70828
2.99117
3.27187
3.51168
3.65452
3.77756
0.0241612
0.0157152
0.0169369
0.0388482
0.0735383
0.211018
0.357637
0.533403
0.76108
0.968541
1.15431
1.31368
1.47788
1.63972
1.85409
2.09438
2.34044
2.59054
2.79558
3.00385
0.03333
0.0205391
0.020186
0.0405221
0.0626154
0.101483
0.168494
0.241487
0.38233
0.549203
0.71666
0.868931
1.02352
1.15791
1.32325
1.49847
1.67153
1.83506
2.09089
2.0795
0.0468419
0.0289706
0.0288226
0.0438735
0.064723
0.0960098
0.16379
0.221428
0.30989
0.438763
0.546202
0.654369
0.763372
0.859084
0.956717
1.06575
1.18413
1.31065
1.53901
1.51057
0.063986
0.038922
0.0430124
0.0550928
0.0739899
0.100103
0.163268
0.218204
0.279416
0.359328
0.423573
0.490368
0.55498
0.620155
0.673568
0.744318
0.846859
0.96302
1.16728
1.14889
0.08134
0.0460489
0.0489002
0.0622346
0.0770184
0.0965113
0.140208
0.182963
0.213509
0.250453
0.282755
0.321982
0.368278
0.423142
0.481694
0.559641
0.654072
0.747582
0.839289
0.961653
0.093086
0.0500676
0.0447566
0.0549513
0.0669809
0.0770085
0.0974854
0.124217
0.139578
0.156679
0.189554
0.23095
0.289156
0.340409
0.394549
0.455304
0.51218
0.569823
0.608307
0.732883
0.100359
0.0541457
0.043458
0.0470622
0.0530964
0.0591797
0.0683531
0.0865934
0.111419
0.142636
0.185735
0.215961
0.258341
0.293004
0.327393
0.360553
0.389261
0.414246
0.439836
0.538297
0.104458
0.0621113
0.0469718
0.0475513
0.0517471
0.0587952
0.0657308
0.0842203
0.115887
0.145264
0.176365
0.195162
0.218364
0.23878
0.249123
0.257953
0.270053
0.285453
0.313364
0.398141
0.0962287
0.0697375
0.055973
0.0523417
0.0566821
0.0641892
0.0692804
0.0862402
0.115056
0.135561
0.150847
0.164575
0.162863
0.167489
0.168011
0.174303
0.190207
0.223535
0.258267
0.31491
0.0847204
0.0753525
0.0668837
0.0606634
0.0633123
0.0672661
0.0688945
0.0811646
0.0987015
0.114996
0.109084
0.112466
0.10753
0.112929
0.128599
0.150717
0.173325
0.196616
0.218989
0.238822
0.0771319
0.0792686
0.0815518
0.0734258
0.0653244
0.0635755
0.0642243
0.0629795
0.0649409
0.0728383
0.0706129
0.0766516
0.0888164
0.105826
0.122839
0.139694
0.155236
0.167001
0.174881
0.176361
0.0657986
0.0769312
0.0865989
0.0862256
0.0770979
0.0643721
0.055345
0.0516817
0.052238
0.0545939
0.0611285
0.0698159
0.0811625
0.0946353
0.105341
0.112693
0.116953
0.119381
0.120844
0.123135
0.0673028
0.0902331
0.116501
0.148167
0.172124
0.176289
0.177015
0.185897
0.191757
0.181531
0.167794
0.162878
0.166358
0.170323
0.174343
0.184779
0.204933
0.216347
0.208477
0.185899
0.0995206
0.197439
0.226931
0.282216
0.328492
0.369593
0.405939
0.438975
0.470154
0.471398
0.470882
0.475366
0.480799
0.473424
0.470613
0.487177
0.501991
0.519453
0.518473
0.510673
0.560618
0.644703
0.707592
0.787235
0.829853
0.88492
0.886033
0.882361
0.868183
0.869884
0.892836
0.949646
0.978024
0.971449
0.941873
0.930588
0.937229
0.95862
0.967754
0.961421
0.286128
0.416107
0.559156
0.675101
0.758608
0.843196
0.864047
0.886051
0.883174
0.88894
0.90274
0.934365
0.955682
0.955285
0.946767
0.941384
0.945167
0.952603
0.954225
0.953425
0.136039
0.161602
0.244883
0.354988
0.513011
0.680816
0.777366
0.858979
0.898061
0.911777
0.917582
0.925566
0.93372
0.943496
0.954993
0.961343
0.963291
0.958967
0.94935
0.950473
0.185834
0.2147
0.231081
0.237025
0.251206
0.315788
0.506792
0.724131
0.837689
0.913327
0.930312
0.912805
0.907896
0.924297
0.953501
0.969942
0.970285
0.959814
0.944503
0.949146
0.236018
0.256803
0.285722
0.297343
0.286932
0.280362
0.295313
0.387277
0.625325
0.839793
0.894067
0.894765
0.889755
0.910044
0.951259
0.97843
0.976602
0.959885
0.944053
0.951929
0.310654
0.322362
0.344621
0.341875
0.316912
0.311938
0.317737
0.324012
0.370791
0.534276
0.750392
0.878212
0.878726
0.898315
0.941017
0.971211
0.971743
0.95727
0.948479
0.959751
0.395455
0.397212
0.41096
0.405996
0.374071
0.362258
0.367419
0.366409
0.370332
0.384651
0.467495
0.680007
0.861083
0.900618
0.920457
0.953856
0.957264
0.94489
0.95121
0.966304
0.512424
0.481821
0.481302
0.476059
0.432933
0.399457
0.400002
0.395179
0.386862
0.390304
0.3978
0.44641
0.655875
0.854897
0.898482
0.944478
0.935338
0.933694
0.957681
0.968469
0.675656
0.591739
0.541151
0.539951
0.501924
0.454037
0.443979
0.433648
0.422374
0.419256
0.40892
0.414648
0.456414
0.645529
0.850327
0.937745
0.906166
0.921515
0.967128
0.967659
0.880345
0.732849
0.62803
0.615695
0.588966
0.535819
0.500416
0.472049
0.447781
0.448295
0.444059
0.434857
0.440832
0.469045
0.616784
0.822298
0.864183
0.923764
0.97327
0.963536
1.28597
0.988842
0.723601
0.662093
0.662107
0.649292
0.623113
0.569478
0.517949
0.49635
0.490861
0.482317
0.477585
0.468139
0.479472
0.56044
0.743204
0.883806
0.939922
0.954015
2.01782
1.54598
1.15064
0.902842
0.810201
0.790699
0.757839
0.681605
0.596493
0.548109
0.533767
0.5351
0.53232
0.51889
0.497153
0.495014
0.532261
0.643316
0.785538
0.910102
2.50023
2.16519
1.74305
1.34309
1.07806
0.914142
0.836506
0.782202
0.707714
0.670018
0.652581
0.626978
0.605895
0.580427
0.551464
0.52996
0.534783
0.53983
0.573359
0.742911
2.3657
2.34733
2.24201
1.93365
1.5826
1.25336
1.04318
0.971091
0.906102
0.837572
0.76908
0.699972
0.647463
0.619144
0.594737
0.585528
0.573436
0.557866
0.542836
0.578352
1.68383
2.14601
2.22337
2.19028
2.05837
1.79545
1.47421
1.23565
1.08207
0.9556
0.876068
0.797215
0.73626
0.703553
0.685605
0.672809
0.654283
0.617929
0.566442
0.57057
1.10861
1.44054
1.8455
2.11156
2.11148
2.0765
1.93566
1.69013
1.43344
1.20844
1.08813
0.997385
0.917564
0.855761
0.791979
0.737522
0.702184
0.663342
0.625678
0.605389
1.00449
1.0449
1.20522
1.54753
1.86067
2.0197
2.01428
1.96968
1.83667
1.62201
1.39486
1.22213
1.07943
0.978269
0.8911
0.802434
0.765941
0.752889
0.738035
0.694941
1.00009
1.00112
1.0107
1.07649
1.26814
1.57389
1.82499
1.93414
1.92765
1.88682
1.76572
1.58424
1.38211
1.21318
1.10267
0.999509
0.919895
0.882535
0.841298
0.763345
1
1.00001
1.00015
1.00236
1.01914
1.10106
1.29126
1.55473
1.77145
1.85686
1.85078
1.81579
1.71748
1.54842
1.38138
1.23089
1.09445
0.994305
0.9248
0.834717
1
1
1
1.00003
1.00034
1.00383
1.02516
1.10718
1.28587
1.51737
1.70746
1.79031
1.78546
1.75622
1.67592
1.53966
1.38475
1.22848
1.12081
0.997801
1
1
1
1
1
1.00004
1.00051
1.00458
1.02597
1.10682
1.26534
1.47312
1.63553
1.72846
1.72569
1.70533
1.64667
1.5299
1.39616
1.19605
1
1
1
1
1
1
1
1.00006
1.00056
1.00511
1.02425
1.09637
1.23267
1.42768
1.56809
1.66541
1.66559
1.65434
1.61828
1.46618
1
1
1
1
1
1
1
1
1.00001
1.00007
1.00052
1.00459
1.02173
1.07919
1.19945
1.37253
1.51344
1.59553
1.61224
1.59102
1
1
1
1
1
1
1
1
1
1
1.00001
1.00006
1.00049
1.00333
1.01857
1.06318
1.16395
1.31487
1.44456
1.54848
1
1
1
1
1
1
1
1
1
1
1
1
1
1.00005
1.00043
1.00253
1.01413
1.05149
1.13661
1.38815
1.61569
2.46365
2.58565
2.08578
1.30962
1.03689
1.00187
1.00005
1
1
1
1
1
1
1
2.34809
2.8148
2.52787
1.54049
1.04816
1.00081
1
1
1
1
1
1
1
1
1
2.92996
2.87039
1.98073
1.15298
1.00526
1.00005
1
1
1
1
1
1
1
1
1
3.2533
2.55715
1.36561
1.0193
1.00018
1
1
1
1
1
1
1
1
1
1
3.31722
1.68359
1.04731
1.00051
1
1
1
1
1
1
1
1
1
1
1
2.06718
1.0729
1.00048
0.999999
1
1
1
1
1
1
1
1
1
1
1
1.10267
1.00056
0.999997
1
1
1
1
1
1
1
1
1
1
1
1
0.998142
0.999865
0.999996
1
1
1
1
1
1
1
1
1
1
1
1
0.999966
1
1
1
1
1
1
1
1
1
1
1
1
1
1
1
1
1
1
1
1
1
1
1
1
1
1
1
1
1
1
1
1
1
1
1
1
1
1
1
1
1
1
1
1
1
1
1
1
1
1
1
1
1
1
1
1
1
1
1
1
1
1
1
1
1
1
1
1
1
1
1
1
1
1
1
1
1
1
1
1
1
1
1
1
1
1
1
1
1
1
1
1
1
1
1
1
1
1
1
1
1
1
1
1
1
1
1
1
1
1
1
1
1
1
1
1
1
1
1
1
1
1
1
1
1
1
1
1
1
1
1
1
1
1
1
1
1
1
1
1
1
1
1
1
1
1
1
1
1
1
1
1
1
1
1
1
1
1
1
1
1
1
1
1
1
1
1
1
1
1
1
1
1
1
1
1
1
1
1
1
1
1
1
1
1
1
1
1
1
1
1
1
1
1
1
1
1
1
1
1
1
1
1
1
1
1
1
1
1
1
1
1
1
1
1
1
1
1
1
1
1
1
1
1
1
1
1
1
1
1
1
1
1
1
1
1
1
1
1
1
1
1
1
1
1
1
1
1
1
1
1
1
1
1
1
1
1
1
1
1
1
1
1
1
1
1
1
1
1
1
1
1
1
1
1
1
1
1
1
1
1
1
1
1
1
1
1
1
1
1
1
1
1
1
1
1
1
1
1
1
1
1
1
1
1
1
1
1
1
1
1
1
1
1
1
1
1
1
1
1
1
1
1
1
1
1
1
1
1
1
1
1
1
1
1
1
1
1
1
1
1
1
1
1
1
1
1
1
1
1
1
1
1
1
1
1
1
1
1
1
1
1
1
1
1
1
1
1
1
1
1
1
1
1
1
1
1
1
1
1
1
1
1
1
1
1
1
1
1
1
1
1
1
1
1
1
1
1
1
1
1
1
1
1
1
1
1
1
1
1
1
1
1
1
1
1
1
1
1
1
1
1
1
1
1
1
1
1
1
1
1
1
1
1
1
1
1
1
1
1
1
1
1
1
1
1
1
1
1
1
1
1
1
1
1
1
1
1
1
1
1
1
1
1
1
1
1
1
1
1
1
1
1
1
1
1
1
1
1
1
1
1
1
1
1
1
1
1
1
1
1
1
1
1
1
1
1
1
1
1
1
1
1
1
1
1
1
1
1
1
1
1
1
1
1
1
1
1
1
1
1
1
1
1
1
1
1
1
1
1
1
1
1
1
1
1
1
1
1
1
1
1
1
1
1
1
1
1
1
1
1
1
1
1
1
1
1
1
1
1
1
1
1
1
1
1
1
1
1
1
1
1
1
1
1
1
1
1
1
1
1
1
1
1
1
1
1
1
1
1
1
1
1
1
1
1
1
1
1
1
1
1
1
1
1
1
1
1
1
1
1
1
1
1
1
1
1
1
1
1
1
1
1
1
1
1
1
1
1
1
1
1
1
1
1
1
1
1
1
1
1
1
1
1
1
1
1
1
1
1
1
1
1
1
1
1
1
1
1
1
1
1
1
1
1
1
1
1
1
1
1
1
1
1
1
1
1
1
1
1
1
1
1
1
1
1
1
1
1
1
1
1
1
1
1
1
1
1
1
1
1
1
1
1
1
1
1
1
1
1
1
1
1
1
1
1
1
1
1
1
1
1
1
1
1
1
1
1
1
1
1
1
1
1
1
1
1
1
1
1
1
1
1
1
1
1
1
1
1
1
1
1
1
1
1
1
1
1
1
1
1
1
1
1
1
1
1
1
1
1
1
1
1
1
1
1
1
1
1
1
1
1
1
1
1
1
1
1
1
1
1
1
1
1
1
1
1
1
1
1
1
1
1
1
1
1
1
1
1
1
1
1
1
1
1
1
1
1
1
1
1
1
1
1
1
1
1
1
1
1
1
1
1
1
1
1
1
1
1
1
1
1
1
1
0.999966
1
1
1
1
1
1
1
1
1
1
1
1
1
1
0.998141
0.999865
0.999996
1
1
1
1
1
1
1
1
1
1
1
1
1.10269
1.00056
0.999997
1
1
1
1
1
1
1
1
1
1
1
1
2.0674
1.0729
1.00048
0.999999
1
1
1
1
1
1
1
1
1
1
1
3.3175
1.68358
1.0473
1.00051
1
1
1
1
1
1
1
1
1
1
1
3.2535
2.55749
1.36572
1.01931
1.00018
1
1
1
1
1
1
1
1
1
1
2.93011
2.87036
1.98119
1.15315
1.00527
1.00005
1
1
1
1
1
1
1
1
1
2.34791
2.81468
2.52782
1.54082
1.04824
1.00081
1
1
1
1
1
1
1
1
1
1.6152
2.46335
2.5854
2.08552
1.3096
1.03686
1.00187
1.00005
1
1
1
1
1
1
1
1.287
2.02078
2.50068
2.36629
1.68293
1.10847
1.00448
1.00009
1
1
1
1
1
1
1
0.984614
1.53993
2.16778
2.34812
2.14867
1.44055
1.04485
1.00112
1.00001
1
1
1
1
1
1
0.731384
1.1666
1.74021
2.23742
2.22249
1.84646
1.20556
1.0107
1.00015
1
1
1
1
1
1
0.658499
0.898016
1.34594
1.93756
2.18942
2.11214
1.5485
1.07678
1.00237
1.00003
1
1
1
1
1
0.666861
0.813793
1.07164
1.5851
2.06094
2.11207
1.86116
1.26848
1.01916
1.00034
1
1
1
1
1
0.657224
0.802536
0.909519
1.22615
1.79535
2.07786
2.01994
1.57371
1.10091
1.00383
1.00004
1
1
1
1
0.625674
0.762312
0.850101
1.05046
1.46455
1.93366
2.01493
1.82538
1.29135
1.02506
1.00051
1
1
1
1
0.565567
0.671919
0.790374
0.987326
1.24524
1.68891
1.96834
1.93384
1.55503
1.10757
1.0046
1.00006
1
1
1
0.514331
0.584145
0.702931
0.90859
1.08336
1.43686
1.8384
1.92768
1.77132
1.28589
1.02603
1.00056
1.00001
1
1
0.501416
0.552303
0.672371
0.83306
0.949794
1.21275
1.62179
1.88679
1.85737
1.51812
1.10651
1.00506
1.00007
1
1
0.495163
0.537862
0.655039
0.773742
0.868554
1.07583
1.39362
1.76683
1.85128
1.70694
1.26541
1.02435
1.00053
1.00001
1
0.48513
0.534323
0.624811
0.707233
0.793503
0.988666
1.21972
1.58248
1.8156
1.78978
1.47279
1.0964
1.0046
1.00006
1
0.480991
0.526813
0.596346
0.651194
0.745213
0.918887
1.08081
1.38078
1.71648
1.78521
1.63653
1.2326
1.02161
1.00049
1
0.474172
0.513865
0.572827
0.617691
0.709559
0.857628
0.979778
1.2173
1.54997
1.75634
1.72847
1.42799
1.07942
1.00333
1.00005
0.483401
0.495728
0.548448
0.596833
0.691896
0.793185
0.886097
1.1007
1.38239
1.67732
1.72573
1.56822
1.19984
1.01863
1.00043
0.56701
0.495301
0.525092
0.586137
0.678328
0.740249
0.802812
0.995807
1.22835
1.54083
1.7054
1.66611
1.37236
1.06305
1.00252
0.752516
0.532926
0.529047
0.568678
0.654869
0.699582
0.769922
0.926401
1.09571
1.3843
1.64675
1.66616
1.51322
1.16354
1.01407
0.89196
0.648449
0.537531
0.552055
0.616628
0.65611
0.747597
0.886116
0.996676
1.22944
1.53059
1.65486
1.5958
1.31508
1.05156
0.942352
0.791927
0.575357
0.54217
0.565514
0.624676
0.733072
0.839643
0.924366
1.12219
1.39675
1.61855
1.61262
1.44484
1.13687
0.953119
0.912118
0.745051
0.57731
0.570148
0.608034
0.695219
0.761197
0.832963
0.997978
1.19572
1.46604
1.59111
1.54839
1.38809
0.878347
0.735637
0.6277
0.609138
0.577464
0.516453
0.489212
0.459732
0.441405
0.446238
0.442484
0.438516
0.445129
0.468175
0.614543
0.826486
0.871783
0.932027
0.974998
0.962653
0.668642
0.587755
0.546151
0.53833
0.497135
0.450019
0.433465
0.416941
0.414835
0.42113
0.417327
0.420801
0.456766
0.629912
0.844533
0.936386
0.909633
0.924723
0.966205
0.965084
0.504895
0.482337
0.485078
0.475784
0.430117
0.407485
0.397115
0.394464
0.387477
0.395825
0.400553
0.445984
0.647747
0.847708
0.898192
0.947256
0.937371
0.934582
0.9557
0.96562
0.395209
0.402214
0.407316
0.397521
0.36262
0.358116
0.358823
0.361105
0.370176
0.385688
0.465611
0.68171
0.844851
0.884105
0.909376
0.953221
0.955131
0.943619
0.948792
0.962671
0.312412
0.316264
0.349165
0.347716
0.324364
0.315328
0.316154
0.323053
0.369593
0.527502
0.736654
0.865564
0.864157
0.889662
0.933939
0.965756
0.966693
0.953615
0.947185
0.956823
0.236467
0.256643
0.279189
0.294536
0.284419
0.279434
0.29842
0.397919
0.625885
0.836471
0.894231
0.888639
0.889644
0.913073
0.953
0.97109
0.971031
0.95828
0.94692
0.954023
0.185383
0.216151
0.240646
0.240487
0.2495
0.320627
0.524155
0.735657
0.835718
0.907269
0.93427
0.916715
0.917078
0.933676
0.958642
0.964399
0.966833
0.960708
0.951803
0.95526
0.136214
0.160358
0.234071
0.339269
0.513842
0.692998
0.782847
0.857071
0.896936
0.905572
0.917696
0.930569
0.944569
0.956882
0.960075
0.960487
0.961371
0.959759
0.954874
0.95637
0.277721
0.414137
0.541627
0.666637
0.762953
0.846844
0.867776
0.884413
0.88016
0.882337
0.901535
0.943085
0.970371
0.97125
0.955847
0.945337
0.947813
0.961593
0.967508
0.963763
0.56055
0.643978
0.702352
0.784325
0.830578
0.875093
0.879313
0.871563
0.857976
0.862715
0.894859
0.951304
0.980934
0.972065
0.941351
0.930005
0.937418
0.96291
0.974448
0.965651
)
;

boundaryField
{
    inlet
    {
        type            fixedValue;
        value           uniform 1;
    }
    outlet
    {
        type            zeroGradient;
    }
    airfoil
    {
        type            zeroGradient;
    }
    top
    {
        type            symmetryPlane;
    }
    bottom
    {
        type            symmetryPlane;
    }
    defaultFaces
    {
        type            empty;
    }
}


// ************************************************************************* //
