/*--------------------------------*- C++ -*----------------------------------*\
  =========                 |
  \\      /  F ield         | OpenFOAM: The Open Source CFD Toolbox
   \\    /   O peration     | Website:  https://openfoam.org
    \\  /    A nd           | Version:  7
     \\/     M anipulation  |
\*---------------------------------------------------------------------------*/
FoamFile
{
    version     2.0;
    format      ascii;
    class       volScalarField;
    location    "5.6";
    object      p;
}
// * * * * * * * * * * * * * * * * * * * * * * * * * * * * * * * * * * * * * //

dimensions      [1 -1 -2 0 0 0 0];

internalField   nonuniform List<scalar> 
3700
(
0.105244
0.181746
0.236384
0.287409
0.323414
0.369419
0.424807
0.442891
0.443101
0.439143
0.460375
0.464801
0.479584
0.49455
0.482805
0.480031
0.508452
0.51763
0.527329
0.520994
0.0630411
0.0837077
0.113203
0.13668
0.141415
0.151607
0.160543
0.157326
0.138277
0.114187
0.126589
0.151378
0.184608
0.212896
0.213122
0.205524
0.209039
0.217748
0.227363
0.213938
0.0553094
0.0717688
0.0852101
0.0819586
0.0692247
0.0550829
0.0479267
0.0479521
0.0517717
0.056354
0.0650935
0.0734158
0.0839739
0.096972
0.10803
0.11552
0.119781
0.121244
0.121315
0.122361
0.0594055
0.0741448
0.0760342
0.0692684
0.0575205
0.0539897
0.0526213
0.0547961
0.0601048
0.0693952
0.0722973
0.0795065
0.0904783
0.106246
0.123316
0.141519
0.159505
0.170863
0.177231
0.177705
0.0612826
0.0695941
0.0680219
0.0623924
0.0578636
0.0651208
0.0685139
0.078428
0.0928601
0.107826
0.10214
0.106349
0.104475
0.110688
0.126422
0.149828
0.175622
0.200768
0.224123
0.242048
0.0636343
0.0689127
0.0661796
0.0596035
0.0568339
0.0676911
0.0749875
0.0915851
0.115686
0.131153
0.144944
0.15863
0.155656
0.15971
0.159968
0.166647
0.186384
0.224263
0.2619
0.317961
0.0728895
0.0664711
0.0627515
0.053572
0.0530717
0.0642881
0.0730153
0.0937504
0.122994
0.148259
0.175969
0.193715
0.214905
0.233641
0.241303
0.24862
0.258716
0.274795
0.308625
0.395513
0.0854911
0.0613653
0.0527828
0.0506136
0.05283
0.06343
0.0727761
0.0916298
0.119083
0.152193
0.191882
0.220449
0.261638
0.294366
0.326019
0.356249
0.38276
0.407388
0.433337
0.527521
0.0855051
0.0517542
0.0464554
0.0528802
0.0679899
0.081732
0.0966835
0.121156
0.138077
0.161421
0.20014
0.241178
0.29863
0.348578
0.400425
0.457044
0.511196
0.567552
0.604661
0.72815
0.0790918
0.0440711
0.0460231
0.0614101
0.0800902
0.102753
0.139641
0.181708
0.214699
0.250105
0.282245
0.323009
0.37243
0.429348
0.489256
0.565948
0.657859
0.749319
0.838687
0.962082
0.0708406
0.0395947
0.0448844
0.0599749
0.0776462
0.10888
0.166323
0.218822
0.281531
0.360285
0.423356
0.48931
0.554425
0.621353
0.676592
0.747593
0.849776
0.964482
1.1685
1.15222
0.0608182
0.0340957
0.0345018
0.0465935
0.0638489
0.103921
0.17044
0.225451
0.312301
0.438874
0.546003
0.654963
0.765925
0.86502
0.963347
1.07094
1.18494
1.30587
1.53418
1.51021
0.0452746
0.0258628
0.0255734
0.0390993
0.0607864
0.103524
0.166627
0.241721
0.375958
0.540269
0.707162
0.863456
1.02269
1.16276
1.33217
1.50795
1.67578
1.83138
2.08066
2.06624
0.0300144
0.0192835
0.0195975
0.0360599
0.0649153
0.19255
0.336675
0.51861
0.74543
0.951697
1.13583
1.29738
1.46486
1.63123
1.85546
2.10594
2.3501
2.59178
2.78743
2.9937
0.0196633
0.0156075
0.0172723
0.0411849
0.153173
0.430938
0.674698
0.948135
1.26126
1.55332
1.77186
1.97662
2.18953
2.41675
2.71238
3.00187
3.27999
3.50739
3.64381
3.76926
0.0135178
0.015617
0.0244585
0.140842
0.423761
0.741411
1.09121
1.49258
1.93189
2.30618
2.58178
2.85494
3.1316
3.43423
3.76326
3.98705
4.10948
4.13724
4.04041
3.90814
0.00897031
0.0204521
0.134889
0.43433
0.923556
1.4341
1.95318
2.52209
3.14276
3.5356
3.76218
3.99786
4.20713
4.38272
4.47935
4.4042
4.18491
3.6477
2.78801
1.88781
0.0244381
0.14004
0.542377
1.21971
2.0656
2.86885
3.55809
4.25704
4.78242
4.84492
4.74133
4.73979
4.70026
4.53974
4.03421
3.0753
2.09298
1.33042
1.01756
0.992887
0.31522
0.891022
1.98773
3.20593
4.2173
4.84545
5.40761
5.88658
5.75249
5.30211
4.86109
4.31344
3.39466
2.32622
1.42488
1.02895
0.98939
0.994948
0.99733
0.999445
2.3171
3.63805
4.89465
5.71989
6.23384
6.44208
6.58324
6.2403
4.54573
3.20558
2.36718
1.56644
1.08356
0.987649
0.993053
0.996334
0.999162
0.999972
1.00002
1.00001
6.96335
6.9188
6.86539
6.92604
7.05125
6.78224
5.98998
2.20505
0.672689
1
1
1
1
1
1
1
1
1
1
1
6.89969
6.8702
6.76532
6.69832
6.92382
5.73391
2.59991
1.01314
1
1
1
1
1
1
1
1
1
1
1
1
6.78469
6.84869
6.76643
6.58033
6.29342
3.47678
1.06243
0.998798
1
1
1
1
1
1
1
1
1
1
1
1
6.65795
6.84185
6.85523
6.57992
4.7293
1.48006
0.992446
1.00013
0.999999
1
1
1
1
1
1
1
1
1
1
1
6.50292
6.80188
6.84773
6.29787
2.65834
0.975549
1.00037
0.999994
1
1
1
1
1
1
1
1
1
1
1
1
6.40981
6.71504
6.72049
4.87185
1.39674
1
1
1
1
1
1
1
1
1
1
1
1
1
1
1
6.37992
6.69103
6.5881
3.58496
1.00178
1
1
1
1
1
1
1
1
1
1
1
1
1
1
1
6.52362
6.74078
6.15946
2.03329
0.999539
1
1
1
1
1
1
1
1
1
1
1
1
1
1
1
6.95549
6.63681
4.8657
1.21043
1
1
1
1
1
1
1
1
1
1
1
1
1
1
1
1
7.26628
6.3767
3.47177
0.987473
1
1
1
1
1
1
1
1
1
1
1
1
1
1
1
1
7.46283
6.03344
2.27016
1
1
1
1
1
1
1
1
1
1
1
1
1
1
1
1
1
7.5239
5.35936
1.6009
1
1
1
1
1
1
1
1
1
1
1
1
1
1
1
1
1
7.57086
4.71855
1.15603
1
1
1
1
1
1
1
1
1
1
1
1
1
1
1
1
1
7.36073
3.98376
1.00007
1
1
1
1
1
1
1
1
1
1
1
1
1
1
1
1
1
7.11616
3.29615
1
1
1
1
1
1
1
1
1
1
1
1
1
1
1
1
1
1
7.01119
2.54059
1
1
1
1
1
1
1
1
1
1
1
1
1
1
1
1
1
1
6.70967
1.84743
1
1
1
1
1
1
1
1
1
1
1
1
1
1
1
1
1
1
6.27224
1.32923
1
1
1
1
1
1
1
1
1
1
1
1
1
1
1
1
1
1
5.73827
1.00455
1
1
1
1
1
1
1
1
1
1
1
1
1
1
1
1
1
1
4.65588
1.00016
1
1
1
1
1
1
1
1
1
1
1
1
1
1
1
1
1
1
4.64987
1.00014
1
1
1
1
1
1
1
1
1
1
1
1
1
1
1
1
1
1
5.746
1.00479
1
1
1
1
1
1
1
1
1
1
1
1
1
1
1
1
1
1
6.27808
1.3357
1
1
1
1
1
1
1
1
1
1
1
1
1
1
1
1
1
1
6.68292
1.84289
1
1
1
1
1
1
1
1
1
1
1
1
1
1
1
1
1
1
7.03589
2.52406
1
1
1
1
1
1
1
1
1
1
1
1
1
1
1
1
1
1
7.12095
3.30352
1
1
1
1
1
1
1
1
1
1
1
1
1
1
1
1
1
1
7.35199
3.99406
1.00057
1
1
1
1
1
1
1
1
1
1
1
1
1
1
1
1
1
7.56754
4.72195
1.15567
1
1
1
1
1
1
1
1
1
1
1
1
1
1
1
1
1
7.52483
5.35362
1.60044
1
1
1
1
1
1
1
1
1
1
1
1
1
1
1
1
1
7.46238
6.02662
2.27162
1
1
1
1
1
1
1
1
1
1
1
1
1
1
1
1
1
7.2697
6.38374
3.46488
0.987492
1
1
1
1
1
1
1
1
1
1
1
1
1
1
1
1
6.95783
6.62729
4.85876
1.21484
1
1
1
1
1
1
1
1
1
1
1
1
1
1
1
1
6.53351
6.74632
6.15318
2.02536
0.999212
1
1
1
1
1
1
1
1
1
1
1
1
1
1
1
6.38548
6.69962
6.60246
3.59282
1.00118
1
1
1
1
1
1
1
1
1
1
1
1
1
1
1
6.41567
6.71099
6.70982
4.87421
1.41259
1
1
1
1
1
1
1
1
1
1
1
1
1
1
1
6.50279
6.789
6.8381
6.26776
2.6457
0.975802
1.00037
0.999994
1
1
1
1
1
1
1
1
1
1
1
1
6.6578
6.84122
6.85135
6.61235
4.7253
1.46922
0.992462
1.00014
0.999999
1
1
1
1
1
1
1
1
1
1
1
6.79008
6.85206
6.77674
6.58619
6.28346
3.4854
1.06489
0.998736
1
1
1
1
1
1
1
1
1
1
1
1
6.89794
6.86689
6.75678
6.69568
6.91585
5.74459
2.61158
1.01444
1
1
1
1
1
1
1
1
1
1
1
1
6.95942
6.91393
6.85573
6.92795
7.058
6.78296
5.98881
2.21053
0.671219
1
1
1
1
1
1
1
1
1
1
1
2.31628
3.6378
4.90347
5.7311
6.23967
6.43616
6.58163
6.23989
4.54599
3.20644
2.36851
1.56757
1.08402
0.98767
0.993025
0.996347
0.999164
0.999972
1.00002
1.00001
0.313542
0.872625
1.95032
3.18911
4.23784
4.86416
5.41406
5.88608
5.75179
5.30176
4.86155
4.31508
3.3969
2.32819
1.42604
1.02921
0.989391
0.994946
0.99733
0.999445
0.0288737
0.162051
0.551
1.20623
2.04417
2.86489
3.56835
4.26827
4.78643
4.84487
4.7408
4.73773
4.69774
4.53717
4.03233
3.07443
2.09331
1.33086
1.01766
0.992891
0.00721594
0.0223159
0.145836
0.424015
0.91235
1.42827
1.94837
2.52229
3.14585
3.5403
3.76343
3.99603
4.20463
4.37981
4.47712
4.40227
4.18379
3.64742
2.7883
1.88807
0.0113055
0.0167967
0.0273037
0.167235
0.434666
0.733279
1.07998
1.47901
1.92041
2.29712
2.57365
2.84776
3.12603
3.43017
3.7592
3.98194
4.1074
4.13851
4.04226
3.91036
0.0206575
0.0159044
0.0171025
0.0535135
0.173577
0.441689
0.679273
0.947423
1.25641
1.54954
1.76842
1.97571
2.19038
2.41931
2.71399
3.0023
3.28117
3.51066
3.64665
3.77068
0.0256187
0.0181999
0.0196232
0.0328641
0.0711321
0.210553
0.352096
0.535767
0.760668
0.965434
1.14646
1.30543
1.46974
1.63269
1.85218
2.10182
2.34777
2.59248
2.78873
2.99342
0.0343296
0.0225541
0.0234318
0.034862
0.061855
0.106297
0.166952
0.244517
0.381261
0.540708
0.705602
0.859863
1.01872
1.15844
1.32921
1.508
1.67885
1.83435
2.08125
2.06563
0.0487846
0.0296641
0.0310002
0.0407895
0.0635894
0.103986
0.168543
0.218444
0.30354
0.430892
0.540569
0.651419
0.765841
0.865893
0.967639
1.07687
1.1893
1.30749
1.53225
1.50776
0.0629552
0.0368658
0.0424749
0.0555774
0.0745368
0.107436
0.166843
0.214221
0.277865
0.3597
0.425198
0.49245
0.559465
0.627317
0.682301
0.751265
0.847501
0.959199
1.1655
1.15241
0.0744279
0.0410008
0.044696
0.060405
0.078338
0.101684
0.14242
0.182903
0.21818
0.256518
0.289052
0.328602
0.373596
0.428041
0.485211
0.560042
0.653036
0.746635
0.83994
0.963965
0.0843194
0.0443872
0.0427332
0.0526784
0.0680991
0.0791585
0.0991791
0.127505
0.145137
0.164256
0.195564
0.233951
0.290739
0.342343
0.395402
0.454142
0.510766
0.57011
0.607571
0.729479
0.0929793
0.051619
0.0431803
0.0463076
0.0521505
0.0603428
0.0718702
0.0936751
0.11866
0.14824
0.186091
0.214625
0.257534
0.292426
0.326003
0.35856
0.386477
0.412554
0.43628
0.527565
0.0960334
0.0641276
0.0509278
0.0483562
0.049938
0.0603648
0.0725456
0.0951986
0.120618
0.144417
0.173027
0.192112
0.215927
0.236186
0.247016
0.254465
0.264291
0.277739
0.306569
0.391363
0.0865345
0.0698684
0.0617813
0.0549126
0.0539724
0.0663291
0.0752153
0.0918702
0.113692
0.129757
0.145904
0.161176
0.160918
0.165496
0.164175
0.168455
0.183612
0.218748
0.257326
0.316326
0.074721
0.0735024
0.0673748
0.0609913
0.0590403
0.0672274
0.0695698
0.0786704
0.0943501
0.110168
0.1056
0.11121
0.108043
0.111879
0.123813
0.145692
0.171516
0.197953
0.222285
0.24378
0.0722388
0.0772723
0.0720815
0.0650366
0.0572363
0.0566563
0.0530874
0.0560993
0.063689
0.0734488
0.0749674
0.0810945
0.0903962
0.104709
0.120896
0.13903
0.157786
0.170377
0.178976
0.179964
0.0661037
0.0758965
0.0811219
0.076018
0.0636158
0.0534527
0.04871
0.0488639
0.0524197
0.0568607
0.06477
0.072574
0.0826554
0.0955979
0.107451
0.116029
0.121252
0.122447
0.122341
0.123303
0.0655924
0.0859452
0.107103
0.12854
0.141679
0.133083
0.114274
0.112642
0.130929
0.146829
0.154765
0.136637
0.135969
0.152949
0.184641
0.219785
0.227631
0.207021
0.192704
0.188255
0.101059
0.195337
0.233041
0.277354
0.328857
0.36674
0.399319
0.418547
0.438925
0.452064
0.4672
0.450399
0.452326
0.479612
0.480435
0.489757
0.505489
0.497213
0.498424
0.513622
0.566785
0.634862
0.697286
0.814446
0.856602
0.876222
0.853335
0.837859
0.850168
0.895039
0.944828
0.954805
0.946704
0.93238
0.934345
0.952274
0.97424
0.980746
0.973239
0.955922
0.287128
0.414176
0.547684
0.679953
0.787439
0.855558
0.850886
0.840903
0.854496
0.897361
0.947023
0.959682
0.954992
0.934067
0.930354
0.939528
0.959577
0.974631
0.974049
0.966169
0.135071
0.161792
0.241529
0.337612
0.510827
0.708304
0.776787
0.839046
0.869288
0.893501
0.928016
0.941715
0.945686
0.945264
0.938917
0.93575
0.942393
0.960839
0.967597
0.968844
0.186742
0.215557
0.223364
0.231584
0.249151
0.334154
0.550227
0.7413
0.812536
0.868468
0.912934
0.923906
0.937254
0.954739
0.954422
0.942458
0.939044
0.945962
0.956615
0.966497
0.239053
0.256346
0.274526
0.283121
0.292261
0.296673
0.322613
0.432761
0.633637
0.79262
0.862668
0.900381
0.932435
0.963787
0.965901
0.954348
0.939804
0.939505
0.948217
0.962425
0.316104
0.3266
0.327563
0.31722
0.315459
0.325436
0.346992
0.343391
0.380999
0.504033
0.688565
0.81906
0.910359
0.958704
0.971199
0.966976
0.946624
0.93316
0.937899
0.957681
0.404973
0.414845
0.390949
0.352543
0.351429
0.360719
0.378537
0.388458
0.391647
0.381854
0.440912
0.634804
0.805488
0.938795
0.969231
0.964624
0.950027
0.931392
0.938856
0.958792
0.523711
0.510167
0.477411
0.417946
0.395852
0.399915
0.420444
0.425295
0.419986
0.408173
0.393547
0.434271
0.61649
0.8192
0.935976
0.95945
0.947847
0.934928
0.951667
0.962793
0.673591
0.624165
0.570089
0.488958
0.445332
0.447578
0.453883
0.455652
0.450519
0.434678
0.418322
0.40901
0.441212
0.617558
0.812813
0.942274
0.928152
0.935977
0.964856
0.964167
0.856251
0.765236
0.695108
0.602428
0.519533
0.491443
0.485629
0.491243
0.482431
0.46481
0.447397
0.432374
0.427553
0.454182
0.607764
0.834941
0.885532
0.939972
0.975021
0.961376
1.26625
0.916051
0.817267
0.761546
0.678077
0.567051
0.541395
0.545198
0.535965
0.522849
0.50523
0.48898
0.468049
0.452962
0.471705
0.568174
0.752913
0.896118
0.940997
0.95036
2.05893
1.47122
1.09272
0.985122
0.927529
0.790182
0.685954
0.636606
0.603863
0.57382
0.557571
0.551289
0.536926
0.51281
0.482676
0.487095
0.526576
0.641681
0.786803
0.909342
2.50188
2.18637
1.71607
1.29673
1.11989
0.970366
0.833945
0.729253
0.69869
0.682127
0.660582
0.640794
0.622715
0.586101
0.545902
0.519527
0.522459
0.532001
0.573232
0.744438
2.36757
2.35067
2.24193
1.92279
1.53925
1.27197
1.09713
0.946806
0.865906
0.830017
0.766168
0.704622
0.6661
0.626994
0.591619
0.582719
0.572865
0.555432
0.543839
0.579931
1.68601
2.14762
2.21655
2.18977
2.04312
1.78235
1.4957
1.26118
1.06809
0.956215
0.861693
0.772014
0.739183
0.720206
0.693303
0.674661
0.65554
0.625249
0.576349
0.575344
1.10758
1.43974
1.84538
2.113
2.11201
2.0784
1.93239
1.69531
1.43757
1.22526
1.09677
0.972874
0.905679
0.858424
0.797952
0.742793
0.700097
0.659919
0.628443
0.606354
1.00448
1.04438
1.20576
1.54982
1.86005
2.02103
2.01581
1.97324
1.84257
1.61249
1.40488
1.22407
1.06823
0.974584
0.890537
0.81346
0.772195
0.736956
0.723941
0.69443
1.00009
1.00111
1.01071
1.07747
1.26799
1.56892
1.82712
1.93748
1.93027
1.88534
1.76433
1.58541
1.3793
1.21702
1.10208
0.998799
0.931876
0.885387
0.836108
0.759871
1
1.00001
1.00015
1.0024
1.01884
1.10021
1.2893
1.55667
1.76763
1.85782
1.85179
1.81784
1.71884
1.5517
1.38302
1.2259
1.09482
0.999321
0.927275
0.834991
1
1
1
1.00003
1.00032
1.00391
1.02424
1.10817
1.28651
1.52203
1.70393
1.7888
1.7848
1.75602
1.67703
1.54125
1.38234
1.2265
1.1231
1.00029
1
1
1
1
1
1.00005
1.00049
1.00466
1.02677
1.10568
1.26428
1.47601
1.63731
1.72589
1.72328
1.70378
1.64457
1.52787
1.39551
1.19626
1
1
1
1
1
1
1
1.00006
1.00059
1.00483
1.02505
1.09501
1.23282
1.4264
1.57035
1.66632
1.66554
1.65322
1.6163
1.46416
1
1
1
1
1
1
1
1
1.00001
1.00006
1.00057
1.00426
1.02219
1.07926
1.19832
1.37079
1.51224
1.60046
1.6135
1.59106
1
1
1
1
1
1
1
1
1
1
1.00001
1.00006
1.00053
1.00325
1.01836
1.063
1.16392
1.31433
1.44471
1.54946
1
1
1
1
1
1
1
1
1
1
1
1
1.00001
1.00004
1.00042
1.00252
1.01409
1.05156
1.13652
1.388
1.62379
2.46459
2.58481
2.0845
1.30942
1.03705
1.00189
1.00005
1
1
1
1
1
1
1
2.34283
2.81815
2.52818
1.54162
1.04829
1.0008
1
1
1
1
1
1
1
1
1
2.9307
2.87134
1.98313
1.15221
1.00516
1.00005
1
1
1
1
1
1
1
1
1
3.25139
2.55646
1.36551
1.01944
1.00019
1
1
1
1
1
1
1
1
1
1
3.31549
1.68748
1.04807
1.00053
1
1
1
1
1
1
1
1
1
1
1
2.06729
1.07354
1.00048
0.999999
1
1
1
1
1
1
1
1
1
1
1
1.10181
1.00056
0.999997
1
1
1
1
1
1
1
1
1
1
1
1
0.998135
0.999863
0.999996
1
1
1
1
1
1
1
1
1
1
1
1
0.999967
1
1
1
1
1
1
1
1
1
1
1
1
1
1
1
1
1
1
1
1
1
1
1
1
1
1
1
1
1
1
1
1
1
1
1
1
1
1
1
1
1
1
1
1
1
1
1
1
1
1
1
1
1
1
1
1
1
1
1
1
1
1
1
1
1
1
1
1
1
1
1
1
1
1
1
1
1
1
1
1
1
1
1
1
1
1
1
1
1
1
1
1
1
1
1
1
1
1
1
1
1
1
1
1
1
1
1
1
1
1
1
1
1
1
1
1
1
1
1
1
1
1
1
1
1
1
1
1
1
1
1
1
1
1
1
1
1
1
1
1
1
1
1
1
1
1
1
1
1
1
1
1
1
1
1
1
1
1
1
1
1
1
1
1
1
1
1
1
1
1
1
1
1
1
1
1
1
1
1
1
1
1
1
1
1
1
1
1
1
1
1
1
1
1
1
1
1
1
1
1
1
1
1
1
1
1
1
1
1
1
1
1
1
1
1
1
1
1
1
1
1
1
1
1
1
1
1
1
1
1
1
1
1
1
1
1
1
1
1
1
1
1
1
1
1
1
1
1
1
1
1
1
1
1
1
1
1
1
1
1
1
1
1
1
1
1
1
1
1
1
1
1
1
1
1
1
1
1
1
1
1
1
1
1
1
1
1
1
1
1
1
1
1
1
1
1
1
1
1
1
1
1
1
1
1
1
1
1
1
1
1
1
1
1
1
1
1
1
1
1
1
1
1
1
1
1
1
1
1
1
1
1
1
1
1
1
1
1
1
1
1
1
1
1
1
1
1
1
1
1
1
1
1
1
1
1
1
1
1
1
1
1
1
1
1
1
1
1
1
1
1
1
1
1
1
1
1
1
1
1
1
1
1
1
1
1
1
1
1
1
1
1
1
1
1
1
1
1
1
1
1
1
1
1
1
1
1
1
1
1
1
1
1
1
1
1
1
1
1
1
1
1
1
1
1
1
1
1
1
1
1
1
1
1
1
1
1
1
1
1
1
1
1
1
1
1
1
1
1
1
1
1
1
1
1
1
1
1
1
1
1
1
1
1
1
1
1
1
1
1
1
1
1
1
1
1
1
1
1
1
1
1
1
1
1
1
1
1
1
1
1
1
1
1
1
1
1
1
1
1
1
1
1
1
1
1
1
1
1
1
1
1
1
1
1
1
1
1
1
1
1
1
1
1
1
1
1
1
1
1
1
1
1
1
1
1
1
1
1
1
1
1
1
1
1
1
1
1
1
1
1
1
1
1
1
1
1
1
1
1
1
1
1
1
1
1
1
1
1
1
1
1
1
1
1
1
1
1
1
1
1
1
1
1
1
1
1
1
1
1
1
1
1
1
1
1
1
1
1
1
1
1
1
1
1
1
1
1
1
1
1
1
1
1
1
1
1
1
1
1
1
1
1
1
1
1
1
1
1
1
1
1
1
1
1
1
1
1
1
1
1
1
1
1
1
1
1
1
1
1
1
1
1
1
1
1
1
1
1
1
1
1
1
1
1
1
1
1
1
1
1
1
1
1
1
1
1
1
1
1
1
1
1
1
1
1
1
1
1
1
1
1
1
1
1
1
1
1
1
1
1
1
1
1
1
1
1
1
1
1
1
1
1
1
1
1
1
1
1
1
1
1
1
1
1
1
1
1
1
1
1
1
1
1
1
1
1
1
1
1
1
1
1
1
1
1
1
1
1
1
1
1
1
1
1
1
1
1
1
1
1
1
1
1
1
1
1
1
1
1
1
1
1
1
1
1
1
1
1
1
1
1
1
1
1
1
1
1
1
1
1
1
1
1
1
1
1
1
1
1
1
1
1
1
1
1
1
1
1
1
1
1
1
1
1
1
1
1
1
1
1
1
1
1
1
1
1
1
1
1
1
1
1
1
1
1
1
1
1
1
1
1
1
1
0.999967
1
1
1
1
1
1
1
1
1
1
1
1
1
1
0.998137
0.999864
0.999996
1
1
1
1
1
1
1
1
1
1
1
1
1.10183
1.00056
0.999997
1
1
1
1
1
1
1
1
1
1
1
1
2.06751
1.07344
1.00048
0.999999
1
1
1
1
1
1
1
1
1
1
1
3.31574
1.68708
1.04799
1.00052
1
1
1
1
1
1
1
1
1
1
1
3.25132
2.55597
1.36537
1.01946
1.00019
1
1
1
1
1
1
1
1
1
1
2.93093
2.87147
1.98287
1.15211
1.00515
1.00005
1
1
1
1
1
1
1
1
1
2.34338
2.81822
2.52822
1.54151
1.04825
1.0008
1
1
1
1
1
1
1
1
1
1.6237
2.46446
2.58492
2.08465
1.30946
1.03705
1.00189
1.00005
1
1
1
1
1
1
1
1.27123
2.05882
2.50089
2.36698
1.68528
1.10759
1.00448
1.00009
1
1
1
1
1
1
1
0.913174
1.48127
2.18782
2.34984
2.14855
1.43969
1.04433
1.0011
1.00001
1
1
1
1
1
1
0.808664
1.07752
1.71325
2.24478
2.2166
1.84504
1.2056
1.0107
1.00015
1
1
1
1
1
1
0.760555
0.981015
1.29775
1.92056
2.18806
2.11207
1.55001
1.07763
1.00241
1.00003
1
1
1
1
1
0.684576
0.929201
1.12146
1.53969
2.04161
2.11146
1.8601
1.26837
1.01889
1.00032
1
1
1
1
1
0.572648
0.793222
0.967922
1.27915
1.78789
2.0772
2.0209
1.56943
1.10037
1.00391
1.00005
1
1
1
1
0.543348
0.693574
0.832075
1.08456
1.4933
1.93599
2.01612
1.8276
1.28951
1.02425
1.00049
1
1
1
1
0.544436
0.640362
0.745845
0.949304
1.24599
1.69779
1.973
1.93738
1.55659
1.1081
1.00466
1.00006
1
1
1
0.530384
0.59785
0.705824
0.889771
1.06842
1.42515
1.84143
1.92992
1.76726
1.28628
1.02675
1.00059
1.00001
1
1
0.518495
0.565821
0.665522
0.837116
0.968931
1.21786
1.61116
1.88484
1.85741
1.52185
1.10568
1.00483
1.00006
1
1
0.50819
0.547491
0.641066
0.758294
0.874514
1.10176
1.40346
1.7639
1.85145
1.70379
1.26435
1.02507
1.00057
1.00001
1
0.496336
0.549456
0.630878
0.695671
0.777555
0.980034
1.22278
1.58543
1.81757
1.78864
1.47603
1.09505
1.00426
1.00006
1
0.479819
0.540908
0.616047
0.656586
0.737345
0.908803
1.06826
1.37808
1.71846
1.78467
1.63727
1.23281
1.02219
1.00052
1.00001
0.460619
0.518101
0.581088
0.622265
0.713661
0.857299
0.975676
1.21502
1.55073
1.75592
1.72586
1.42639
1.07928
1.00325
1.00004
0.474219
0.489639
0.549532
0.589903
0.689649
0.796266
0.891378
1.09907
1.38296
1.67719
1.72333
1.57045
1.1984
1.01838
1.00042
0.568165
0.493093
0.531849
0.581323
0.672884
0.740244
0.814396
1.00027
1.22754
1.54151
1.7039
1.66654
1.37099
1.06306
1.00252
0.753931
0.533338
0.535744
0.571375
0.655124
0.697999
0.772499
0.935869
1.0963
1.38256
1.64489
1.66582
1.5126
1.16404
1.0141
0.891863
0.641142
0.538353
0.554481
0.625928
0.658966
0.740125
0.887184
0.998045
1.22698
1.52859
1.65359
1.60074
1.31457
1.0516
0.940258
0.783773
0.571612
0.54668
0.579714
0.627442
0.727992
0.834843
0.924555
1.12442
1.39621
1.61671
1.61382
1.44491
1.13658
0.952284
0.906873
0.74086
0.583323
0.580585
0.603471
0.696721
0.757444
0.832201
1.0013
1.19643
1.46445
1.59129
1.5496
1.38805
0.854549
0.76418
0.696154
0.608699
0.519727
0.489751
0.483014
0.485865
0.472681
0.465418
0.45529
0.441617
0.431572
0.456492
0.600755
0.826696
0.872716
0.93589
0.974779
0.962475
0.670295
0.623112
0.57292
0.499692
0.448007
0.444835
0.451539
0.45019
0.443226
0.432929
0.423535
0.412422
0.442694
0.619918
0.834645
0.93732
0.909666
0.928049
0.96587
0.964737
0.520227
0.509008
0.481986
0.424378
0.394745
0.396906
0.416897
0.418742
0.414365
0.407803
0.398632
0.440832
0.620718
0.81715
0.919165
0.949585
0.939798
0.937091
0.958215
0.965248
0.402814
0.416725
0.395927
0.351933
0.349394
0.357464
0.374033
0.384316
0.387956
0.387588
0.452119
0.644579
0.813659
0.928135
0.949253
0.954406
0.951297
0.940986
0.950272
0.965404
0.316383
0.327833
0.335069
0.31957
0.312098
0.320029
0.343102
0.342137
0.386775
0.517936
0.704456
0.822422
0.904518
0.947467
0.955349
0.957703
0.956761
0.948868
0.951762
0.965786
0.239557
0.262329
0.267315
0.275
0.28562
0.29258
0.321798
0.432652
0.645325
0.814176
0.859625
0.896645
0.925353
0.953974
0.9609
0.962033
0.955104
0.946008
0.948632
0.962322
0.186719
0.215525
0.230009
0.235193
0.250458
0.334015
0.552329
0.744744
0.82155
0.880032
0.904415
0.919519
0.929082
0.945102
0.954184
0.956778
0.953515
0.949128
0.949141
0.959095
0.134609
0.165983
0.24143
0.323606
0.505107
0.710974
0.776678
0.847487
0.878143
0.894839
0.915485
0.935599
0.93842
0.941201
0.945625
0.951484
0.955547
0.954576
0.952081
0.953827
0.269478
0.420543
0.538229
0.670287
0.780278
0.858871
0.851346
0.847787
0.858276
0.893576
0.932712
0.951316
0.94811
0.935732
0.935811
0.950877
0.965358
0.965232
0.956503
0.950235
0.562341
0.63747
0.696344
0.81385
0.851335
0.859657
0.844262
0.838285
0.851018
0.897876
0.952443
0.965803
0.955419
0.932421
0.933475
0.95379
0.967213
0.966879
0.957493
0.951205
)
;

boundaryField
{
    inlet
    {
        type            fixedValue;
        value           uniform 1;
    }
    outlet
    {
        type            zeroGradient;
    }
    airfoil
    {
        type            zeroGradient;
    }
    top
    {
        type            symmetryPlane;
    }
    bottom
    {
        type            symmetryPlane;
    }
    defaultFaces
    {
        type            empty;
    }
}


// ************************************************************************* //
