/*--------------------------------*- C++ -*----------------------------------*\
  =========                 |
  \\      /  F ield         | OpenFOAM: The Open Source CFD Toolbox
   \\    /   O peration     | Website:  https://openfoam.org
    \\  /    A nd           | Version:  7
     \\/     M anipulation  |
\*---------------------------------------------------------------------------*/
FoamFile
{
    version     2.0;
    format      ascii;
    class       volScalarField;
    location    "5.6";
    object      T;
}
// * * * * * * * * * * * * * * * * * * * * * * * * * * * * * * * * * * * * * //

dimensions      [0 0 0 1 0 0 0];

internalField   nonuniform List<scalar> 
3700
(
100.446
100.64
100.738
100.81
100.887
101.031
101.131
101.131
101.112
101.056
101.049
101.098
101.138
101.135
101.115
101.082
101.085
101.091
101.089
101.071
100.129
100.217
100.359
100.413
100.413
100.58
100.745
100.733
100.61
100.384
100.398
100.532
100.638
100.635
100.59
100.493
100.488
100.523
100.555
100.508
100.06
100.124
100.141
100.098
100.017
99.9151
99.8542
99.8526
99.8696
99.8927
99.9294
99.9647
100.001
100.027
100.042
100.044
100.045
100.039
100.024
100.02
100.072
100.12
100.091
100.043
99.9703
99.9267
99.8915
99.877
99.8782
99.8994
99.9158
99.9496
99.9883
100.028
100.054
100.071
100.089
100.097
100.096
100.077
100.085
100.11
100.073
100.042
100.033
100.043
100.019
100.019
100.026
100.031
99.9981
99.9958
99.9899
100.013
100.045
100.073
100.097
100.126
100.142
100.155
100.132
100.133
100.094
100.062
100.05
100.076
100.07
100.093
100.122
100.12
100.118
100.113
100.091
100.081
100.07
100.073
100.089
100.13
100.163
100.205
100.219
100.144
100.094
100.025
100.012
100.052
100.063
100.106
100.149
100.169
100.184
100.178
100.183
100.182
100.176
100.168
100.159
100.158
100.177
100.243
100.275
100.124
100.008
99.9615
99.979
100.016
100.045
100.09
100.13
100.171
100.2
100.209
100.231
100.241
100.25
100.257
100.257
100.261
100.266
100.307
100.25
100.013
99.9202
99.94
99.981
100.016
100.055
100.106
100.125
100.161
100.188
100.212
100.249
100.271
100.293
100.313
100.326
100.336
100.345
100.387
100.139
99.9148
99.8881
99.9483
100.012
100.077
100.134
100.186
100.205
100.235
100.244
100.262
100.28
100.301
100.323
100.351
100.38
100.4
100.42
100.454
100.029
99.846
99.864
99.9472
100.004
100.104
100.188
100.234
100.281
100.326
100.343
100.359
100.375
100.387
100.397
100.41
100.433
100.457
100.501
100.497
99.9418
99.7548
99.7759
99.885
99.9613
100.101
100.214
100.247
100.31
100.377
100.405
100.426
100.446
100.459
100.477
100.496
100.518
100.536
100.57
100.566
99.8385
99.6381
99.6693
99.8369
99.9679
100.165
100.245
100.285
100.358
100.416
100.456
100.481
100.503
100.52
100.547
100.576
100.603
100.625
100.653
100.65
99.7104
99.5478
99.6116
99.8234
100.106
100.365
100.412
100.469
100.52
100.55
100.564
100.572
100.581
100.594
100.622
100.656
100.688
100.714
100.726
100.735
99.5682
99.4933
99.6032
99.9437
100.319
100.501
100.539
100.581
100.621
100.646
100.656
100.667
100.68
100.699
100.725
100.75
100.772
100.784
100.779
100.773
99.4347
99.535
99.8454
100.264
100.497
100.571
100.618
100.661
100.696
100.717
100.731
100.749
100.769
100.793
100.813
100.824
100.823
100.816
100.79
100.744
99.3325
99.6896
100.212
100.494
100.633
100.686
100.721
100.757
100.788
100.805
100.818
100.834
100.85
100.855
100.854
100.843
100.791
100.677
100.516
100.278
99.5274
100.117
100.498
100.67
100.758
100.807
100.837
100.862
100.875
100.883
100.883
100.884
100.882
100.858
100.771
100.622
100.358
100.101
100.005
99.9978
100.116
100.528
100.735
100.838
100.888
100.904
100.916
100.92
100.917
100.909
100.896
100.843
100.727
100.469
100.146
100.01
99.9967
99.9985
99.9992
99.9998
100.697
100.837
100.914
100.95
100.961
100.954
100.951
100.926
100.846
100.767
100.58
100.237
100.031
99.9958
99.9978
99.9989
99.9998
100
100
100
100.999
100.997
100.993
100.99
100.983
100.947
100.874
100.429
99.8618
100
100
100
100
100
100
100
100
100
100
100
100.996
100.994
100.987
100.977
100.966
100.86
100.486
100.011
100
100
100
100
100
100
100
100
100
100
100
100
100.989
100.99
100.985
100.966
100.928
100.659
100.05
99.9991
100
100
100
100
100
100
100
100
100
100
100
100
100.983
100.989
100.985
100.953
100.794
100.257
99.996
100
100
100
100
100
100
100
100
100
100
100
100
100
100.978
100.987
100.981
100.92
100.549
99.9923
100
100
100
100
100
100
100
100
100
100
100
100
100
100
100.976
100.985
100.977
100.825
100.242
100
100
100
100
100
100
100
100
100
100
100
100
100
100
100
100.976
100.984
100.971
100.714
100.012
100
100
100
100
100
100
100
100
100
100
100
100
100
100
100
100.985
100.985
100.93
100.466
99.9974
100
100
100
100
100
100
100
100
100
100
100
100
100
100
100
101.002
100.968
100.82
100.153
100
100
100
100
100
100
100
100
100
100
100
100
100
100
100
100
101.014
100.941
100.679
99.9964
100
100
100
100
100
100
100
100
100
100
100
100
100
100
100
100
101.023
100.905
100.499
100
100
100
100
100
100
100
100
100
100
100
100
100
100
100
100
100
101.028
100.848
100.316
100
100
100
100
100
100
100
100
100
100
100
100
100
100
100
100
100
101.032
100.791
100.107
100
100
100
100
100
100
100
100
100
100
100
100
100
100
100
100
100
101.032
100.732
100
100
100
100
100
100
100
100
100
100
100
100
100
100
100
100
100
100
101.014
100.684
100
100
100
100
100
100
100
100
100
100
100
100
100
100
100
100
100
100
100.99
100.578
100
100
100
100
100
100
100
100
100
100
100
100
100
100
100
100
100
100
100.946
100.421
100
100
100
100
100
100
100
100
100
100
100
100
100
100
100
100
100
100
100.9
100.213
100
100
100
100
100
100
100
100
100
100
100
100
100
100
100
100
100
100
100.866
100.004
100
100
100
100
100
100
100
100
100
100
100
100
100
100
100
100
100
100
100.814
100
100
100
100
100
100
100
100
100
100
100
100
100
100
100
100
100
100
100
100.813
100
100
100
100
100
100
100
100
100
100
100
100
100
100
100
100
100
100
100
100.868
100.004
100
100
100
100
100
100
100
100
100
100
100
100
100
100
100
100
100
100
100.902
100.217
100
100
100
100
100
100
100
100
100
100
100
100
100
100
100
100
100
100
100.945
100.418
100
100
100
100
100
100
100
100
100
100
100
100
100
100
100
100
100
100
100.989
100.573
100
100
100
100
100
100
100
100
100
100
100
100
100
100
100
100
100
100
101.013
100.686
100
100
100
100
100
100
100
100
100
100
100
100
100
100
100
100
100
100
101.033
100.734
100.001
100
100
100
100
100
100
100
100
100
100
100
100
100
100
100
100
100
101.032
100.792
100.107
100
100
100
100
100
100
100
100
100
100
100
100
100
100
100
100
100
101.028
100.848
100.315
100
100
100
100
100
100
100
100
100
100
100
100
100
100
100
100
100
101.023
100.905
100.499
100
100
100
100
100
100
100
100
100
100
100
100
100
100
100
100
100
101.014
100.941
100.678
99.9964
100
100
100
100
100
100
100
100
100
100
100
100
100
100
100
100
101.002
100.966
100.819
100.155
100
100
100
100
100
100
100
100
100
100
100
100
100
100
100
100
100.985
100.985
100.93
100.463
99.9973
100
100
100
100
100
100
100
100
100
100
100
100
100
100
100
100.976
100.985
100.973
100.715
100.011
100
100
100
100
100
100
100
100
100
100
100
100
100
100
100
100.976
100.985
100.978
100.827
100.25
100
100
100
100
100
100
100
100
100
100
100
100
100
100
100
100.978
100.987
100.981
100.919
100.547
99.9923
100
100
100
100
100
100
100
100
100
100
100
100
100
100
100.983
100.989
100.985
100.954
100.792
100.251
99.996
100
100
100
100
100
100
100
100
100
100
100
100
100
100.989
100.99
100.984
100.965
100.927
100.659
100.051
99.9991
100
100
100
100
100
100
100
100
100
100
100
100
100.995
100.993
100.986
100.976
100.966
100.863
100.49
100.012
100
100
100
100
100
100
100
100
100
100
100
100
100.999
100.997
100.993
100.991
100.983
100.949
100.874
100.43
99.861
100
100
100
100
100
100
100
100
100
100
100
100.697
100.837
100.915
100.951
100.962
100.954
100.951
100.926
100.846
100.767
100.58
100.237
100.031
99.9958
99.9978
99.9989
99.9998
100
100
100
100.121
100.527
100.731
100.836
100.89
100.906
100.917
100.92
100.917
100.908
100.896
100.843
100.727
100.469
100.146
100.01
99.9967
99.9985
99.9992
99.9998
99.502
100.125
100.498
100.67
100.757
100.807
100.838
100.863
100.875
100.883
100.883
100.883
100.882
100.858
100.771
100.622
100.359
100.101
100.005
99.9978
99.3181
99.6552
100.189
100.479
100.631
100.687
100.722
100.758
100.788
100.805
100.818
100.834
100.85
100.855
100.854
100.843
100.791
100.678
100.517
100.278
99.5154
99.6114
99.8883
100.29
100.499
100.568
100.615
100.658
100.694
100.714
100.729
100.748
100.769
100.793
100.813
100.824
100.823
100.816
100.79
100.745
99.6862
99.5741
99.6293
100.001
100.34
100.501
100.539
100.58
100.619
100.645
100.655
100.667
100.681
100.7
100.726
100.751
100.772
100.784
100.779
100.774
99.7474
99.606
99.6349
99.8236
100.144
100.38
100.42
100.476
100.523
100.553
100.566
100.574
100.583
100.595
100.621
100.654
100.687
100.713
100.726
100.735
99.8259
99.6545
99.6612
99.8241
99.9965
100.199
100.26
100.298
100.366
100.417
100.455
100.48
100.502
100.519
100.546
100.575
100.603
100.626
100.654
100.65
99.9172
99.7359
99.7552
99.8686
99.9756
100.118
100.223
100.245
100.305
100.373
100.404
100.426
100.446
100.459
100.478
100.497
100.519
100.537
100.571
100.566
100.001
99.8277
99.8723
99.9493
100.004
100.111
100.195
100.231
100.279
100.327
100.345
100.361
100.377
100.39
100.4
100.412
100.433
100.456
100.5
100.496
100.092
99.8949
99.8876
99.9543
100.009
100.077
100.139
100.186
100.21
100.242
100.252
100.268
100.281
100.299
100.319
100.347
100.378
100.4
100.421
100.454
100.206
99.95
99.8913
99.924
99.9727
99.9979
100.051
100.108
100.126
100.158
100.181
100.203
100.241
100.266
100.289
100.312
100.327
100.338
100.346
100.388
100.278
100.039
99.9193
99.9297
99.9603
99.9898
100.033
100.092
100.128
100.165
100.193
100.203
100.228
100.24
100.251
100.26
100.261
100.264
100.269
100.307
100.275
100.124
100.011
99.9743
99.9797
100.016
100.057
100.111
100.145
100.166
100.182
100.179
100.187
100.187
100.184
100.175
100.165
100.163
100.174
100.239
100.208
100.123
100.076
100.043
100.036
100.071
100.073
100.098
100.123
100.124
100.125
100.122
100.105
100.094
100.078
100.075
100.084
100.121
100.157
100.203
100.13
100.118
100.077
100.049
100.044
100.062
100.035
100.032
100.04
100.045
100.014
100.012
99.9979
100.012
100.039
100.067
100.091
100.121
100.14
100.157
100.106
100.118
100.078
100.033
99.9865
99.9657
99.9131
99.8947
99.8962
99.9118
99.9193
99.9485
99.9858
100.023
100.05
100.067
100.086
100.097
100.098
100.083
100.089
100.119
100.11
100.066
99.996
99.908
99.8615
99.8591
99.8751
99.897
99.9304
99.9608
99.9954
100.024
100.041
100.047
100.049
100.042
100.027
100.02
100.12
100.225
100.308
100.376
100.458
100.464
100.428
100.452
100.604
100.668
100.633
100.446
100.323
100.355
100.468
100.592
100.603
100.543
100.426
100.388
100.491
100.712
100.744
100.794
100.891
100.993
101.056
101.077
101.124
101.128
101.118
101.07
101.017
101.031
101.092
101.123
101.121
101.097
101.052
101.028
101.05
101.019
101.002
100.996
100.976
100.954
100.921
100.889
100.873
100.871
100.869
100.862
100.848
100.835
100.831
100.832
100.833
100.828
100.818
100.802
100.584
100.634
100.711
100.741
100.773
100.794
100.804
100.804
100.801
100.798
100.801
100.802
100.8
100.795
100.793
100.794
100.796
100.795
100.791
100.783
100.025
100.061
100.196
100.288
100.405
100.504
100.576
100.638
100.65
100.651
100.664
100.679
100.689
100.698
100.702
100.706
100.71
100.715
100.718
100.722
100.076
100.088
100.088
100.087
100.098
100.196
100.361
100.465
100.498
100.518
100.543
100.563
100.577
100.589
100.597
100.601
100.607
100.614
100.621
100.632
100.131
100.133
100.133
100.128
100.129
100.133
100.165
100.266
100.382
100.439
100.462
100.486
100.508
100.52
100.524
100.525
100.527
100.532
100.538
100.551
100.192
100.185
100.173
100.155
100.151
100.16
100.177
100.177
100.215
100.296
100.375
100.427
100.466
100.484
100.487
100.486
100.482
100.481
100.484
100.495
100.245
100.241
100.215
100.183
100.182
100.188
100.2
100.207
100.205
100.194
100.233
100.338
100.41
100.459
100.466
100.464
100.458
100.453
100.456
100.465
100.302
100.29
100.269
100.237
100.218
100.217
100.226
100.226
100.221
100.208
100.186
100.208
100.313
100.399
100.439
100.445
100.441
100.437
100.442
100.447
100.364
100.343
100.32
100.285
100.257
100.246
100.242
100.239
100.233
100.218
100.198
100.179
100.196
100.295
100.375
100.422
100.418
100.422
100.432
100.431
100.429
100.401
100.374
100.338
100.299
100.269
100.255
100.254
100.245
100.229
100.211
100.19
100.178
100.185
100.271
100.366
100.387
100.409
100.419
100.414
100.534
100.44
100.405
100.385
100.355
100.302
100.275
100.271
100.259
100.247
100.232
100.214
100.192
100.172
100.176
100.225
100.31
100.365
100.375
100.378
100.621
100.543
100.463
100.427
100.409
100.369
100.326
100.294
100.269
100.251
100.241
100.23
100.21
100.186
100.163
100.154
100.168
100.222
100.275
100.319
100.608
100.589
100.541
100.466
100.427
100.391
100.352
100.308
100.287
100.277
100.262
100.244
100.225
100.198
100.172
100.15
100.14
100.13
100.142
100.219
100.488
100.548
100.542
100.516
100.466
100.418
100.383
100.342
100.311
100.294
100.266
100.236
100.212
100.19
100.169
100.153
100.135
100.115
100.099
100.106
100.25
100.377
100.446
100.482
100.472
100.448
100.409
100.368
100.324
100.29
100.26
100.226
100.208
100.194
100.177
100.16
100.142
100.119
100.093
100.073
100.043
100.146
100.254
100.337
100.388
100.416
100.406
100.381
100.344
100.303
100.274
100.242
100.218
100.198
100.172
100.146
100.123
100.101
100.083
100.061
100.002
100.015
100.066
100.155
100.233
100.29
100.329
100.349
100.34
100.314
100.282
100.249
100.213
100.186
100.16
100.132
100.113
100.097
100.087
100.066
100
100
100.003
100.024
100.078
100.149
100.209
100.25
100.28
100.29
100.281
100.261
100.228
100.197
100.171
100.144
100.124
100.107
100.088
100.056
100
100
100
100.001
100.006
100.031
100.08
100.139
100.187
100.217
100.24
100.245
100.236
100.215
100.187
100.158
100.128
100.103
100.081
100.05
100
100
100
100
100
100.001
100.007
100.032
100.079
100.128
100.169
100.192
100.21
100.209
100.201
100.183
100.156
100.125
100.1
100.069
100
100
100
100
100
100
100
100.001
100.008
100.032
100.073
100.118
100.154
100.174
100.186
100.184
100.178
100.161
100.137
100.097
100
100
100
100
100
100
100
100
100
100.002
100.008
100.029
100.065
100.108
100.14
100.159
100.168
100.167
100.162
100.138
100
100
100
100
100
100
100
100
100
100
100
100.001
100.007
100.024
100.057
100.097
100.128
100.146
100.154
100.151
100
100
100
100
100
100
100
100
100
100
100
100
100
100.001
100.006
100.019
100.048
100.085
100.113
100.137
100
100
100
100
100
100
100
100
100
100
100
100
100
100
100
100.001
100.004
100.016
100.041
100.105
100.598
100.654
100.61
100.415
100.142
100.017
100.001
100
100
100
100
100
100
100
100
100.671
100.663
100.518
100.217
100.022
100
100
100
100
100
100
100
100
100
100
100.704
100.636
100.374
100.074
100.002
100
100
100
100
100
100
100
100
100
100
100.719
100.52
100.169
100.009
100
100
100
100
100
100
100
100
100
100
100
100.651
100.286
100.025
100
100
100
100
100
100
100
100
100
100
100
100
100.393
100.038
100
100
100
100
100
100
100
100
100
100
100
100
100
100.042
100
100
100
100
100
100
100
100
100
100
100
100
100
100
99.9995
100
100
100
100
100
100
100
100
100
100
100
100
100
100
100
100
100
100
100
100
100
100
100
100
100
100
100
100
100
100
100
100
100
100
100
100
100
100
100
100
100
100
100
100
100
100
100
100
100
100
100
100
100
100
100
100
100
100
100
100
100
100
100
100
100
100
100
100
100
100
100
100
100
100
100
100
100
100
100
100
100
100
100
100
100
100
100
100
100
100
100
100
100
100
100
100
100
100
100
100
100
100
100
100
100
100
100
100
100
100
100
100
100
100
100
100
100
100
100
100
100
100
100
100
100
100
100
100
100
100
100
100
100
100
100
100
100
100
100
100
100
100
100
100
100
100
100
100
100
100
100
100
100
100
100
100
100
100
100
100
100
100
100
100
100
100
100
100
100
100
100
100
100
100
100
100
100
100
100
100
100
100
100
100
100
100
100
100
100
100
100
100
100
100
100
100
100
100
100
100
100
100
100
100
100
100
100
100
100
100
100
100
100
100
100
100
100
100
100
100
100
100
100
100
100
100
100
100
100
100
100
100
100
100
100
100
100
100
100
100
100
100
100
100
100
100
100
100
100
100
100
100
100
100
100
100
100
100
100
100
100
100
100
100
100
100
100
100
100
100
100
100
100
100
100
100
100
100
100
100
100
100
100
100
100
100
100
100
100
100
100
100
100
100
100
100
100
100
100
100
100
100
100
100
100
100
100
100
100
100
100
100
100
100
100
100
100
100
100
100
100
100
100
100
100
100
100
100
100
100
100
100
100
100
100
100
100
100
100
100
100
100
100
100
100
100
100
100
100
100
100
100
100
100
100
100
100
100
100
100
100
100
100
100
100
100
100
100
100
100
100
100
100
100
100
100
100
100
100
100
100
100
100
100
100
100
100
100
100
100
100
100
100
100
100
100
100
100
100
100
100
100
100
100
100
100
100
100
100
100
100
100
100
100
100
100
100
100
100
100
100
100
100
100
100
100
100
100
100
100
100
100
100
100
100
100
100
100
100
100
100
100
100
100
100
100
100
100
100
100
100
100
100
100
100
100
100
100
100
100
100
100
100
100
100
100
100
100
100
100
100
100
100
100
100
100
100
100
100
100
100
100
100
100
100
100
100
100
100
100
100
100
100
100
100
100
100
100
100
100
100
100
100
100
100
100
100
100
100
100
100
100
100
100
100
100
100
100
100
100
100
100
100
100
100
100
100
100
100
100
100
100
100
100
100
100
100
100
100
100
100
100
100
100
100
100
100
100
100
100
100
100
100
100
100
100
100
100
100
100
100
100
100
100
100
100
100
100
100
100
100
100
100
100
100
100
100
100
100
100
100
100
100
100
100
100
100
100
100
100
100
100
100
100
100
100
100
100
100
100
100
100
100
100
100
100
100
100
100
100
100
100
100
100
100
100
100
100
100
100
100
100
100
100
100
100
100
100
100
100
100
100
100
100
100
100
100
100
100
100
100
100
100
100
100
100
100
100
100
100
100
100
100
100
100
100
100
100
100
100
100
100
100
100
100
100
100
100
100
100
100
100
100
100
100
100
100
100
100
100
100
100
100
100
100
100
100
100
100
100
100
100
100
100
100
100
100
100
100
100
100
100
100
100
100
100
100
100
100
100
100
100
100
100
100
100
100
100
100
100
100
100
100
100
100
100
100
100
100
100
100
100
100
100
100
100
100
100
100
100
100
100
100
100
100
100
100
100
100
100
100
100
100
100
100
100
100
100
100
100
100
100
100
100
100
100
100
100
100
100
100
100
100
100
100
100
100
100
100
100
100
100
100
100
100
100
100
100
100
100
100
100
100
100
100
100
100
100
100
100
100
100
100
100
100
100
100
100
100
100
100
100
100
100
100
100
100
100
100
100
100
100
100
100
100
100
100
100
100
100
100
100
100
100
100
100
100
100
100
100
100
100
100
100
100
100
100
100
100
100
100
100
100
100
100
100
100
100
100
100
100
100
100
100
100
100
100
100
100
100
100
100
100
100
99.9995
100
100
100
100
100
100
100
100
100
100
100
100
100
100
100.042
100
100
100
100
100
100
100
100
100
100
100
100
100
100
100.393
100.038
100
100
100
100
100
100
100
100
100
100
100
100
100
100.651
100.286
100.025
100
100
100
100
100
100
100
100
100
100
100
100
100.719
100.52
100.169
100.009
100
100
100
100
100
100
100
100
100
100
100
100.704
100.636
100.374
100.074
100.002
100
100
100
100
100
100
100
100
100
100
100.671
100.663
100.518
100.217
100.022
100
100
100
100
100
100
100
100
100
100
100.598
100.654
100.61
100.415
100.142
100.017
100.001
100
100
100
100
100
100
100
100
100.535
100.621
100.608
100.487
100.25
100.043
100.002
100
100
100
100
100
100
100
100
100.439
100.544
100.589
100.548
100.377
100.146
100.015
100
100
100
100
100
100
100
100
100.402
100.46
100.541
100.542
100.446
100.254
100.066
100.003
100
100
100
100
100
100
100
100.384
100.426
100.467
100.515
100.482
100.336
100.155
100.024
100.001
100
100
100
100
100
100
100.357
100.41
100.427
100.466
100.472
100.387
100.233
100.078
100.006
100
100
100
100
100
100
100.306
100.37
100.39
100.42
100.448
100.416
100.29
100.149
100.031
100.001
100
100
100
100
100
100.278
100.329
100.351
100.38
100.41
100.406
100.329
100.209
100.08
100.007
100
100
100
100
100
100.27
100.296
100.315
100.342
100.365
100.382
100.349
100.25
100.139
100.032
100.001
100
100
100
100
100.256
100.267
100.291
100.319
100.323
100.341
100.34
100.28
100.187
100.078
100.008
100
100
100
100
100.244
100.247
100.272
100.297
100.293
100.301
100.314
100.29
100.217
100.128
100.032
100.002
100
100
100
100.233
100.234
100.255
100.265
100.264
100.275
100.282
100.281
100.24
100.169
100.073
100.008
100
100
100
100.218
100.227
100.24
100.235
100.23
100.244
100.248
100.261
100.244
100.192
100.118
100.029
100.001
100
100
100.199
100.211
100.222
100.21
100.208
100.22
100.213
100.228
100.236
100.21
100.154
100.065
100.007
100
100
100.177
100.188
100.195
100.188
100.192
100.198
100.187
100.196
100.215
100.209
100.174
100.108
100.024
100.001
100
100.179
100.166
100.173
100.167
100.175
100.171
100.16
100.17
100.187
100.201
100.186
100.14
100.057
100.006
100
100.227
100.16
100.157
100.151
100.159
100.145
100.132
100.144
100.158
100.184
100.184
100.159
100.097
100.019
100.001
100.313
100.175
100.146
100.134
100.142
100.122
100.114
100.125
100.129
100.156
100.178
100.168
100.128
100.048
100.004
100.364
100.223
100.131
100.114
100.119
100.101
100.099
100.108
100.103
100.125
100.161
100.167
100.146
100.085
100.016
100.375
100.274
100.142
100.1
100.095
100.083
100.089
100.087
100.08
100.101
100.137
100.162
100.154
100.113
100.041
100.379
100.318
100.219
100.108
100.075
100.06
100.068
100.055
100.049
100.069
100.098
100.139
100.151
100.137
100.105
100.429
100.4
100.374
100.34
100.3
100.27
100.254
100.25
100.238
100.229
100.216
100.197
100.182
100.189
100.271
100.363
100.382
100.407
100.419
100.414
100.363
100.343
100.321
100.289
100.261
100.245
100.241
100.236
100.228
100.217
100.202
100.183
100.198
100.296
100.385
100.42
100.412
100.419
100.431
100.431
100.3
100.289
100.271
100.241
100.219
100.216
100.224
100.222
100.217
100.208
100.191
100.214
100.316
100.396
100.43
100.442
100.439
100.438
100.444
100.447
100.243
100.241
100.219
100.184
100.181
100.186
100.197
100.205
100.204
100.2
100.242
100.343
100.413
100.453
100.458
100.459
100.459
100.457
100.46
100.467
100.191
100.186
100.179
100.157
100.149
100.156
100.174
100.176
100.218
100.305
100.384
100.426
100.462
100.48
100.482
100.482
100.485
100.486
100.49
100.499
100.131
100.138
100.127
100.122
100.122
100.128
100.164
100.265
100.39
100.45
100.463
100.483
100.502
100.516
100.522
100.526
100.529
100.533
100.54
100.553
100.078
100.08
100.091
100.089
100.1
100.196
100.365
100.462
100.5
100.528
100.546
100.561
100.572
100.584
100.596
100.602
100.606
100.611
100.619
100.632
100.025
100.083
100.189
100.266
100.396
100.513
100.584
100.637
100.65
100.658
100.671
100.681
100.685
100.694
100.703
100.707
100.707
100.708
100.711
100.717
100.527
100.661
100.717
100.722
100.75
100.798
100.811
100.808
100.801
100.804
100.808
100.807
100.8
100.794
100.795
100.796
100.794
100.788
100.782
100.777
101.028
101.024
101.006
100.987
100.963
100.946
100.921
100.89
100.874
100.876
100.877
100.871
100.854
100.835
100.831
100.832
100.83
100.822
100.812
100.801
)
;

boundaryField
{
    inlet
    {
        type            fixedValue;
        value           uniform 100;
    }
    outlet
    {
        type            inletOutlet;
        inletValue      uniform 100;
        value           nonuniform List<scalar> 
50
(
100.378
100.319
100.219
100.106
100.073
100.061
100.066
100.056
100.05
100.069
100.097
100.138
100.151
100.137
100.105
100.802
100.783
100.722
100.632
100.551
100.495
100.465
100.447
100.431
100.414
100.414
100.431
100.447
100.467
100.499
100.553
100.632
100.717
100.778
100.801
100.379
100.318
100.219
100.108
100.075
100.06
100.068
100.055
100.049
100.069
100.098
100.139
100.151
100.137
100.105
)
;
    }
    airfoil
    {
        type            zeroGradient;
    }
    top
    {
        type            symmetryPlane;
    }
    bottom
    {
        type            symmetryPlane;
    }
    defaultFaces
    {
        type            empty;
    }
}


// ************************************************************************* //
