/*--------------------------------*- C++ -*----------------------------------*\
  =========                 |
  \\      /  F ield         | OpenFOAM: The Open Source CFD Toolbox
   \\    /   O peration     | Website:  https://openfoam.org
    \\  /    A nd           | Version:  7
     \\/     M anipulation  |
\*---------------------------------------------------------------------------*/
FoamFile
{
    version     2.0;
    format      ascii;
    class       volVectorField;
    location    "5.6";
    object      U;
}
// * * * * * * * * * * * * * * * * * * * * * * * * * * * * * * * * * * * * * //

dimensions      [0 1 -1 0 0 0 0];

internalField   nonuniform List<vector> 
3700
(
(1.36988 -0.370413 0)
(1.2704 -0.539936 0)
(1.27254 -0.28454 0)
(1.36027 -0.300087 0)
(1.48978 -0.378333 0)
(1.48804 -0.241041 0)
(1.49185 -0.104085 0)
(1.53378 -0.0885636 0)
(1.57162 -0.178705 0)
(1.57769 -0.315227 0)
(1.53225 -0.348628 0)
(1.4883 -0.251512 0)
(1.53452 -0.0942132 0)
(1.65492 -0.0804857 0)
(1.70401 -0.124482 0)
(1.76858 -0.215428 0)
(1.78382 -0.237347 0)
(1.7486 -0.197275 0)
(1.77854 -0.127578 0)
(1.83003 -0.167689 0)
(1.81287 -1.21148 0)
(1.6064 -1.27364 0)
(1.62497 -1.04359 0)
(1.76962 -1.02989 0)
(1.8786 -1.28862 0)
(1.79077 -1.21626 0)
(1.73259 -1.06409 0)
(1.76297 -0.993002 0)
(1.8932 -1.30929 0)
(1.92158 -1.6008 0)
(1.83553 -1.66687 0)
(1.77005 -1.40335 0)
(1.80934 -1.15654 0)
(1.9833 -1.08699 0)
(2.12513 -1.12411 0)
(2.24509 -1.18805 0)
(2.255 -1.15361 0)
(2.2634 -1.0795 0)
(2.27783 -0.962768 0)
(2.33688 -1.02563 0)
(1.58787 -1.23927 0)
(1.60927 -1.41818 0)
(1.711 -1.4809 0)
(1.75738 -1.67972 0)
(1.79662 -1.95942 0)
(1.82579 -2.16384 0)
(1.96219 -2.26953 0)
(2.01058 -2.21648 0)
(1.99946 -2.24857 0)
(2.10991 -2.13347 0)
(2.12405 -2.14606 0)
(2.18879 -2.03696 0)
(2.238 -1.95878 0)
(2.26837 -1.91874 0)
(2.33192 -1.83726 0)
(2.42625 -1.77936 0)
(2.52196 -1.70187 0)
(2.63124 -1.63681 0)
(2.7093 -1.54701 0)
(2.7584 -1.51884 0)
(1.40196 -1.2963 0)
(1.53223 -1.57664 0)
(1.61755 -1.81083 0)
(1.65062 -2.04814 0)
(1.6982 -2.20629 0)
(1.75198 -2.25794 0)
(1.8383 -2.20564 0)
(1.99448 -1.98026 0)
(2.06607 -1.96611 0)
(2.30032 -1.93824 0)
(2.43739 -1.83645 0)
(2.47754 -1.82609 0)
(2.49853 -1.78291 0)
(2.43596 -1.81025 0)
(2.43462 -1.74628 0)
(2.47081 -1.69297 0)
(2.51823 -1.56451 0)
(2.59619 -1.45684 0)
(2.68605 -1.35624 0)
(2.80492 -1.18452 0)
(1.24908 -1.30193 0)
(1.44218 -1.67689 0)
(1.58814 -1.92252 0)
(1.65199 -2.13563 0)
(1.71169 -2.2674 0)
(1.79676 -2.315 0)
(1.90651 -2.18329 0)
(1.99121 -1.96783 0)
(2.02324 -1.93077 0)
(2.22058 -1.87373 0)
(2.39813 -1.69282 0)
(2.55138 -1.63401 0)
(2.65015 -1.46336 0)
(2.65544 -1.4577 0)
(2.6541 -1.4187 0)
(2.62139 -1.48014 0)
(2.60168 -1.4299 0)
(2.6074 -1.31063 0)
(2.64566 -1.32702 0)
(2.71855 -1.12048 0)
(1.2005 -1.35562 0)
(1.41321 -1.84812 0)
(1.63129 -2.04102 0)
(1.78017 -2.18175 0)
(2.03031 -2.26624 0)
(2.10328 -2.30692 0)
(2.1043 -2.14471 0)
(2.06845 -1.97765 0)
(2.05833 -1.92616 0)
(2.19703 -1.83818 0)
(2.32701 -1.66633 0)
(2.51134 -1.576 0)
(2.58819 -1.4273 0)
(2.73422 -1.32349 0)
(2.78193 -1.11036 0)
(2.78843 -1.03518 0)
(2.74899 -1.05003 0)
(2.74701 -0.970416 0)
(2.68529 -1.09317 0)
(2.68507 -0.98341 0)
(1.22147 -1.5055 0)
(1.49532 -1.98253 0)
(1.79021 -2.16527 0)
(2.0256 -2.25132 0)
(2.30921 -2.1553 0)
(2.36182 -2.22074 0)
(2.40176 -1.90796 0)
(2.30788 -1.90539 0)
(2.28545 -1.88402 0)
(2.32949 -1.78359 0)
(2.39724 -1.64159 0)
(2.4927 -1.53364 0)
(2.54313 -1.34436 0)
(2.65864 -1.26062 0)
(2.70237 -1.08571 0)
(2.786 -0.906604 0)
(2.8245 -0.748543 0)
(2.83301 -0.570726 0)
(2.75791 -0.612809 0)
(2.71336 -0.632473 0)
(1.41357 -1.69778 0)
(1.67107 -2.12767 0)
(2.00752 -2.32364 0)
(2.09906 -2.27818 0)
(2.34343 -2.12561 0)
(2.42515 -2.10593 0)
(2.52005 -1.73315 0)
(2.52341 -1.66862 0)
(2.55838 -1.64927 0)
(2.61447 -1.51792 0)
(2.58951 -1.52608 0)
(2.62752 -1.35083 0)
(2.60926 -1.22611 0)
(2.63917 -1.13821 0)
(2.66673 -0.989562 0)
(2.70666 -0.865775 0)
(2.76773 -0.746688 0)
(2.80001 -0.528176 0)
(2.79473 -0.383614 0)
(2.73241 -0.299649 0)
(1.57926 -1.80896 0)
(1.80886 -2.19138 0)
(1.90328 -2.28618 0)
(1.98513 -2.2792 0)
(2.11454 -2.03748 0)
(2.22535 -1.8443 0)
(2.41279 -1.58751 0)
(2.52347 -1.52538 0)
(2.66942 -1.42172 0)
(2.7287 -1.15339 0)
(2.75964 -1.1616 0)
(2.78004 -0.942015 0)
(2.74525 -0.915719 0)
(2.7365 -0.812388 0)
(2.72299 -0.728239 0)
(2.70617 -0.644155 0)
(2.71046 -0.585943 0)
(2.74206 -0.500745 0)
(2.71844 -0.296617 0)
(2.68254 -0.122866 0)
(1.71079 -1.89035 0)
(1.69796 -2.1572 0)
(1.76111 -2.22175 0)
(1.80042 -2.16327 0)
(1.97347 -1.9464 0)
(2.07788 -1.71127 0)
(2.18725 -1.61182 0)
(2.29423 -1.50673 0)
(2.43611 -1.38735 0)
(2.55289 -1.1025 0)
(2.66467 -0.895399 0)
(2.71514 -0.644241 0)
(2.73921 -0.511801 0)
(2.74751 -0.372413 0)
(2.74012 -0.279858 0)
(2.71906 -0.257361 0)
(2.69507 -0.226986 0)
(2.69034 -0.285436 0)
(2.6498 -0.180912 0)
(2.61491 -0.0123044 0)
(1.70345 -1.84989 0)
(1.60935 -2.07827 0)
(1.54442 -2.13387 0)
(1.77571 -1.98659 0)
(1.9945 -1.82158 0)
(2.1409 -1.54665 0)
(2.14251 -1.54738 0)
(2.27163 -1.40052 0)
(2.35511 -1.25433 0)
(2.42738 -1.10827 0)
(2.53703 -0.916693 0)
(2.61098 -0.695311 0)
(2.65833 -0.467469 0)
(2.7063 -0.28544 0)
(2.66375 -0.0369559 0)
(2.65071 0.0562096 0)
(2.62249 0.16715 0)
(2.60382 0.0813858 0)
(2.55382 0.116803 0)
(2.58374 0.048512 0)
(1.56924 -1.72672 0)
(1.5429 -1.89244 0)
(1.59512 -1.74007 0)
(1.79452 -1.63619 0)
(2.01172 -1.56753 0)
(2.19675 -1.3085 0)
(2.30383 -1.38291 0)
(2.4357 -1.16892 0)
(2.52311 -0.908424 0)
(2.52935 -0.852963 0)
(2.57132 -0.644529 0)
(2.59659 -0.48003 0)
(2.60238 -0.312172 0)
(2.62804 -0.190483 0)
(2.58135 0.0197189 0)
(2.58675 0.121523 0)
(2.53085 0.307766 0)
(2.48628 0.366719 0)
(2.43092 0.397709 0)
(2.4648 0.308203 0)
(1.40535 -1.53227 0)
(1.55286 -1.61745 0)
(1.81044 -1.42172 0)
(1.86358 -1.46619 0)
(1.9905 -1.38855 0)
(2.25681 -1.22983 0)
(2.50904 -0.95815 0)
(2.6593 -0.53045 0)
(2.66169 -0.295918 0)
(2.6422 -0.21217 0)
(2.62887 -0.0717271 0)
(2.60864 0.038903 0)
(2.58105 0.126327 0)
(2.54976 0.201106 0)
(2.49535 0.282616 0)
(2.47365 0.303964 0)
(2.43108 0.376247 0)
(2.37291 0.489987 0)
(2.30035 0.598168 0)
(2.29489 0.574121 0)
(1.1786 -1.32835 0)
(1.45034 -1.35968 0)
(1.82781 -1.18953 0)
(1.89643 -1.47028 0)
(2.33626 -0.944484 0)
(2.50727 -0.984832 0)
(2.63099 -0.701447 0)
(2.61427 -0.31539 0)
(2.59752 -0.237548 0)
(2.5794 -0.00325078 0)
(2.5621 0.179718 0)
(2.49536 0.372522 0)
(2.45684 0.479431 0)
(2.38847 0.591593 0)
(2.33704 0.637299 0)
(2.2972 0.642342 0)
(2.25944 0.655659 0)
(2.24609 0.660066 0)
(2.17953 0.738018 0)
(2.13384 0.783897 0)
(0.940779 -1.08394 0)
(1.30209 -1.14506 0)
(1.83568 -0.979121 0)
(2.39286 -1.11083 0)
(2.60195 -0.533472 0)
(2.44628 -0.785243 0)
(2.47728 -0.505296 0)
(2.47444 -0.2105 0)
(2.45105 -0.0260044 0)
(2.4509 0.140293 0)
(2.41408 0.332454 0)
(2.34886 0.512398 0)
(2.30478 0.631176 0)
(2.22594 0.754817 0)
(2.16309 0.824311 0)
(2.10933 0.857931 0)
(2.0609 0.909056 0)
(2.05804 0.904485 0)
(2.04316 0.923457 0)
(2.06211 0.947431 0)
(0.794678 -0.71091 0)
(1.23308 -1.11683 0)
(2.22961 -0.251938 0)
(2.35388 -0.63658 0)
(2.38117 -0.585525 0)
(2.45884 -0.256972 0)
(2.42882 0.104275 0)
(2.39069 0.279134 0)
(2.32384 0.438996 0)
(2.29876 0.578935 0)
(2.20426 0.734205 0)
(2.13792 0.832791 0)
(2.08841 0.887976 0)
(2.03492 0.944559 0)
(1.99427 0.959973 0)
(1.95237 0.989523 0)
(1.95387 1.01789 0)
(1.96811 0.997878 0)
(1.99379 0.996304 0)
(2.07125 0.977093 0)
(0.920037 -0.459639 0)
(1.67764 -0.127791 0)
(2.22503 -0.480423 0)
(2.31231 -0.140708 0)
(2.3627 0.0155009 0)
(2.34042 0.337606 0)
(2.28936 0.554736 0)
(2.18939 0.730748 0)
(2.13418 0.797935 0)
(2.07266 0.922475 0)
(1.96249 1.02493 0)
(1.90786 1.07407 0)
(1.88225 1.08579 0)
(1.87137 1.09041 0)
(1.87341 1.05589 0)
(1.89686 1.04842 0)
(1.96161 1.02129 0)
(2.16543 0.901907 0)
(2.38303 0.790506 0)
(2.77919 0.439945 0)
(1.11707 -0.127684 0)
(1.92009 0.133078 0)
(2.24233 0.195315 0)
(2.24382 0.470456 0)
(2.19871 0.668255 0)
(2.13684 0.791853 0)
(2.05051 0.90158 0)
(1.97516 0.960887 0)
(1.91378 1.03102 0)
(1.84939 1.1228 0)
(1.78529 1.15681 0)
(1.78836 1.15244 0)
(1.81163 1.13194 0)
(1.85461 1.08782 0)
(2.0409 0.952447 0)
(2.25664 0.831499 0)
(2.66513 0.505166 0)
(3.03799 0.0911416 0)
(3.05515 -0.0240642 0)
(3.00399 -0.00464686 0)
(1.00138 0.0468113 0)
(1.93175 0.718583 0)
(2.09212 0.832519 0)
(1.99524 0.953349 0)
(1.96691 0.973888 0)
(1.8834 1.07658 0)
(1.79814 1.1409 0)
(1.76158 1.14944 0)
(1.75734 1.16422 0)
(1.73249 1.20322 0)
(1.70915 1.19737 0)
(1.85839 1.07343 0)
(2.10075 0.887613 0)
(2.50906 0.576693 0)
(2.99057 0.13398 0)
(3.07375 -0.0297985 0)
(3.00805 -0.00767942 0)
(3.0029 -0.00383324 0)
(3.00122 -0.00219199 0)
(3.00008 -0.000483741 0)
(1.167 0.755408 0)
(1.82279 1.15416 0)
(1.83396 1.15089 0)
(1.73588 1.19209 0)
(1.71713 1.19488 0)
(1.67079 1.24434 0)
(1.66575 1.21617 0)
(1.72961 1.16756 0)
(1.75964 1.22356 0)
(1.78602 1.13486 0)
(2.26302 0.740571 0)
(2.85193 0.213044 0)
(3.09575 -0.0260796 0)
(3.02082 -0.0123786 0)
(3.0044 -0.00528677 0)
(3.00184 -0.00297108 0)
(3.00007 -0.000595235 0)
(2.99998 -2.48529e-05 0)
(2.99999 1.43137e-05 0)
(3 5.90632e-06 0)
(1.57369 1.25494 0)
(1.58001 1.26188 0)
(1.58434 1.26809 0)
(1.59442 1.25998 0)
(1.62011 1.24363 0)
(1.61206 1.2653 0)
(1.91554 1.15194 0)
(2.97277 0.34087 0)
(3.31905 -0.539945 0)
(3 6.29054e-11 0)
(3 -7.66967e-11 0)
(3 8.3887e-11 0)
(3 -2.62872e-15 0)
(3 -4.53348e-13 0)
(3 -1.62617e-14 0)
(3 1.56345e-14 0)
(3 -1.21278e-14 0)
(3 -3.28661e-16 0)
(3 1.79914e-15 0)
(3 2.48187e-15 0)
(1.57757 1.25179 0)
(1.58943 1.26181 0)
(1.59188 1.27717 0)
(1.58688 1.27824 0)
(1.66368 1.24901 0)
(1.72259 1.24233 0)
(2.3045 0.725576 0)
(3.00075 0.0118359 0)
(3 5.44894e-08 0)
(3 -3.74004e-11 0)
(3 -1.52345e-13 0)
(3 6.21848e-15 0)
(3 -5.64889e-15 0)
(3 1.47274e-15 0)
(3 -1.60939e-15 0)
(3 -2.05858e-15 0)
(3 4.47652e-17 0)
(3 4.28094e-16 0)
(3 2.76028e-15 0)
(3 3.81102e-15 0)
(1.58637 1.25443 0)
(1.60377 1.25703 0)
(1.60512 1.26948 0)
(1.57753 1.30323 0)
(1.70242 1.22702 0)
(2.19144 0.828937 0)
(2.98296 0.0126451 0)
(3.00047 -0.000927706 0)
(3 7.35839e-07 0)
(3 5.71361e-11 0)
(3 -2.02537e-13 0)
(3 -2.47064e-15 0)
(3 -1.7184e-15 0)
(3 -6.53246e-16 0)
(3 -1.65953e-15 0)
(3 -8.93605e-16 0)
(3 8.19869e-16 0)
(3 1.7928e-15 0)
(3 3.85804e-15 0)
(3 3.75585e-15 0)
(1.58848 1.25555 0)
(1.61155 1.25705 0)
(1.62924 1.26043 0)
(1.62075 1.28857 0)
(1.82967 1.10048 0)
(2.71896 0.238995 0)
(3.00573 -0.0029072 0)
(2.9999 9.38537e-05 0)
(3 -8.92445e-07 0)
(3 8.91313e-10 0)
(3 5.53583e-13 0)
(3 1.46369e-15 0)
(3 -1.94801e-15 0)
(3 -1.19791e-15 0)
(3 -1.19683e-15 0)
(3 -1.60332e-15 0)
(3 9.1853e-16 0)
(3 1.4369e-15 0)
(3 2.74802e-15 0)
(3 2.70547e-15 0)
(1.58806 1.26651 0)
(1.6054 1.26092 0)
(1.63376 1.24476 0)
(1.75072 1.19602 0)
(2.36715 0.631962 0)
(3.02026 -0.0186804 0)
(2.99974 0.000191713 0)
(3 -4.52767e-06 0)
(3 8.73892e-08 0)
(3 -9.14867e-10 0)
(3 -6.71866e-14 0)
(3 -3.52652e-15 0)
(3 -2.31931e-15 0)
(3 -1.45009e-15 0)
(3 -1.13646e-15 0)
(3 -1.28502e-15 0)
(3 3.56747e-16 0)
(3 1.00515e-15 0)
(3 6.67116e-16 0)
(3 1.72274e-15 0)
(1.58432 1.27786 0)
(1.5799 1.27017 0)
(1.63282 1.24709 0)
(1.81599 1.12274 0)
(2.73538 0.231163 0)
(3 -7.23979e-10 0)
(3 1.44521e-08 0)
(3 -1.30711e-08 0)
(3 5.75935e-10 0)
(3 3.24174e-12 0)
(3 -5.09446e-14 0)
(3 -9.31703e-16 0)
(3 -2.43739e-15 0)
(3 -2.08052e-15 0)
(3 -8.57442e-16 0)
(3 -6.62242e-16 0)
(3 6.43533e-16 0)
(3 1.48583e-15 0)
(3 7.8423e-16 0)
(3 1.61942e-15 0)
(1.58135 1.29204 0)
(1.54974 1.28449 0)
(1.64954 1.25305 0)
(2.08712 0.879493 0)
(2.99954 0.00316787 0)
(3 1.4953e-10 0)
(3 -2.54221e-11 0)
(3 1.38191e-11 0)
(3 -2.94547e-12 0)
(3 3.26492e-14 0)
(3 1.04276e-15 0)
(3 1.29213e-15 0)
(3 -1.16354e-15 0)
(3 -2.44698e-15 0)
(3 -1.31242e-15 0)
(3 -4.25759e-16 0)
(3 2.6384e-17 0)
(3 1.23885e-15 0)
(3 9.90756e-16 0)
(3 1.41249e-15 0)
(1.58334 1.32188 0)
(1.51187 1.32492 0)
(1.79581 1.18139 0)
(2.45359 0.530349 0)
(2.99999 -0.000847986 0)
(3 2.40313e-12 0)
(3 2.93694e-13 0)
(3 -5.2836e-14 0)
(3 1.50034e-14 0)
(3 1.74684e-15 0)
(3 2.36023e-15 0)
(3 2.40588e-15 0)
(3 1.00887e-15 0)
(3 -9.23228e-16 0)
(3 -1.84595e-15 0)
(3 -8.62526e-16 0)
(3 -9.92214e-17 0)
(3 5.77156e-16 0)
(3 9.99491e-16 0)
(3 1.62884e-15 0)
(1.59112 1.30815 0)
(1.46541 1.35415 0)
(1.92593 1.04675 0)
(2.85352 0.133841 0)
(3 -1.25335e-08 0)
(3 -1.24616e-11 0)
(3 -3.233e-14 0)
(3 2.09683e-15 0)
(3 2.0789e-15 0)
(3 3.33644e-15 0)
(3 3.01282e-15 0)
(3 2.46308e-15 0)
(3 2.04735e-15 0)
(3 1.14109e-15 0)
(3 -2.16868e-16 0)
(3 3.50288e-16 0)
(3 -2.9776e-17 0)
(3 3.27223e-16 0)
(3 1.71001e-16 0)
(3 5.44124e-16 0)
(1.6051 1.29598 0)
(1.48192 1.38736 0)
(2.14814 0.830778 0)
(3.01119 -0.00943098 0)
(3 5.58068e-09 0)
(3 -2.26605e-12 0)
(3 5.12038e-15 0)
(3 1.21981e-15 0)
(3 2.10636e-15 0)
(3 2.60695e-15 0)
(3 2.85766e-15 0)
(3 2.23487e-15 0)
(3 1.9256e-15 0)
(3 1.2934e-15 0)
(3 2.5543e-16 0)
(3 5.35177e-17 0)
(3 1.17364e-15 0)
(3 8.92173e-16 0)
(3 4.69895e-17 0)
(3 2.58699e-16 0)
(1.62116 1.28167 0)
(1.58246 1.30737 0)
(2.43083 0.525195 0)
(3 -4.98051e-13 0)
(3 -5.56919e-12 0)
(3 6.64478e-14 0)
(3 -1.44599e-15 0)
(3 1.14042e-15 0)
(3 8.63914e-16 0)
(3 1.08078e-15 0)
(3 1.7268e-15 0)
(3 1.4443e-15 0)
(3 1.6518e-15 0)
(3 1.71011e-15 0)
(3 2.17315e-15 0)
(3 1.68171e-15 0)
(3 4.87629e-16 0)
(3 1.42666e-15 0)
(3 1.36098e-15 0)
(3 3.95772e-16 0)
(1.63902 1.26207 0)
(1.62472 1.24888 0)
(2.64787 0.291913 0)
(3 2.55915e-13 0)
(3 4.28713e-15 0)
(3 -2.79663e-15 0)
(3 -1.89112e-15 0)
(3 -8.45405e-16 0)
(3 -9.98965e-16 0)
(3 -8.74173e-17 0)
(3 3.24046e-16 0)
(3 3.12501e-16 0)
(3 2.07358e-16 0)
(3 7.55545e-16 0)
(3 1.9345e-15 0)
(3 3.41077e-15 0)
(3 3.36233e-15 0)
(3 4.33984e-15 0)
(3 3.74442e-15 0)
(3 3.4332e-15 0)
(1.65919 1.2398 0)
(1.82477 1.09787 0)
(2.87993 0.0859209 0)
(3 -8.12324e-13 0)
(3 -4.57661e-15 0)
(3 -3.91778e-15 0)
(3 -2.57488e-15 0)
(3 -2.98034e-15 0)
(3 -2.25995e-15 0)
(3 -8.08043e-16 0)
(3 -1.0985e-15 0)
(3 -1.58165e-15 0)
(3 -1.54214e-15 0)
(3 -1.252e-15 0)
(3 -6.37798e-16 0)
(3 4.38094e-17 0)
(3 3.99806e-16 0)
(3 1.35843e-15 0)
(3 2.65998e-15 0)
(3 2.60944e-15 0)
(1.68162 1.19243 0)
(1.90834 0.976226 0)
(2.99993 4.78762e-05 0)
(3 -4.88428e-15 0)
(3 -4.73855e-15 0)
(3 -4.2513e-15 0)
(3 -3.23449e-15 0)
(3 -3.78725e-15 0)
(3 -2.82392e-15 0)
(3 -1.7146e-15 0)
(3 -2.24533e-15 0)
(3 -2.95182e-15 0)
(3 -3.20742e-15 0)
(3 -3.05354e-15 0)
(3 -2.15616e-15 0)
(3 -9.65689e-16 0)
(3 -3.39156e-16 0)
(3 2.32689e-17 0)
(3 3.48662e-16 0)
(3 1.12264e-15 0)
(1.68435 1.17347 0)
(2.02975 0.837086 0)
(3 -5.91879e-15 0)
(3 -5.23032e-15 0)
(3 -4.587e-15 0)
(3 -3.41623e-15 0)
(3 -3.10099e-15 0)
(3 -3.33262e-15 0)
(3 -3.04327e-15 0)
(3 -2.57811e-15 0)
(3 -2.08595e-15 0)
(3 -3.56773e-15 0)
(3 -4.27428e-15 0)
(3 -5.11619e-15 0)
(3 -4.19418e-15 0)
(3 -3.15468e-15 0)
(3 -2.01645e-15 0)
(3 -7.73994e-16 0)
(3 -6.45906e-16 0)
(3 -8.21352e-16 0)
(1.75363 1.10346 0)
(2.21671 0.652279 0)
(3 -5.26253e-15 0)
(3 -5.56852e-15 0)
(3 -4.43532e-15 0)
(3 -3.66917e-15 0)
(3 -3.20412e-15 0)
(3 -2.39181e-15 0)
(3 -2.07226e-15 0)
(3 -2.00325e-15 0)
(3 -4.04392e-15 0)
(3 -5.69442e-15 0)
(3 -6.36239e-15 0)
(3 -6.72504e-15 0)
(3 -6.73694e-15 0)
(3 -6.36005e-15 0)
(3 -5.1007e-15 0)
(3 -4.88765e-15 0)
(3 -3.73809e-15 0)
(3 -1.61179e-15 0)
(1.85574 1.01517 0)
(2.46548 0.437405 0)
(3 -4.63007e-15 0)
(3 -4.92835e-15 0)
(3 -4.91423e-15 0)
(3 -4.7675e-15 0)
(3 -3.98234e-15 0)
(3 -2.73213e-15 0)
(3 -2.55704e-15 0)
(3 -3.07793e-15 0)
(3 -4.54141e-15 0)
(3 -5.63824e-15 0)
(3 -6.1084e-15 0)
(3 -5.86767e-15 0)
(3 -6.19526e-15 0)
(3 -6.2139e-15 0)
(3 -5.52997e-15 0)
(3 -5.28842e-15 0)
(3 -5.00565e-15 0)
(3 -4.03438e-15 0)
(1.94452 0.860427 0)
(2.73535 0.19022 0)
(3 -3.27916e-15 0)
(3 -2.76344e-15 0)
(3 -3.1193e-15 0)
(3 -3.57207e-15 0)
(3 -3.40468e-15 0)
(3 -2.35721e-15 0)
(3 -1.74107e-15 0)
(3 -5.95049e-16 0)
(3 -3.08851e-16 0)
(3 -1.22044e-15 0)
(3 -2.09015e-15 0)
(3 -2.75381e-15 0)
(3 -3.22057e-15 0)
(3 -3.53307e-15 0)
(3 -3.32616e-15 0)
(3 -3.02078e-15 0)
(3 -2.78709e-15 0)
(3 -2.6886e-15 0)
(2.08645 0.655264 0)
(2.99278 5.04329e-05 0)
(3 -2.49307e-15 0)
(3 -1.38534e-15 0)
(3 -9.99074e-16 0)
(3 -1.60518e-15 0)
(3 -1.68109e-15 0)
(3 -1.6722e-15 0)
(3 -1.07808e-15 0)
(3 -6.65559e-16 0)
(3 -6.26586e-16 0)
(3 -7.93143e-16 0)
(3 -9.82292e-16 0)
(3 -2.19891e-15 0)
(3 -3.02018e-15 0)
(3 -2.8659e-15 0)
(3 -2.67659e-15 0)
(3 -2.7635e-15 0)
(3 -2.48391e-15 0)
(3 -2.49584e-15 0)
(1.99091 0.376428 0)
(2.99978 -3.01744e-05 0)
(3 -2.31829e-15 0)
(3 -1.32941e-15 0)
(3 -6.10681e-16 0)
(3 -5.33133e-16 0)
(3 -5.40619e-16 0)
(3 -1.54562e-16 0)
(3 1.43092e-16 0)
(3 2.46449e-16 0)
(3 5.66834e-17 0)
(3 -3.38991e-16 0)
(3 -3.87038e-16 0)
(3 -8.21522e-16 0)
(3 -1.01071e-15 0)
(3 -9.41313e-16 0)
(3 -1.35917e-15 0)
(3 -1.7537e-15 0)
(3 -1.99262e-15 0)
(3 -2.40092e-15 0)
(1.99137 -0.375633 0)
(2.99982 2.17643e-05 0)
(3 -2.31341e-15 0)
(3 -1.82985e-15 0)
(3 -1.71977e-15 0)
(3 -1.342e-15 0)
(3 -1.26729e-15 0)
(3 -1.40647e-15 0)
(3 -1.17223e-15 0)
(3 -9.52508e-16 0)
(3 -8.67737e-16 0)
(3 -1.12873e-15 0)
(3 -1.27306e-15 0)
(3 -1.07916e-15 0)
(3 -7.44239e-16 0)
(3 -6.79703e-16 0)
(3 -7.54855e-16 0)
(3 -5.8198e-16 0)
(3 -4.41174e-16 0)
(3 -5.98359e-16 0)
(2.0881 -0.657846 0)
(2.99239 -2.69285e-05 0)
(3 -3.14977e-15 0)
(3 -2.35655e-15 0)
(3 -2.28464e-15 0)
(3 -2.46953e-15 0)
(3 -2.25912e-15 0)
(3 -2.05704e-15 0)
(3 -2.09342e-15 0)
(3 -1.8816e-15 0)
(3 -1.69032e-15 0)
(3 -1.61934e-15 0)
(3 -1.69057e-15 0)
(3 -1.38054e-15 0)
(3 -1.04627e-15 0)
(3 -1.13873e-15 0)
(3 -1.14004e-15 0)
(3 -1.98963e-15 0)
(3 -2.23861e-15 0)
(3 -2.44777e-15 0)
(1.93917 -0.861537 0)
(2.72999 -0.193677 0)
(3 -1.70008e-15 0)
(3 -9.32659e-16 0)
(3 -1.35157e-15 0)
(3 -1.44738e-15 0)
(3 -1.28412e-15 0)
(3 -1.33995e-15 0)
(3 -1.26218e-15 0)
(3 -4.27689e-16 0)
(3 -4.13207e-17 0)
(3 3.52513e-16 0)
(3 2.88731e-16 0)
(3 2.51042e-16 0)
(3 2.07767e-16 0)
(3 -1.73586e-16 0)
(3 -5.92458e-16 0)
(3 -1.57084e-15 0)
(3 -1.91258e-15 0)
(3 -2.11433e-15 0)
(1.85408 -1.01125 0)
(2.46824 -0.435114 0)
(3 1.08062e-15 0)
(3 5.75425e-16 0)
(3 8.56382e-16 0)
(3 1.11802e-15 0)
(3 1.11337e-15 0)
(3 8.36372e-16 0)
(3 9.88602e-16 0)
(3 9.26932e-16 0)
(3 5.54408e-16 0)
(3 5.98596e-16 0)
(3 8.5381e-16 0)
(3 1.12798e-15 0)
(3 1.21161e-15 0)
(3 1.32867e-15 0)
(3 1.36309e-15 0)
(3 1.17164e-15 0)
(3 1.10383e-15 0)
(3 9.85757e-16 0)
(1.76042 -1.10419 0)
(2.22291 -0.649975 0)
(3 -8.55643e-16 0)
(3 -2.3228e-16 0)
(3 -1.00205e-16 0)
(3 -4.56066e-17 0)
(3 3.56895e-16 0)
(3 3.99351e-16 0)
(3 3.38173e-16 0)
(3 4.06877e-16 0)
(3 3.32145e-16 0)
(3 1.89545e-16 0)
(3 2.58237e-16 0)
(3 8.97225e-17 0)
(3 -1.16868e-16 0)
(3 -5.97566e-16 0)
(3 -8.63958e-16 0)
(3 -1.09453e-15 0)
(3 -1.30667e-15 0)
(3 -1.51173e-15 0)
(1.68337 -1.176 0)
(2.02774 -0.837166 0)
(3 4.51653e-17 0)
(3 -3.32803e-16 0)
(3 -5.5651e-16 0)
(3 -9.28371e-16 0)
(3 -6.91695e-16 0)
(3 -6.92823e-16 0)
(3 -8.12408e-16 0)
(3 -3.69903e-16 0)
(3 4.93429e-17 0)
(3 4.27706e-16 0)
(3 5.75034e-17 0)
(3 -7.06196e-16 0)
(3 -1.01803e-15 0)
(3 -1.2345e-15 0)
(3 -1.3652e-15 0)
(3 -1.52807e-15 0)
(3 -1.46539e-15 0)
(3 -3.92809e-16 0)
(1.67913 -1.1928 0)
(1.90647 -0.977084 0)
(2.99934 -0.000589748 0)
(3 -8.64029e-16 0)
(3 -7.79842e-16 0)
(3 -6.81842e-16 0)
(3 -5.82154e-16 0)
(3 -4.9928e-16 0)
(3 -5.16529e-16 0)
(3 -8.78727e-17 0)
(3 7.21628e-16 0)
(3 -3.94025e-16 0)
(3 -1.98898e-15 0)
(3 -2.73614e-15 0)
(3 -1.61641e-15 0)
(3 -4.66188e-16 0)
(3 -1.30324e-15 0)
(3 -8.72277e-16 0)
(3 -5.84134e-16 0)
(3 -6.20011e-16 0)
(1.65836 -1.23926 0)
(1.82622 -1.09842 0)
(2.88009 -0.0862898 0)
(3 5.15391e-13 0)
(3 -8.24435e-16 0)
(3 -1.4693e-15 0)
(3 -1.13201e-15 0)
(3 -1.14934e-15 0)
(3 -1.31559e-15 0)
(3 -1.11659e-15 0)
(3 -1.02342e-15 0)
(3 -2.53614e-15 0)
(3 -2.68045e-15 0)
(3 -2.07782e-15 0)
(3 -1.45981e-15 0)
(3 -1.841e-15 0)
(3 -2.32221e-15 0)
(3 -9.48589e-16 0)
(3 -8.86476e-16 0)
(3 -1.87958e-15 0)
(1.63948 -1.26081 0)
(1.62315 -1.25011 0)
(2.64902 -0.291207 0)
(3 -1.58448e-13 0)
(3 8.25531e-15 0)
(3 -5.46712e-16 0)
(3 -1.36125e-15 0)
(3 -1.53149e-15 0)
(3 -1.74115e-15 0)
(3 -5.0979e-16 0)
(3 -8.81157e-16 0)
(3 -1.62123e-15 0)
(3 -1.85438e-15 0)
(3 -1.85979e-15 0)
(3 -1.24441e-15 0)
(3 -1.20131e-15 0)
(3 -5.48275e-16 0)
(3 -5.02749e-16 0)
(3 -9.72979e-16 0)
(3 -5.34128e-16 0)
(1.62165 -1.28142 0)
(1.58155 -1.30809 0)
(2.42841 -0.527314 0)
(3 2.25055e-13 0)
(3 6.1785e-12 0)
(3 -8.52088e-14 0)
(3 -1.25387e-15 0)
(3 -2.67836e-15 0)
(3 -1.75801e-15 0)
(3 -1.05607e-15 0)
(3 -1.04531e-15 0)
(3 -1.31643e-15 0)
(3 -1.99821e-15 0)
(3 -1.28845e-15 0)
(3 -2.59181e-16 0)
(3 -3.01826e-16 0)
(3 -1.12794e-15 0)
(3 9.86654e-16 0)
(3 1.76841e-15 0)
(3 2.63527e-15 0)
(1.60515 -1.29604 0)
(1.48145 -1.38479 0)
(2.15576 -0.825755 0)
(3.01112 0.00939322 0)
(3 -8.52785e-09 0)
(3 -1.95759e-12 0)
(3 1.42063e-14 0)
(3 -2.3281e-15 0)
(3 -6.66706e-16 0)
(3 3.31951e-17 0)
(3 -1.98177e-16 0)
(3 -1.0291e-15 0)
(3 -4.16599e-16 0)
(3 9.44703e-17 0)
(3 5.53996e-17 0)
(3 3.06165e-16 0)
(3 2.47621e-15 0)
(3 3.54347e-15 0)
(3 3.4816e-15 0)
(3 2.77611e-15 0)
(1.59152 -1.30841 0)
(1.46575 -1.35732 0)
(1.91874 -1.04823 0)
(2.84979 -0.134449 0)
(3 1.43719e-08 0)
(3 1.34482e-11 0)
(3 -1.53368e-13 0)
(3 -5.51962e-16 0)
(3 -1.34671e-15 0)
(3 -3.23646e-16 0)
(3 -3.6782e-16 0)
(3 -1.63729e-17 0)
(3 1.49632e-15 0)
(3 3.04286e-15 0)
(3 2.91635e-15 0)
(3 2.95554e-15 0)
(3 3.46357e-15 0)
(3 3.21563e-15 0)
(3 2.81864e-15 0)
(3 2.1716e-15 0)
(1.58444 -1.32201 0)
(1.51164 -1.32565 0)
(1.79777 -1.18059 0)
(2.45557 -0.528838 0)
(3.00002 0.0011571 0)
(3 3.21366e-11 0)
(3 2.9009e-14 0)
(3 8.8049e-15 0)
(3 -8.7842e-15 0)
(3 -9.23258e-16 0)
(3 -1.41865e-16 0)
(3 1.20766e-15 0)
(3 2.42818e-15 0)
(3 2.9609e-15 0)
(3 3.82355e-15 0)
(3 3.03434e-15 0)
(3 1.95358e-15 0)
(3 1.78508e-15 0)
(3 1.47294e-15 0)
(3 1.44614e-15 0)
(1.58061 -1.29263 0)
(1.55012 -1.28577 0)
(1.65218 -1.25117 0)
(2.09843 -0.873991 0)
(3.00018 -0.00183997 0)
(3 -3.25858e-10 0)
(3 4.98732e-11 0)
(3 -1.64427e-11 0)
(3 3.01023e-12 0)
(3 -1.18267e-14 0)
(3 -4.34524e-16 0)
(3 2.92734e-15 0)
(3 2.18562e-15 0)
(3 1.848e-15 0)
(3 3.06056e-15 0)
(3 2.01166e-15 0)
(3 4.81635e-16 0)
(3 7.33744e-16 0)
(3 9.71449e-16 0)
(3 1.55296e-15 0)
(1.58399 -1.27665 0)
(1.57907 -1.26991 0)
(1.63143 -1.2515 0)
(1.8023 -1.13503 0)
(2.72518 -0.240568 0)
(3 8.70244e-10 0)
(3 -1.45721e-08 0)
(3 1.31155e-08 0)
(3 -5.75633e-10 0)
(3 -3.1644e-12 0)
(3 1.03533e-13 0)
(3 1.49892e-15 0)
(3 2.54252e-15 0)
(3 1.35681e-15 0)
(3 2.09688e-15 0)
(3 4.9895e-16 0)
(3 6.11142e-16 0)
(3 1.00985e-15 0)
(3 6.93131e-16 0)
(3 1.01945e-15 0)
(1.58765 -1.26573 0)
(1.60349 -1.26043 0)
(1.63218 -1.24334 0)
(1.75361 -1.19427 0)
(2.37368 -0.630484 0)
(3.01987 0.0182999 0)
(2.99974 -0.000193249 0)
(3 4.50023e-06 0)
(3 -8.72065e-08 0)
(3 9.19234e-10 0)
(3 -2.23125e-13 0)
(3 2.09061e-15 0)
(3 2.06076e-15 0)
(3 1.22069e-15 0)
(3 1.0169e-15 0)
(3 7.70578e-16 0)
(3 6.50814e-16 0)
(3 1.25027e-15 0)
(3 7.17467e-16 0)
(3 8.16283e-16 0)
(1.5884 -1.25491 0)
(1.6119 -1.25663 0)
(1.62888 -1.25878 0)
(1.62749 -1.28164 0)
(1.83447 -1.09609 0)
(2.72726 -0.230342 0)
(3.00569 0.00293867 0)
(2.9999 -9.53126e-05 0)
(3 8.94368e-07 0)
(3 -8.96157e-10 0)
(3 1.95912e-14 0)
(3 1.5817e-15 0)
(3 1.77187e-15 0)
(3 1.04961e-15 0)
(3 8.30362e-16 0)
(3 4.22764e-16 0)
(3 7.10489e-16 0)
(3 1.67655e-15 0)
(3 8.95623e-16 0)
(3 9.21381e-16 0)
(1.5871 -1.2536 0)
(1.60516 -1.25636 0)
(1.60837 -1.26795 0)
(1.5803 -1.30076 0)
(1.69532 -1.23001 0)
(2.18565 -0.827214 0)
(2.98211 -0.0129388 0)
(3.00051 0.000973114 0)
(3 -7.26182e-07 0)
(3 -5.81519e-11 0)
(3 2.29645e-13 0)
(3 3.17981e-15 0)
(3 2.20535e-15 0)
(3 4.17797e-16 0)
(3 6.22392e-16 0)
(3 1.70388e-16 0)
(3 1.15245e-15 0)
(3 1.35037e-15 0)
(3 1.35629e-15 0)
(3 7.8267e-16 0)
(1.57904 -1.25235 0)
(1.59016 -1.26183 0)
(1.5917 -1.27817 0)
(1.5881 -1.28137 0)
(1.66219 -1.25231 0)
(1.72185 -1.24276 0)
(2.29915 -0.730766 0)
(3.00005 -0.01267 0)
(3 -5.62515e-08 0)
(3 2.16781e-11 0)
(3 -2.12937e-15 0)
(3 6.95423e-16 0)
(3 1.19482e-15 0)
(3 -1.38584e-15 0)
(3 -6.18624e-16 0)
(3 -3.80805e-16 0)
(3 9.44466e-16 0)
(3 5.82185e-16 0)
(3 1.39402e-15 0)
(3 7.96426e-16 0)
(1.5741 -1.25574 0)
(1.58032 -1.26296 0)
(1.58399 -1.2699 0)
(1.59301 -1.26067 0)
(1.61735 -1.2431 0)
(1.61088 -1.26544 0)
(1.91845 -1.15511 0)
(2.97738 -0.346327 0)
(3.31746 0.545042 0)
(3 -6.49004e-11 0)
(3 7.63727e-11 0)
(3 -7.83215e-11 0)
(3 -5.53323e-15 0)
(3 4.19986e-13 0)
(3 1.19081e-14 0)
(3 -1.75008e-14 0)
(3 1.23195e-14 0)
(3 1.49261e-15 0)
(3 1.44133e-15 0)
(3 4.24178e-15 0)
(1.17058 -0.749665 0)
(1.82184 -1.1552 0)
(1.83172 -1.15087 0)
(1.73711 -1.18671 0)
(1.71677 -1.19146 0)
(1.66994 -1.24327 0)
(1.66588 -1.21511 0)
(1.73056 -1.16725 0)
(1.76117 -1.22427 0)
(1.7874 -1.13548 0)
(2.26298 -0.740729 0)
(2.85133 -0.213363 0)
(3.09587 0.0261416 0)
(3.02094 0.0124124 0)
(3.00437 0.00531541 0)
(3.00183 0.00296088 0)
(3.00006 0.00059247 0)
(2.99998 2.48104e-05 0)
(2.99999 -1.43048e-05 0)
(3 -5.90247e-06 0)
(1.01516 -0.0320418 0)
(1.93653 -0.737566 0)
(2.0948 -0.855949 0)
(1.98476 -0.981516 0)
(1.965 -0.974503 0)
(1.88493 -1.07182 0)
(1.798 -1.13891 0)
(1.76191 -1.14908 0)
(1.7577 -1.16401 0)
(1.73295 -1.20293 0)
(1.70914 -1.19713 0)
(1.85736 -1.07345 0)
(2.09951 -0.887877 0)
(2.50755 -0.577731 0)
(2.98985 -0.134839 0)
(3.07388 0.0297148 0)
(3.00808 0.00768901 0)
(3.0029 0.00383585 0)
(3.00122 0.00219269 0)
(3.00008 0.000483995 0)
(1.07747 0.0400287 0)
(1.86454 0.0824104 0)
(2.22749 -0.152168 0)
(2.24089 -0.456297 0)
(2.19511 -0.678412 0)
(2.13542 -0.798845 0)
(2.05119 -0.902277 0)
(1.97627 -0.959733 0)
(1.91368 -1.03093 0)
(1.85006 -1.12244 0)
(1.78509 -1.15641 0)
(1.78798 -1.15227 0)
(1.81097 -1.13191 0)
(1.85424 -1.08784 0)
(2.04091 -0.952315 0)
(2.25636 -0.831525 0)
(2.66413 -0.505535 0)
(3.0375 -0.0915176 0)
(3.05519 0.0240123 0)
(3.00399 0.00464811 0)
(1.12721 0.550062 0)
(1.84944 0.120665 0)
(2.22355 0.621994 0)
(2.31738 0.0608139 0)
(2.36415 -0.0336228 0)
(2.34217 -0.339795 0)
(2.28978 -0.560372 0)
(2.18986 -0.734718 0)
(2.13517 -0.79806 0)
(2.07421 -0.921635 0)
(1.9631 -1.02373 0)
(1.90773 -1.07361 0)
(1.88145 -1.08606 0)
(1.87059 -1.09066 0)
(1.87346 -1.05584 0)
(1.89718 -1.04825 0)
(1.96176 -1.02117 0)
(2.16517 -0.902005 0)
(2.38269 -0.790679 0)
(2.779 -0.440185 0)
(1.14531 0.972541 0)
(1.35903 1.25372 0)
(2.42028 0.112277 0)
(2.24875 0.833155 0)
(2.35252 0.621943 0)
(2.44863 0.232088 0)
(2.42929 -0.112512 0)
(2.39135 -0.290063 0)
(2.3235 -0.448497 0)
(2.2981 -0.586985 0)
(2.20221 -0.740944 0)
(2.13559 -0.837542 0)
(2.08598 -0.89108 0)
(2.03328 -0.945905 0)
(1.99468 -0.958905 0)
(1.95387 -0.987629 0)
(1.9541 -1.01724 0)
(1.96834 -0.997829 0)
(1.99368 -0.996628 0)
(2.071 -0.977701 0)
(1.00922 1.19565 0)
(1.46812 1.37448 0)
(1.9276 0.881159 0)
(2.39683 1.23562 0)
(2.57744 0.603712 0)
(2.4306 0.800781 0)
(2.46625 0.511518 0)
(2.46877 0.221105 0)
(2.44735 0.0268345 0)
(2.44835 -0.138231 0)
(2.41204 -0.3292 0)
(2.34821 -0.505537 0)
(2.30487 -0.623014 0)
(2.22796 -0.745495 0)
(2.16558 -0.817577 0)
(2.11151 -0.854352 0)
(2.0606 -0.909485 0)
(2.05565 -0.907829 0)
(2.04242 -0.925507 0)
(2.06241 -0.947979 0)
(1.15092 1.30928 0)
(1.53605 1.48015 0)
(1.83273 1.4749 0)
(2.02887 1.37209 0)
(2.44138 0.928344 0)
(2.50621 1.06381 0)
(2.61929 0.71837 0)
(2.60727 0.348374 0)
(2.58983 0.263131 0)
(2.57367 0.0248129 0)
(2.56292 -0.158584 0)
(2.49552 -0.36072 0)
(2.45861 -0.473336 0)
(2.38764 -0.593399 0)
(2.33507 -0.645073 0)
(2.29388 -0.652845 0)
(2.25494 -0.66718 0)
(2.24654 -0.662452 0)
(2.18225 -0.735083 0)
(2.13556 -0.780771 0)
(1.28768 1.48597 0)
(1.59152 1.65281 0)
(1.87436 1.72023 0)
(1.9756 1.36916 0)
(1.98578 1.44977 0)
(2.30475 1.2385 0)
(2.54445 0.931731 0)
(2.67515 0.489927 0)
(2.67504 0.286876 0)
(2.6471 0.18641 0)
(2.63187 0.0523847 0)
(2.6077 -0.0629672 0)
(2.58223 -0.14429 0)
(2.54855 -0.221401 0)
(2.49592 -0.295265 0)
(2.47125 -0.310742 0)
(2.4334 -0.367765 0)
(2.3777 -0.475098 0)
(2.3027 -0.59248 0)
(2.29467 -0.573975 0)
(1.45533 1.67933 0)
(1.56526 1.88106 0)
(1.73523 1.87141 0)
(1.91061 1.50461 0)
(1.97982 1.61589 0)
(2.1929 1.31272 0)
(2.311 1.37262 0)
(2.44694 1.13152 0)
(2.53582 0.877602 0)
(2.54371 0.835005 0)
(2.57954 0.625564 0)
(2.60183 0.468337 0)
(2.60331 0.307702 0)
(2.62533 0.193297 0)
(2.5804 -0.0055261 0)
(2.58778 -0.100322 0)
(2.53486 -0.283358 0)
(2.4884 -0.364611 0)
(2.42968 -0.404297 0)
(2.46198 -0.316451 0)
(1.64774 1.82647 0)
(1.61499 2.06833 0)
(1.61773 2.11343 0)
(1.7936 1.90453 0)
(1.98009 1.85125 0)
(2.15178 1.50524 0)
(2.12128 1.56385 0)
(2.2699 1.39445 0)
(2.35593 1.2497 0)
(2.41862 1.12072 0)
(2.52176 0.928847 0)
(2.59901 0.720971 0)
(2.64684 0.491005 0)
(2.70468 0.315735 0)
(2.66259 0.0573086 0)
(2.65404 -0.0474547 0)
(2.62352 -0.177525 0)
(2.60003 -0.105146 0)
(2.55229 -0.126682 0)
(2.58362 -0.0496457 0)
(1.77207 1.89961 0)
(1.70643 2.14069 0)
(1.73271 2.26555 0)
(1.7784 2.17135 0)
(1.95087 1.98074 0)
(2.07951 1.66527 0)
(2.14259 1.63496 0)
(2.26308 1.50754 0)
(2.39387 1.40328 0)
(2.51998 1.14926 0)
(2.64606 0.925841 0)
(2.70864 0.674854 0)
(2.73429 0.508798 0)
(2.7474 0.36492 0)
(2.73916 0.254827 0)
(2.72133 0.235034 0)
(2.69923 0.198314 0)
(2.68961 0.272597 0)
(2.65055 0.188281 0)
(2.61559 0.0233924 0)
(1.71415 1.84907 0)
(1.82806 2.1254 0)
(1.85946 2.30112 0)
(1.88118 2.29734 0)
(2.05522 2.06575 0)
(2.18878 1.77687 0)
(2.34993 1.63825 0)
(2.47258 1.54683 0)
(2.64683 1.4244 0)
(2.71966 1.12741 0)
(2.75646 1.12662 0)
(2.78215 0.908007 0)
(2.75505 0.889068 0)
(2.74731 0.788042 0)
(2.73397 0.710987 0)
(2.71249 0.632768 0)
(2.70852 0.577355 0)
(2.74083 0.517164 0)
(2.71332 0.317751 0)
(2.68086 0.134089 0)
(1.54678 1.74049 0)
(1.8786 2.10023 0)
(1.96912 2.29863 0)
(2.1087 2.35828 0)
(2.27963 2.18706 0)
(2.35558 2.11957 0)
(2.47802 1.75327 0)
(2.54246 1.63908 0)
(2.58841 1.61927 0)
(2.63137 1.48599 0)
(2.59496 1.52053 0)
(2.63767 1.33939 0)
(2.61681 1.22921 0)
(2.64089 1.13677 0)
(2.6659 0.995976 0)
(2.6974 0.873944 0)
(2.75578 0.768356 0)
(2.79323 0.568213 0)
(2.79239 0.394638 0)
(2.73745 0.293684 0)
(1.40411 1.6487 0)
(1.67972 2.03529 0)
(1.98597 2.29034 0)
(2.12212 2.33226 0)
(2.31702 2.22943 0)
(2.35479 2.21594 0)
(2.41912 1.85796 0)
(2.3035 1.87325 0)
(2.28563 1.86996 0)