/*--------------------------------*- C++ -*----------------------------------*\
  =========                 |
  \\      /  F ield         | OpenFOAM: The Open Source CFD Toolbox
   \\    /   O peration     | Website:  https://openfoam.org
    \\  /    A nd           | Version:  7
     \\/     M anipulation  |
\*---------------------------------------------------------------------------*/
FoamFile
{
    version     2.0;
    format      ascii;
    class       volScalarField;
    location    "9.7";
    object      p;
}
// * * * * * * * * * * * * * * * * * * * * * * * * * * * * * * * * * * * * * //

dimensions      [1 -1 -2 0 0 0 0];

internalField   nonuniform List<scalar> 
3700
(
0.148276
0.208321
0.242812
0.29146
0.305574
0.324661
0.35319
0.402651
0.430676
0.434961
0.454093
0.469014
0.485006
0.488056
0.478467
0.497118
0.50843
0.513432
0.525211
0.514108
0.111682
0.0967273
0.104302
0.117261
0.108514
0.108262
0.120977
0.143505
0.139947
0.125224
0.125535
0.141466
0.161115
0.168645
0.170671
0.183162
0.203831
0.227704
0.23609
0.211785
0.118838
0.0919389
0.0774115
0.0645386
0.0582137
0.0554401
0.0560682
0.0609819
0.0583966
0.0613632
0.0630707
0.0689427
0.0778494
0.0893693
0.10061
0.110601
0.118984
0.123426
0.127025
0.12751
0.120782
0.0822668
0.0623821
0.0535731
0.0528974
0.0566272
0.062881
0.0750507
0.0827428
0.094007
0.0881361
0.0903326
0.0938641
0.103148
0.115
0.129133
0.145698
0.161822
0.178163
0.187296
0.118344
0.0700986
0.0516023
0.046989
0.0469502
0.0544512
0.0633491
0.0776529
0.0976046
0.116027
0.124697
0.131661
0.128641
0.129311
0.130501
0.138366
0.156195
0.181799
0.208212
0.243524
0.11866
0.0648394
0.0470101
0.0441766
0.0450225
0.0530596
0.0603084
0.0738188
0.0997673
0.123849
0.148251
0.162582
0.177948
0.189978
0.191926
0.190746
0.195599
0.209355
0.238086
0.301434
0.116004
0.0614821
0.0449491
0.0436826
0.0451804
0.054769
0.0613636
0.0733027
0.0962594
0.122148
0.157172
0.179255
0.209694
0.236019
0.259083
0.277341
0.291374
0.304292
0.320014
0.381132
0.105
0.0550155
0.0429499
0.0437216
0.0522483
0.0711768
0.0806442
0.0954577
0.111325
0.126956
0.155259
0.186322
0.23178
0.271715
0.311298
0.355669
0.393761
0.433251
0.455252
0.530399
0.0765508
0.0446078
0.0383307
0.0442012
0.0605375
0.091032
0.115004
0.144577
0.16528
0.187281
0.199795
0.222813
0.262165
0.312925
0.365473
0.427821
0.497138
0.570004
0.621309
0.739067
0.0516931
0.0350114
0.0337275
0.0418598
0.0602014
0.0964962
0.134314
0.181162
0.22389
0.275017
0.315654
0.359199
0.400153
0.447196
0.486914
0.541934
0.624773
0.726774
0.834885
0.971805
0.0357307
0.0286719
0.0297747
0.0382973
0.0567162
0.0917374
0.133805
0.186435
0.253488
0.34302
0.421459
0.495189
0.573387
0.643285
0.703844
0.771916
0.850093
0.943965
1.15207
1.14646
0.0269075
0.0235246
0.0255482
0.0374184
0.0556325
0.0910903
0.132374
0.176655
0.268894
0.396571
0.519971
0.634323
0.757412
0.856056
0.968396
1.08577
1.20323
1.31693
1.53403
1.49825
0.0225718
0.0199208
0.0203103
0.0372355
0.0727423
0.149875
0.23175
0.306626
0.444294
0.590791
0.743167
0.879667
1.02093
1.14765
1.30963
1.49521
1.67811
1.84627
2.09186
2.07588
0.020635
0.0172689
0.0167411
0.047288
0.153153
0.294038
0.422814
0.589206
0.79726
1.006
1.18452
1.34704
1.50825
1.66299
1.86039
2.08961
2.32819
2.5814
2.79466
2.99601
0.0185278
0.0159929
0.0231194
0.0987964
0.272523
0.440274
0.62552
0.887931
1.185
1.4899
1.72825
1.96065
2.18666
2.42381
2.71633
2.99547
3.2654
3.51198
3.65733
3.77903
0.0154536
0.0195532
0.0693823
0.199861
0.406406
0.658346
1.00391
1.39961
1.85819
2.25372
2.55524
2.84178
3.12423
3.42785
3.74614
3.95009
4.0769
4.13217
4.04066
3.91722
0.00933664
0.0360759
0.162956
0.393082
0.81196
1.405
2.00426
2.58904
3.17823
3.55419
3.78641
4.02617
4.23886
4.39447
4.47217
4.395
4.17331
3.63773
2.786
1.89346
0.0236972
0.126212
0.487695
1.17505
2.10103
2.90344
3.55931
4.25867
4.78621
4.82301
4.73657
4.74944
4.71088
4.54411
4.03557
3.07498
2.0931
1.33136
1.01792
0.992817
0.31344
0.895465
2.02436
3.22203
4.18325
4.8086
5.38923
5.87973
5.74001
5.28693
4.85148
4.31832
3.40238
2.33366
1.43027
1.03101
0.989413
0.994946
0.997332
0.999442
2.32513
3.6485
4.9045
5.70318
6.15784
6.4065
6.54744
6.25451
4.56187
3.22105
2.38086
1.56836
1.08003
0.987255
0.992756
0.996203
0.999139
0.999973
1.00002
1.00001
6.99076
6.93263
6.89508
6.88813
6.93793
6.79191
6.03043
2.35553
0.632657
1
1
1
1
1
1
1
1
1
1
1
6.9617
6.90017
6.84414
6.81893
6.89033
5.77698
2.58129
1.01662
1
1
1
1
1
1
1
1
1
1
1
1
6.80717
6.85287
6.81577
6.63507
6.40219
3.312
1.03023
0.999547
1
1
1
1
1
1
1
1
1
1
1
1
6.67498
6.831
6.81144
6.3877
4.72319
1.45656
0.994541
1.00009
0.999999
1
1
1
1
1
1
1
1
1
1
1
6.51508
6.83422
6.85445
6.16579
2.81661
0.973464
1.00036
0.999994
1
1
1
1
1
1
1
1
1
1
1
1
6.39168
6.75779
6.84885
5.0518
1.38563
1
1
1
1
1
1
1
1
1
1
1
1
1
1
1
6.35242
6.65144
6.60295
3.45388
0.974939
1
1
1
1
1
1
1
1
1
1
1
1
1
1
1
6.48141
6.63115
6.07489
2.06931
1
1
1
1
1
1
1
1
1
1
1
1
1
1
1
1
6.95289
6.72657
4.94465
1.16697
1
1
1
1
1
1
1
1
1
1
1
1
1
1
1
1
7.21032
6.35944
3.5438
0.987632
1
1
1
1
1
1
1
1
1
1
1
1
1
1
1
1
7.42242
6.02123
2.30433
1
1
1
1
1
1
1
1
1
1
1
1
1
1
1
1
1
7.51069
5.4038
1.5922
1
1
1
1
1
1
1
1
1
1
1
1
1
1
1
1
1
7.55838
4.72854
1.17354
1
1
1
1
1
1
1
1
1
1
1
1
1
1
1
1
1
7.42411
3.97014
1.00175
1
1
1
1
1
1
1
1
1
1
1
1
1
1
1
1
1
7.14317
3.18487
1
1
1
1
1
1
1
1
1
1
1
1
1
1
1
1
1
1
6.89119
2.58511
1
1
1
1
1
1
1
1
1
1
1
1
1
1
1
1
1
1
6.74158
1.91611
1
1
1
1
1
1
1
1
1
1
1
1
1
1
1
1
1
1
6.30438
1.34575
1
1
1
1
1
1
1
1
1
1
1
1
1
1
1
1
1
1
5.65598
1.00485
1
1
1
1
1
1
1
1
1
1
1
1
1
1
1
1
1
1
4.6689
1.00006
1
1
1
1
1
1
1
1
1
1
1
1
1
1
1
1
1
1
4.67135
1.00006
1
1
1
1
1
1
1
1
1
1
1
1
1
1
1
1
1
1
5.6699
1.00466
1
1
1
1
1
1
1
1
1
1
1
1
1
1
1
1
1
1
6.2844
1.33659
1
1
1
1
1
1
1
1
1
1
1
1
1
1
1
1
1
1
6.7584
1.90233
1
1
1
1
1
1
1
1
1
1
1
1
1
1
1
1
1
1
6.90597
2.59491
1
1
1
1
1
1
1
1
1
1
1
1
1
1
1
1
1
1
7.12511
3.20415
1
1
1
1
1
1
1
1
1
1
1
1
1
1
1
1
1
1
7.42092
3.95908
1.00086
1
1
1
1
1
1
1
1
1
1
1
1
1
1
1
1
1
7.56409
4.72463
1.17159
1
1
1
1
1
1
1
1
1
1
1
1
1
1
1
1
1
7.51916
5.39699
1.59069
1
1
1
1
1
1
1
1
1
1
1
1
1
1
1
1
1
7.43668
6.03015
2.28915
1
1
1
1
1
1
1
1
1
1
1
1
1
1
1
1
1
7.21403
6.35686
3.54208
0.987508
1
1
1
1
1
1
1
1
1
1
1
1
1
1
1
1
6.93932
6.72262
4.94533
1.17414
1
1
1
1
1
1
1
1
1
1
1
1
1
1
1
1
6.47494
6.64656
6.09987
2.07114
1
1
1
1
1
1
1
1
1
1
1
1
1
1
1
1
6.35028
6.64955
6.5864
3.46866
0.978591
1
1
1
1
1
1
1
1
1
1
1
1
1
1
1
6.38466
6.74678
6.84331
5.00915
1.3685
1
1
1
1
1
1
1
1
1
1
1
1
1
1
1
6.50707
6.83474
6.86621
6.25006
2.79115
0.973597
1.00037
0.999994
1
1
1
1
1
1
1
1
1
1
1
1
6.66634
6.83094
6.82381
6.38854
4.74998
1.48072
0.994059
1.00009
0.999999
1
1
1
1
1
1
1
1
1
1
1
6.79814
6.84959
6.79462
6.59019
6.34991
3.32809
1.03599
0.999437
1
1
1
1
1
1
1
1
1
1
1
1
6.95444
6.89683
6.83619
6.80791
6.92529
5.77422
2.56292
1.01324
1
1
1
1
1
1
1
1
1
1
1
1
6.99376
6.9353
6.90287
6.90886
6.97284
6.79783
6.02948
2.33385
0.636376
1
1
1
1
1
1
1
1
1
1
1
2.3291
3.65033
4.91126
5.72408
6.17684
6.40958
6.5462
6.25016
4.56008
3.22076
2.38091
1.56946
1.08066
0.987376
0.992808
0.996219
0.999139
0.999973
1.00002
1.00001
0.309686
0.880294
1.99671
3.20148
4.18971
4.82611
5.39237
5.87775
5.73946
5.28816
4.85143
4.3164
3.39945
2.32961
1.42698
1.03008
0.989407
0.994952
0.997335
0.999444
0.0335624
0.157783
0.501212
1.17829
2.08342
2.88353
3.55911
4.26585
4.78631
4.82243
4.73347
4.74667
4.70922
4.54523
4.0368
3.07489
2.09165
1.32993
1.01752
0.992819
0.0051998
0.0297641
0.174496
0.391286
0.802523
1.40272
1.99502
2.58095
3.17401
3.54994
3.78387
4.02203
4.23485
4.39704
4.47494
4.39795
4.17584
3.63761
2.78379
1.89177
0.0075906
0.01669
0.0773218
0.20449
0.416216
0.661543
1.00153
1.40638
1.8653
2.25759
2.55608
2.8394
3.1213
3.4282
3.75123
3.9572
4.08229
4.13293
4.04034
3.91602
0.0113623
0.0121003
0.0279937
0.106542
0.271848
0.437379
0.639052
0.897699
1.1966
1.49996
1.73422
1.96154
2.18563
2.42335
2.71962
3.00096
3.2701
3.51218
3.65537
3.7777
0.0139945
0.0130811
0.0175036
0.0485354
0.14618
0.289378
0.419682
0.587331
0.796331
1.00482
1.18149
1.34158
1.50253
1.65923
1.86068
2.09367
2.3322
2.58321
2.79361
2.99489
0.0179894
0.0162788
0.0213115
0.0384221
0.0695251
0.150645
0.217602
0.295072
0.431742
0.580671
0.735173
0.874863
1.01984
1.14941
1.31379
1.49866
1.67937
1.8452
2.09022
2.07425
0.0252195
0.021755
0.0272872
0.0411434
0.0574544
0.0918998
0.130448
0.177435
0.269973
0.398302
0.52185
0.637014
0.760543
0.859105
0.969734
1.08514
1.20071
1.31464
1.53278
1.49814
0.0374924
0.0288134
0.0316351
0.0430692
0.0580718
0.0910758
0.136099
0.188179
0.25711
0.344992
0.422472
0.495666
0.572662
0.642093
0.700937
0.768329
0.847728
0.943564
1.15342
1.14776
0.0555126
0.0385439
0.0332854
0.044472
0.060075
0.0939058
0.137119
0.180651
0.224743
0.273919
0.312928
0.355044
0.394581
0.441779
0.483721
0.541744
0.62807
0.7301
0.836611
0.972136
0.0768392
0.049221
0.0370175
0.0472183
0.0590063
0.0862788
0.116986
0.142878
0.163518
0.183772
0.195922
0.220282
0.263413
0.316139
0.369665
0.432065
0.500281
0.571807
0.620761
0.737022
0.0948327
0.0580206
0.0405003
0.0455639
0.0504074
0.0647048
0.0801839
0.0957789
0.11017
0.127067
0.158414
0.190675
0.236349
0.275929
0.314625
0.357358
0.393788
0.431592
0.45329
0.527469
0.106381
0.0633611
0.0429007
0.0434581
0.0437362
0.0512239
0.0619183
0.0753231
0.0976652
0.124774
0.160364
0.18256
0.212325
0.237359
0.259052
0.275374
0.288239
0.300385
0.317005
0.379227
0.117105
0.0683603
0.0456334
0.0440567
0.0440535
0.0505181
0.0620012
0.0763073
0.10138
0.125876
0.149948
0.163555
0.177469
0.188004
0.188703
0.187842
0.192822
0.20823
0.239556
0.302983
0.126565
0.0770941
0.0536553
0.0488757
0.0480666
0.0529967
0.0651185
0.0784206
0.0987032
0.116629
0.123857
0.129862
0.125839
0.126453
0.127978
0.137813
0.157568
0.183922
0.210348
0.244818
0.128025
0.0912339
0.0711991
0.0589038
0.0558801
0.0571693
0.063482
0.0722072
0.0817443
0.0925388
0.0860714
0.088053
0.0917158
0.101886
0.114699
0.129897
0.147369
0.163563
0.179323
0.187321
0.118642
0.0922214
0.0838361
0.0730342
0.0627447
0.0567346
0.055293
0.0561994
0.0572352
0.0597398
0.0619792
0.0681542
0.0772547
0.0892728
0.101208
0.111672
0.119935
0.123922
0.126972
0.126961
0.107215
0.097011
0.10548
0.111552
0.125771
0.137938
0.141969
0.142167
0.150061
0.156073
0.159708
0.146105
0.147282
0.163547
0.190175
0.216794
0.218736
0.205593
0.206297
0.206062
0.127629
0.210255
0.247289
0.279951
0.317192
0.358352
0.37436
0.408169
0.445887
0.456019
0.474248
0.468008
0.476566
0.490922
0.493357
0.504728
0.506391
0.49887
0.517412
0.527037
0.560889
0.636424
0.707245
0.823638
0.829681
0.847395
0.83876
0.858715
0.888772
0.922494
0.942753
0.946138
0.941144
0.9481
0.954679
0.948421
0.95131
0.954419
0.961463
0.965805
0.279869
0.415574
0.552535
0.689022
0.765697
0.831423
0.837199
0.850066
0.876701
0.907009
0.931955
0.940561
0.938487
0.938764
0.943236
0.948287
0.956534
0.961663
0.963269
0.961042
0.134403
0.162676
0.241013
0.333834
0.513299
0.692992
0.763541
0.837533
0.878672
0.902713
0.925029
0.934262
0.936609
0.934623
0.936368
0.943582
0.954537
0.962405
0.963519
0.961869
0.18743
0.213497
0.222155
0.236213
0.257108
0.335765
0.548357
0.733811
0.813516
0.873714
0.920118
0.930376
0.931311
0.934428
0.935568
0.943127
0.956192
0.961777
0.960326
0.956901
0.241529
0.255228
0.270916
0.287198
0.303696
0.297985
0.321736
0.421201
0.613394
0.778975
0.873369
0.91956
0.936051
0.940376
0.938523
0.948913
0.960315
0.957986
0.951737
0.952601
0.315642
0.323496
0.327927
0.328978
0.330997
0.334102
0.342952
0.334852
0.366624
0.48659
0.686808
0.85756
0.924712
0.947818
0.94941
0.959828
0.964461
0.955213
0.946048
0.952485
0.400728
0.410101
0.38096
0.361539
0.36869
0.381232
0.384652
0.381753
0.369246
0.367364
0.439623
0.638989
0.84353
0.941125
0.956921
0.9687
0.963139
0.944751
0.945246
0.956443
0.526123
0.50872
0.459884
0.40876
0.404694
0.41796
0.432521
0.428521
0.414125
0.388433
0.380108
0.428429
0.614596
0.829078
0.952101
0.970076
0.955585
0.938344
0.95245
0.962217
0.681203
0.625637
0.549566
0.464854
0.452736
0.466944
0.479384
0.474966
0.458099
0.432791
0.401572
0.397036
0.432338
0.616871
0.833725
0.949558
0.921617
0.929547
0.959824
0.963439
0.861176
0.777646
0.678359
0.562872
0.517915
0.507148
0.515866
0.5131
0.494147
0.469062
0.449046
0.422705
0.422698
0.454881
0.608779
0.823952
0.878956
0.932886
0.969459
0.960281
1.22874
0.974148
0.851179
0.725749
0.605709
0.557946
0.561313
0.571436
0.559136
0.537052
0.509108
0.480939
0.462684
0.45454
0.473233
0.563761
0.743147
0.886894
0.935825
0.950917
2.04874
1.44821
1.15626
1.0246
0.891566
0.734251
0.664612
0.652016
0.622023
0.582133
0.562177
0.550303
0.529694
0.507776
0.47863
0.481659
0.520139
0.63836
0.787849
0.910714
2.51032
2.16844
1.69879
1.34305
1.13611
0.967456
0.782902
0.732498
0.703243
0.667702
0.663574
0.652191
0.623745
0.591013
0.552504
0.518965
0.521924
0.533425
0.577329
0.748161
2.36794
2.34978
2.23636
1.91577
1.54325
1.30561
1.07474
0.943405
0.883228
0.816429
0.762596
0.71019
0.668415
0.63417
0.612605
0.583053
0.565233
0.556449
0.547157
0.581318
1.67996
2.14883
2.22179
2.19458
2.05111
1.78127
1.50218
1.24285
1.08185
0.948271
0.860484
0.78821
0.717133
0.698201
0.700999
0.682455
0.650895
0.619142
0.573415
0.574585
1.10872
1.43638
1.84931
2.11419
2.11285
2.0729
1.93946
1.68089
1.43637
1.23656
1.08127
0.991821
0.895549
0.833015
0.799812
0.753255
0.69258
0.651852
0.628896
0.609146
1.00455
1.0438
1.20682
1.54877
1.86454
2.02023
2.01519
1.97117
1.83364
1.6306
1.39031
1.21602
1.08574
0.966747
0.884822
0.830326
0.762935
0.734314
0.733188
0.7018
1.00009
1.0011
1.01059
1.07947
1.26854
1.56894
1.82345
1.93718
1.93004
1.88964
1.76977
1.57352
1.38817
1.22079
1.07801
1.00641
0.942857
0.879706
0.828528
0.759992
1
1.00001
1.00015
1.00258
1.01835
1.10079
1.29113
1.55903
1.76282
1.85897
1.85367
1.81585
1.7189
1.56198
1.37671
1.22102
1.10827
1.00367
0.920702
0.829757
1
1
1
1.00003
1.0003
1.00408
1.02426
1.10936
1.28542
1.52815
1.69925
1.78535
1.78247
1.75732
1.6791
1.53758
1.38324
1.23474
1.12654
0.999375
1
1
1
1
1
1.00005
1.00047
1.00487
1.027
1.10431
1.26474
1.47889
1.64099
1.72191
1.72026
1.70138
1.64165
1.52743
1.39732
1.19754
1
1
1
1
1
1
1
1.00006
1.0006
1.00458
1.02663
1.09343
1.23391
1.41939
1.58355
1.6657
1.66351
1.65039
1.61486
1.46217
1
1
1
1
1
1
1
1
1.00001
1.00006
1.00063
1.00405
1.02222
1.08107
1.19765
1.36609
1.51181
1.61485
1.61391
1.58758
1
1
1
1
1
1
1
1
1
1
1.00001
1.00005
1.00052
1.00352
1.0169
1.06627
1.16298
1.31389
1.44493
1.55229
1
1
1
1
1
1
1
1
1
1
1
1
1.00001
1.00005
1.0004
1.00266
1.01393
1.05125
1.1364
1.38979
1.63133
2.46264
2.58383
2.08523
1.31034
1.03701
1.00188
1.00005
1
1
1
1
1
1
1
2.34228
2.81738
2.52728
1.54167
1.04841
1.00082
1
1
1
1
1
1
1
1
1
2.93474
2.87278
1.98188
1.15195
1.00515
1.00005
1
1
1
1
1
1
1
1
1
3.2525
2.55469
1.3637
1.01927
1.00019
1
1
1
1
1
1
1
1
1
1
3.31899
1.68415
1.04747
1.00053
1
1
1
1
1
1
1
1
1
1
1
2.07152
1.07338
1.00046
0.999999
1
1
1
1
1
1
1
1
1
1
1
1.10343
1.0006
0.999997
1
1
1
1
1
1
1
1
1
1
1
1
0.998123
0.999864
0.999996
1
1
1
1
1
1
1
1
1
1
1
1
0.999967
1
1
1
1
1
1
1
1
1
1
1
1
1
1
1
1
1
1
1
1
1
1
1
1
1
1
1
1
1
1
1
1
1
1
1
1
1
1
1
1
1
1
1
1
1
1
1
1
1
1
1
1
1
1
1
1
1
1
1
1
1
1
1
1
1
1
1
1
1
1
1
1
1
1
1
1
1
1
1
1
1
1
1
1
1
1
1
1
1
1
1
1
1
1
1
1
1
1
1
1
1
1
1
1
1
1
1
1
1
1
1
1
1
1
1
1
1
1
1
1
1
1
1
1
1
1
1
1
1
1
1
1
1
1
1
1
1
1
1
1
1
1
1
1
1
1
1
1
1
1
1
1
1
1
1
1
1
1
1
1
1
1
1
1
1
1
1
1
1
1
1
1
1
1
1
1
1
1
1
1
1
1
1
1
1
1
1
1
1
1
1
1
1
1
1
1
1
1
1
1
1
1
1
1
1
1
1
1
1
1
1
1
1
1
1
1
1
1
1
1
1
1
1
1
1
1
1
1
1
1
1
1
1
1
1
1
1
1
1
1
1
1
1
1
1
1
1
1
1
1
1
1
1
1
1
1
1
1
1
1
1
1
1
1
1
1
1
1
1
1
1
1
1
1
1
1
1
1
1
1
1
1
1
1
1
1
1
1
1
1
1
1
1
1
1
1
1
1
1
1
1
1
1
1
1
1
1
1
1
1
1
1
1
1
1
1
1
1
1
1
1
1
1
1
1
1
1
1
1
1
1
1
1
1
1
1
1
1
1
1
1
1
1
1
1
1
1
1
1
1
1
1
1
1
1
1
1
1
1
1
1
1
1
1
1
1
1
1
1
1
1
1
1
1
1
1
1
1
1
1
1
1
1
1
1
1
1
1
1
1
1
1
1
1
1
1
1
1
1
1
1
1
1
1
1
1
1
1
1
1
1
1
1
1
1
1
1
1
1
1
1
1
1
1
1
1
1
1
1
1
1
1
1
1
1
1
1
1
1
1
1
1
1
1
1
1
1
1
1
1
1
1
1
1
1
1
1
1
1
1
1
1
1
1
1
1
1
1
1
1
1
1
1
1
1
1
1
1
1
1
1
1
1
1
1
1
1
1
1
1
1
1
1
1
1
1
1
1
1
1
1
1
1
1
1
1
1
1
1
1
1
1
1
1
1
1
1
1
1
1
1
1
1
1
1
1
1
1
1
1
1
1
1
1
1
1
1
1
1
1
1
1
1
1
1
1
1
1
1
1
1
1
1
1
1
1
1
1
1
1
1
1
1
1
1
1
1
1
1
1
1
1
1
1
1
1
1
1
1
1
1
1
1
1
1
1
1
1
1
1
1
1
1
1
1
1
1
1
1
1
1
1
1
1
1
1
1
1
1
1
1
1
1
1
1
1
1
1
1
1
1
1
1
1
1
1
1
1
1
1
1
1
1
1
1
1
1
1
1
1
1
1
1
1
1
1
1
1
1
1
1
1
1
1
1
1
1
1
1
1
1
1
1
1
1
1
1
1
1
1
1
1
1
1
1
1
1
1
1
1
1
1
1
1
1
1
1
1
1
1
1
1
1
1
1
1
1
1
1
1
1
1
1
1
1
1
1
1
1
1
1
1
1
1
1
1
1
1
1
1
1
1
1
1
1
1
1
1
1
1
1
1
1
1
1
1
1
1
1
1
1
1
1
1
1
1
1
1
1
1
1
1
1
1
1
1
1
1
1
1
1
1
1
1
1
1
1
1
1
1
1
1
1
1
1
1
1
1
1
1
1
1
1
1
1
1
1
1
1
1
1
1
1
1
1
1
1
1
1
1
1
1
1
1
1
1
1
1
1
1
1
1
1
1
1
1
1
1
1
1
1
1
1
1
1
1
1
1
1
1
1
1
1
1
1
1
1
1
1
1
1
1
1
1
0.999967
1
1
1
1
1
1
1
1
1
1
1
1
1
1
0.998123
0.999864
0.999996
1
1
1
1
1
1
1
1
1
1
1
1
1.10325
1.00059
0.999997
1
1
1
1
1
1
1
1
1
1
1
1
2.07123
1.07343
1.00047
0.999999
1
1
1
1
1
1
1
1
1
1
1
3.31863
1.68457
1.04753
1.00053
1
1
1
1
1
1
1
1
1
1
1
3.25243
2.55485
1.36386
1.01927
1.00019
1
1
1
1
1
1
1
1
1
1
2.93478
2.87312
1.98226
1.15196
1.00515
1.00005
1
1
1
1
1
1
1
1
1
2.3421
2.81797
2.52741
1.54152
1.04837
1.00082
1
1
1
1
1
1
1
1
1
1.63213
2.46365
2.5839
2.08486
1.31015
1.03701
1.00188
1.00005
1
1
1
1
1
1
1
1.22586
2.04731
2.51063
2.36822
1.6794
1.10847
1.00453
1.00009
1
1
1
1
1
1
1
0.971072
1.44826
2.16515
2.34998
2.1502
1.43698
1.04395
1.0011
1.00001
1
1
1
1
1
1
0.850699
1.15902
1.69939
2.23455
2.22243
1.8505
1.20739
1.01062
1.00015
1
1
1
1
1
1
0.725055
1.02379
1.34868
1.91609
2.19487
2.11447
1.54969
1.07958
1.00258
1.00003
1
1
1
1
1
0.602403
0.884494
1.1387
1.55488
2.04937
2.11271
1.8643
1.26887
1.01849
1.00031
1
1
1
1
1
0.562226
0.738652
0.948229
1.29561
1.78671
2.07307
2.01957
1.56982
1.1006
1.00403
1.00005
1
1
1
1
0.572639
0.682362
0.790126
1.0662
1.49393
1.93625
2.01467
1.82264
1.29127
1.02437
1.00047
1
1
1
1
0.5783
0.658346
0.741831
0.954986
1.23967
1.68094
1.97066
1.93603
1.55783
1.10911
1.00486
1.00006
1
1
1
0.560731
0.617573
0.689696
0.88124
1.08546
1.44355
1.83458
1.9295
1.76408
1.28504
1.0267
1.00059
1.00001
1
1
0.532915
0.579564
0.672122
0.821408
0.948504
1.23169
1.62957
1.89018
1.85904
1.52704
1.1045
1.00461
1.00006
1
1
0.500491
0.560259
0.666991
0.768595
0.85783
1.07626
1.39631
1.76899
1.85328
1.69905
1.26443
1.02655
1.00063
1.00001
1
0.469023
0.546693
0.646899
0.708627
0.785789
0.987645
1.22274
1.57612
1.81576
1.78629
1.47915
1.09321
1.00403
1.00005
1
0.461034
0.530914
0.615624
0.659631
0.725029
0.899413
1.08188
1.39271
1.71994
1.78325
1.64019
1.23385
1.02228
1.00053
1.00001
0.45837
0.511039
0.584626
0.627797
0.715887
0.84489
0.960198
1.22032
1.56085
1.75769
1.72217
1.41982
1.08098
1.00351
1.00005
0.474581
0.479041
0.547944
0.606882
0.712846
0.806085
0.882073
1.08016
1.37587
1.67911
1.72069
1.58354
1.19771
1.01692
1.0004
0.563963
0.482944
0.518572
0.580034
0.685891
0.748316
0.820324
1.00853
1.22296
1.5377
1.70203
1.66573
1.36622
1.06625
1.00266
0.748677
0.523433
0.522468
0.561625
0.651191
0.691049
0.759656
0.93812
1.10765
1.38363
1.64238
1.66357
1.51218
1.1631
1.01396
0.892025
0.644104
0.535319
0.552547
0.620448
0.654315
0.733915
0.875624
1.00171
1.23572
1.52769
1.65042
1.61476
1.31404
1.05132
0.941973
0.793329
0.578286
0.54498
0.574274
0.632253
0.732365
0.828415
0.919185
1.12689
1.3971
1.61476
1.61378
1.44499
1.1364
0.954309
0.912085
0.745073
0.578053
0.571722
0.611555
0.703034
0.761584
0.82896
0.998553
1.19703
1.462
1.5875
1.55228
1.38979
0.860257
0.782114
0.681567
0.552865
0.511809
0.504917
0.511456
0.502288
0.486275
0.466106
0.43779
0.41974
0.424293
0.458836
0.606833
0.826098
0.88187
0.936744
0.97288
0.965197
0.683042
0.629636
0.551372
0.460171
0.456282
0.467489
0.47159
0.460579
0.445965
0.431207
0.404657
0.4033
0.440066
0.620221
0.842014
0.948681
0.922544
0.931938
0.962959
0.966572
0.528226
0.512123
0.457797
0.402327
0.399919
0.419053
0.424278
0.418819
0.412125
0.395973
0.387095
0.435239
0.629146
0.829316
0.92521
0.961141
0.95227
0.9384
0.953731
0.963479
0.403133
0.41022
0.380918
0.360361
0.367306
0.379919
0.380636
0.379613
0.375243
0.371141
0.445287
0.647859
0.84623
0.937481
0.943864
0.958961
0.960031
0.945329
0.94457
0.954355
0.316375
0.324081
0.328017
0.328842
0.331282
0.335277
0.342912
0.336857
0.361424
0.474614
0.681412
0.860599
0.91115
0.942855
0.947645
0.960657
0.963323
0.956297
0.94603
0.950372
0.239946
0.261722
0.265521
0.279104
0.299203
0.29637
0.320132
0.411052
0.601379
0.772664
0.868866
0.916906
0.925555
0.941369
0.949168
0.959481
0.962515
0.958194
0.951978
0.951706
0.186945
0.213652
0.230089
0.239027
0.263543
0.349587
0.554657
0.735376
0.818497
0.88
0.923652
0.928854
0.928582
0.936907
0.945457
0.95503
0.960213
0.961423
0.958497
0.956077
0.134676
0.163058
0.237207
0.331129
0.535697
0.706127
0.765255
0.839108
0.886699
0.913521
0.931551
0.938846
0.937701
0.939292
0.943899
0.955726
0.961567
0.964154
0.962738
0.958688
0.284283
0.415262
0.539372
0.691109
0.776907
0.838195
0.836785
0.856164
0.88877
0.918653
0.941533
0.949444
0.940465
0.938948
0.948265
0.955777
0.95742
0.959317
0.960861
0.962801
0.561757
0.634174
0.705511
0.827377
0.83194
0.836959
0.836412
0.860535
0.893024
0.915464
0.929959
0.934997
0.934578
0.945544
0.955821
0.952824
0.946974
0.950771
0.96244
0.968034
)
;

boundaryField
{
    inlet
    {
        type            fixedValue;
        value           uniform 1;
    }
    outlet
    {
        type            zeroGradient;
    }
    airfoil
    {
        type            zeroGradient;
    }
    top
    {
        type            symmetryPlane;
    }
    bottom
    {
        type            symmetryPlane;
    }
    defaultFaces
    {
        type            empty;
    }
}


// ************************************************************************* //
