/*--------------------------------*- C++ -*----------------------------------*\
  =========                 |
  \\      /  F ield         | OpenFOAM: The Open Source CFD Toolbox
   \\    /   O peration     | Website:  https://openfoam.org
    \\  /    A nd           | Version:  7
     \\/     M anipulation  |
\*---------------------------------------------------------------------------*/
FoamFile
{
    version     2.0;
    format      ascii;
    class       volScalarField;
    location    "9.7";
    object      rho;
}
// * * * * * * * * * * * * * * * * * * * * * * * * * * * * * * * * * * * * * //

dimensions      [1 -3 0 0 0 0 0];

internalField   nonuniform List<scalar> 
3700
(
0.206394
0.289561
0.337383
0.404814
0.424419
0.450755
0.48986
0.557703
0.596322
0.602348
0.628928
0.649471
0.671485
0.675793
0.662699
0.688549
0.704074
0.710947
0.72728
0.71211
0.155941
0.135113
0.145642
0.163644
0.151477
0.151067
0.168538
0.199638
0.194746
0.174463
0.174992
0.197022
0.224274
0.23487
0.237913
0.25532
0.284015
0.317043
0.328662
0.295044
0.165894
0.128444
0.108222
0.0902876
0.0814798
0.0776268
0.0785279
0.0854054
0.0818165
0.0859768
0.0883732
0.0965804
0.109022
0.125111
0.140814
0.154778
0.166501
0.17272
0.177766
0.178475
0.168547
0.114927
0.0872442
0.0749754
0.0740427
0.0792698
0.0880181
0.105027
0.115793
0.131562
0.123402
0.126505
0.131453
0.144415
0.160951
0.180689
0.203833
0.22635
0.249188
0.261962
0.165102
0.097955
0.072214
0.0657979
0.0657541
0.0762378
0.0886711
0.108647
0.136517
0.162262
0.174396
0.184159
0.179986
0.180964
0.182643
0.193629
0.218523
0.254261
0.291137
0.340417
0.165522
0.0906398
0.0658333
0.0618979
0.0630875
0.0743233
0.0844568
0.103319
0.139537
0.173163
0.207247
0.227284
0.248763
0.265597
0.268357
0.266752
0.273561
0.292786
0.33288
0.42121
0.161835
0.0859936
0.0629785
0.0612224
0.0633186
0.0767296
0.0859513
0.102623
0.134682
0.170809
0.219701
0.250546
0.293029
0.329797
0.362006
0.387499
0.407108
0.425152
0.447113
0.53235
0.14657
0.0770037
0.0601998
0.0612846
0.0732184
0.099697
0.112952
0.133638
0.155777
0.177561
0.217066
0.260434
0.323857
0.37958
0.4348
0.496669
0.549789
0.60486
0.635536
0.740199
0.107011
0.0624877
0.0537454
0.0619567
0.0847815
0.127395
0.160901
0.202202
0.231118
0.261804
0.279277
0.311394
0.3663
0.437089
0.510346
0.597239
0.693802
0.79531
0.866777
1.03064
0.0723733
0.0490824
0.0473029
0.058678
0.0842937
0.13497
0.187747
0.253139
0.312751
0.384044
0.440718
0.501427
0.558507
0.624104
0.679506
0.756204
0.871569
1.01354
1.16396
1.35435
0.0500869
0.0402186
0.0417641
0.0536887
0.079407
0.128274
0.186947
0.260404
0.353924
0.478698
0.587997
0.690729
0.799625
0.897014
0.981362
1.07617
1.18501
1.31565
1.60493
1.59714
0.0377508
0.033016
0.0358399
0.0524468
0.077847
0.127263
0.184857
0.246701
0.375334
0.553245
0.725122
0.884351
1.05566
1.19298
1.34928
1.51255
1.67586
1.83387
2.1354
2.08575
0.031684
0.0279706
0.0285019
0.0521455
0.101659
0.209163
0.323392
0.427736
0.619455
0.823453
1.03562
1.22563
1.42219
1.59846
1.82358
2.08139
2.33536
2.56879
2.90954
2.88738
0.028974
0.0242562
0.0235008
0.0661403
0.213758
0.410008
0.589428
0.820997
1.11037
1.40064
1.64898
1.87499
2.09913
2.31417
2.58827
2.90641
3.2374
3.58855
3.88437
4.16381
0.0260258
0.0224678
0.0324131
0.138006
0.379988
0.613599
0.871373
1.23623
1.64909
2.0728
2.40411
2.72697
3.04076
3.36968
3.77525
4.16227
4.53657
4.8786
5.0807
5.25003
0.0217272
0.0274489
0.0970679
0.278904
0.566343
0.916878
1.39725
1.947
2.58374
3.13306
3.55174
3.94932
4.34083
4.76129
5.20223
5.48495
5.66116
5.73831
5.61264
5.44351
0.0131438
0.0505724
0.227586
0.547793
1.1301
1.95377
2.78565
3.59697
4.41429
4.93594
5.25799
5.59015
5.88446
6.10006
6.20794
6.1015
5.79677
5.05864
3.88042
2.64347
0.0333426
0.176535
0.679645
1.63441
2.91921
4.03219
4.94163
5.91095
6.64219
6.69312
6.57326
6.59113
6.53768
6.30766
5.60645
4.27826
2.91984
1.86203
1.42502
1.38998
0.438318
1.24711
2.81329
4.4734
5.80531
6.67198
7.4764
8.15618
7.96269
7.33495
6.73189
5.99542
4.72915
3.25186
1.99941
1.44326
1.38523
1.39295
1.39628
1.39923
3.23271
5.06558
6.80423
7.90965
8.53942
8.88477
9.08006
8.67545
6.33301
4.47528
3.31406
2.19054
1.51159
1.38222
1.3899
1.3947
1.3988
1.39997
1.40003
1.40002
9.69033
9.61001
9.55831
9.54927
9.61939
9.41936
8.36854
3.28243
0.88714
1.40001
1.40001
1.40001
1.40001
1.40001
1.40001
1.40001
1.40001
1.40001
1.40001
1.40001
9.64997
9.56497
9.4878
9.45392
9.55505
8.01971
3.59678
1.4231
1.40001
1.40001
1.40001
1.40001
1.40001
1.40001
1.40001
1.40001
1.40001
1.40001
1.40001
1.40001
9.4364
9.4996
9.4486
9.20001
8.88103
4.60794
1.4419
1.39938
1.40001
1.40001
1.40001
1.40001
1.40001
1.40001
1.40001
1.40001
1.40001
1.40001
1.40001
1.40001
9.25373
9.46945
9.44273
8.85873
6.55994
2.03394
1.39241
1.40013
1.4
1.40001
1.40001
1.40001
1.40001
1.40001
1.40001
1.40001
1.40001
1.40001
1.40001
1.40001
9.0328
9.47416
9.50248
8.55316
3.92047
1.36297
1.40051
1.4
1.40001
1.40001
1.40001
1.40001
1.40001
1.40001
1.40001
1.40001
1.40001
1.40001
1.40001
1.40001
8.86224
9.36882
9.49541
7.01411
1.9354
1.40001
1.40001
1.40001
1.40001
1.40001
1.40001
1.40001
1.40001
1.40001
1.40001
1.40001
1.40001
1.40001
1.40001
1.40001
8.80793
9.22192
9.15603
4.80239
1.36501
1.40001
1.40001
1.40001
1.40001
1.40001
1.40001
1.40001
1.40001
1.40001
1.40001
1.40001
1.40001
1.40001
1.40001
1.40001
8.98565
9.19395
8.42745
2.88327
1.40001
1.40001
1.40001
1.40001
1.40001
1.40001
1.40001
1.40001
1.40001
1.40001
1.40001
1.40001
1.40001
1.40001
1.40001
1.40001
9.6372
9.32611
6.8658
1.63166
1.40001
1.40001
1.40001
1.40001
1.40001
1.40001
1.40001
1.40001
1.40001
1.40001
1.40001
1.40001
1.40001
1.40001
1.40001
1.40001
9.99294
8.82003
4.92722
1.38274
1.40001
1.40001
1.40001
1.40001
1.40001
1.40001
1.40001
1.40001
1.40001
1.40001
1.40001
1.40001
1.40001
1.40001
1.40001
1.40001
10.2861
8.35385
3.20989
1.40001
1.40001
1.40001
1.40001
1.40001
1.40001
1.40001
1.40001
1.40001
1.40001
1.40001
1.40001
1.40001
1.40001
1.40001
1.40001
1.40001
10.408
7.50125
2.22216
1.40001
1.40001
1.40001
1.40001
1.40001
1.40001
1.40001
1.40001
1.40001
1.40001
1.40001
1.40001
1.40001
1.40001
1.40001
1.40001
1.40001
10.4739
6.56773
1.64103
1.40001
1.40001
1.40001
1.40001
1.40001
1.40001
1.40001
1.40001
1.40001
1.40001
1.40001
1.40001
1.40001
1.40001
1.40001
1.40001
1.40001
10.2885
5.51808
1.40244
1.40001
1.40001
1.40001
1.40001
1.40001
1.40001
1.40001
1.40001
1.40001
1.40001
1.40001
1.40001
1.40001
1.40001
1.40001
1.40001
1.40001
9.9002
4.42963
1.40001
1.40001
1.40001
1.40001
1.40001
1.40001
1.40001
1.40001
1.40001
1.40001
1.40001
1.40001
1.40001
1.40001
1.40001
1.40001
1.40001
1.40001
9.55292
3.59803
1.40001
1.40001
1.40001
1.40001
1.40001
1.40001
1.40001
1.40001
1.40001
1.40001
1.40001
1.40001
1.40001
1.40001
1.40001
1.40001
1.40001
1.40001
9.3484
2.67067
1.40001
1.40001
1.40001
1.40001
1.40001
1.40001
1.40001
1.40001
1.40001
1.40001
1.40001
1.40001
1.40001
1.40001
1.40001
1.40001
1.40001
1.40001
8.74732
1.87992
1.40001
1.40001
1.40001
1.40001
1.40001
1.40001
1.40001
1.40001
1.40001
1.40001
1.40001
1.40001
1.40001
1.40001
1.40001
1.40001
1.40001
1.40001
7.85141
1.40674
1.40001
1.40001
1.40001
1.40001
1.40001
1.40001
1.40001
1.40001
1.40001
1.40001
1.40001
1.40001
1.40001
1.40001
1.40001
1.40001
1.40001
1.40001
6.48366
1.40008
1.40001
1.40001
1.40001
1.40001
1.40001
1.40001
1.40001
1.40001
1.40001
1.40001
1.40001
1.40001
1.40001
1.40001
1.40001
1.40001
1.40001
1.40001
6.48699
1.4001
1.40001
1.40001
1.40001
1.40001
1.40001
1.40001
1.40001
1.40001
1.40001
1.40001
1.40001
1.40001
1.40001
1.40001
1.40001
1.40001
1.40001
1.40001
7.87059
1.40648
1.40001
1.40001
1.40001
1.40001
1.40001
1.40001
1.40001
1.40001
1.40001
1.40001
1.40001
1.40001
1.40001
1.40001
1.40001
1.40001
1.40001
1.40001
8.71984
1.86722
1.40001
1.40001
1.40001
1.40001
1.40001
1.40001
1.40001
1.40001
1.40001
1.40001
1.40001
1.40001
1.40001
1.40001
1.40001
1.40001
1.40001
1.40001
9.37195
2.65159
1.40001
1.40001
1.40001
1.40001
1.40001
1.40001
1.40001
1.40001
1.40001
1.40001
1.40001
1.40001
1.40001
1.40001
1.40001
1.40001
1.40001
1.40001
9.57331
3.61154
1.40001
1.40001
1.40001
1.40001
1.40001
1.40001
1.40001
1.40001
1.40001
1.40001
1.40001
1.40001
1.40001
1.40001
1.40001
1.40001
1.40001
1.40001
9.87506
4.45627
1.40001
1.40001
1.40001
1.40001
1.40001
1.40001
1.40001
1.40001
1.40001
1.40001
1.40001
1.40001
1.40001
1.40001
1.40001
1.40001
1.40001
1.40001
10.284
5.50278
1.4012
1.40001
1.40001
1.40001
1.40001
1.40001
1.40001
1.40001
1.40001
1.40001
1.40001
1.40001
1.40001
1.40001
1.40001
1.40001
1.40001
1.40001
10.4818
6.56238
1.63831
1.40001
1.40001
1.40001
1.40001
1.40001
1.40001
1.40001
1.40001
1.40001
1.40001
1.40001
1.40001
1.40001
1.40001
1.40001
1.40001
1.40001
10.4198
7.49191
2.22006
1.40001
1.40001
1.40001
1.40001
1.40001
1.40001
1.40001
1.40001
1.40001
1.40001
1.40001
1.40001
1.40001
1.40001
1.40001
1.40001
1.40001
10.3059
8.36628
3.18886
1.40001
1.40001
1.40001
1.40001
1.40001
1.40001
1.40001
1.40001
1.40001
1.40001
1.40001
1.40001
1.40001
1.40001
1.40001
1.40001
1.40001
9.99815
8.8165
4.92489
1.38257
1.40001
1.40001
1.40001
1.40001
1.40001
1.40001
1.40001
1.40001
1.40001
1.40001
1.40001
1.40001
1.40001
1.40001
1.40001
1.40001
9.61844
9.32058
6.86662
1.6416
1.40001
1.40001
1.40001
1.40001
1.40001
1.40001
1.40001
1.40001
1.40001
1.40001
1.40001
1.40001
1.40001
1.40001
1.40001
1.40001
8.97659
9.21514
8.46183
2.88578
1.40001
1.40001
1.40001
1.40001
1.40001
1.40001
1.40001
1.40001
1.40001
1.40001
1.40001
1.40001
1.40001
1.40001
1.40001
1.40001
8.80491
9.21922
9.13305
4.8228
1.37008
1.40001
1.40001
1.40001
1.40001
1.40001
1.40001
1.40001
1.40001
1.40001
1.40001
1.40001
1.40001
1.40001
1.40001
1.40001
8.85251
9.35361
9.48785
6.95519
1.91162
1.40001
1.40001
1.40001
1.40001
1.40001
1.40001
1.40001
1.40001
1.40001
1.40001
1.40001
1.40001
1.40001
1.40001
1.40001
9.02177
9.475
9.51885
8.66983
3.88528
1.36315
1.40052
1.4
1.40001
1.40001
1.40001
1.40001
1.40001
1.40001
1.40001
1.40001
1.40001
1.40001
1.40001
1.40001
9.24186
9.46945
9.45992
8.85993
6.59691
2.06746
1.39174
1.40013
1.4
1.40001
1.40001
1.40001
1.40001
1.40001
1.40001
1.40001
1.40001
1.40001
1.40001
1.40001
9.42395
9.49509
9.41938
9.13791
8.80845
4.63008
1.44991
1.39922
1.40001
1.40001
1.40001
1.40001
1.40001
1.40001
1.40001
1.40001
1.40001
1.40001
1.40001
1.40001
9.63989
9.56031
9.47677
9.43862
9.60333
8.01589
3.57134
1.41839
1.40001
1.40001
1.40001
1.40001
1.40001
1.40001
1.40001
1.40001
1.40001
1.40001
1.40001
1.40001
9.69445
9.61366
9.56903
9.57787
9.6676
9.42761
8.36743
3.25239
0.892326
1.40001
1.40001
1.40001
1.40001
1.40001
1.40001
1.40001
1.40001
1.40001
1.40001
1.40001
3.23819
5.0681
6.81357
7.93848
8.56568
8.88906
9.0784
8.66952
6.3305
4.47483
3.31411
2.19206
1.51246
1.38239
1.38997
1.39473
1.3988
1.39997
1.40003
1.40002
0.433043
1.22598
2.77493
4.44492
5.81424
6.69623
7.48081
8.15351
7.96197
7.33664
6.73178
5.99273
4.72512
3.24629
1.99486
1.44197
1.38522
1.39296
1.39628
1.39923
0.0472064
0.220618
0.698485
1.63891
2.89478
4.0046
4.94139
5.92095
6.64236
6.69228
6.56892
6.58728
6.53538
6.30924
5.6082
4.27816
2.91783
1.86004
1.42445
1.38998
0.00733251
0.0417401
0.243709
0.545365
1.11705
1.95059
2.77282
3.58578
4.40847
4.93004
5.25443
5.58439
5.87891
6.10364
6.21179
6.10559
5.80027
5.05848
3.87736
2.64113
0.0106921
0.0234308
0.108184
0.285355
0.580001
0.921303
1.39396
1.95639
2.59359
3.13838
3.55285
3.94597
4.33675
4.76179
5.2093
5.49481
5.66862
5.73936
5.6122
5.44187
0.0159919
0.0170143
0.0392366
0.148826
0.379104
0.609561
0.890162
1.24978
1.66516
2.08672
2.41236
2.72818
3.03933
3.36908
3.77984
4.16988
4.54308
4.87887
5.07799
5.24821
0.0196858
0.0183975
0.024571
0.0679057
0.204051
0.403536
0.585069
0.818367
1.10905
1.39895
1.64475
1.86741
2.09122
2.30898
2.5887
2.91205
3.24294
3.59103
3.88292
4.16228
0.0252876
0.0228867
0.0299117
0.0538226
0.0971749
0.210264
0.30368
0.411635
0.601976
0.80938
1.02451
1.21895
1.42067
1.6009
1.82935
2.08616
2.33709
2.56729
2.90727
2.88512
0.035413
0.0305614
0.03829
0.0576586
0.0803979
0.128404
0.182203
0.247811
0.376852
0.555658
0.727729
0.888084
1.06001
1.19722
1.35113
1.51166
1.67234
1.83068
2.13369
2.08561
0.0525726
0.0404369
0.044384
0.0603698
0.0813171
0.127358
0.190165
0.262856
0.358982
0.481443
0.589402
0.691389
0.798616
0.895352
0.97731
1.07118
1.18171
1.31509
1.60682
1.59894
0.0777225
0.0540348
0.0466955
0.0623377
0.0841349
0.13136
0.19167
0.252439
0.313944
0.38251
0.436916
0.495638
0.550749
0.61656
0.675055
0.755929
0.876146
1.01817
1.16637
1.35482
0.107433
0.0689406
0.0519169
0.0661844
0.0826616
0.120769
0.163671
0.199826
0.228651
0.256897
0.273866
0.307858
0.368028
0.441549
0.516167
0.603136
0.698174
0.797826
0.866021
1.02779
0.132452
0.0812112
0.056781
0.0638711
0.0706616
0.0906605
0.112302
0.134074
0.154152
0.177707
0.221463
0.266499
0.330215
0.385442
0.439427
0.499021
0.549834
0.602558
0.632812
0.73613
0.148478
0.0886407
0.0601256
0.0609159
0.0613118
0.0717786
0.0867233
0.10544
0.136642
0.174472
0.224152
0.25515
0.29669
0.331663
0.361965
0.384765
0.40275
0.419719
0.442937
0.529704
0.163392
0.0955853
0.0639286
0.0617421
0.0617451
0.070778
0.0868193
0.106791
0.141791
0.175997
0.209616
0.228642
0.248097
0.26285
0.263871
0.262712
0.269696
0.291223
0.33493
0.423368
0.176591
0.107738
0.0751031
0.06845
0.0673259
0.0742127
0.0911447
0.109727
0.138058
0.163114
0.173234
0.181659
0.176086
0.176983
0.179123
0.192859
0.220442
0.257227
0.294115
0.342218
0.178684
0.127481
0.0995723
0.0824354
0.0782266
0.0800353
0.0888625
0.101064
0.11441
0.129528
0.120535
0.123329
0.128455
0.142651
0.160533
0.181761
0.20617
0.22878
0.250805
0.261993
0.165681
0.128873
0.117208
0.10216
0.0878156
0.0794423
0.0774473
0.0787313
0.0801977
0.0837133
0.0868483
0.0954791
0.108194
0.124979
0.141653
0.156279
0.167831
0.173412
0.177691
0.177705
0.149738
0.135518
0.147305
0.155778
0.175432
0.1921
0.197588
0.197877
0.208763
0.217041
0.222135
0.203488
0.20532
0.227936
0.26486
0.301794
0.304535
0.286448
0.287544
0.2872
0.177646
0.29206
0.343595
0.389028
0.440509
0.497118
0.518922
0.565377
0.617197
0.631203
0.656485
0.648051
0.660113
0.679941
0.683091
0.698795
0.701156
0.690911
0.716727
0.730105
0.777149
0.881924
0.980229
1.14175
1.15048
1.17532
1.16369
1.1915
1.23325
1.2801
1.30838
1.31327
1.3065
1.31623
1.32544
1.31689
1.32101
1.32538
1.3352
1.34128
0.389609
0.578072
0.768043
0.957605
1.06395
1.15499
1.16279
1.18055
1.21749
1.25958
1.29429
1.30637
1.30356
1.30393
1.3101
1.31713
1.32863
1.33579
1.33804
1.33499
0.188124
0.22759
0.336773
0.466079
0.715737
0.965368
1.06281
1.16519
1.22221
1.25546
1.28637
1.29922
1.30244
1.29955
1.3018
1.31171
1.3269
1.33781
1.33932
1.33698
0.262205
0.298637
0.310746
0.330397
0.359562
0.469137
0.764862
1.02267
1.13337
1.2168
1.28105
1.29527
1.2965
1.3007
1.3021
1.31246
1.33054
1.33823
1.33614
1.33126
0.337689
0.356844
0.378796
0.401554
0.424581
0.416608
0.449666
0.588159
0.855615
1.08586
1.217
1.28107
1.30391
1.30986
1.30721
1.32155
1.33733
1.33404
1.32529
1.32637
0.441055
0.452067
0.458314
0.459814
0.462633
0.466954
0.479293
0.467993
0.512248
0.679326
0.957956
1.19529
1.28854
1.32063
1.32284
1.33731
1.34371
1.33084
1.31806
1.32694
0.55967
0.572782
0.532246
0.505199
0.515162
0.532635
0.537389
0.533348
0.515947
0.51338
0.61406
0.89156
1.17591
1.31159
1.33355
1.34993
1.3422
1.31665
1.31732
1.33285
0.734333
0.710162
0.64218
0.570963
0.565316
0.583805
0.604095
0.598525
0.578493
0.542772
0.531236
0.598579
0.857741
1.15608
1.32709
1.35206
1.33193
1.30797
1.32757
1.34114
0.950189
0.87289
0.767009
0.649039
0.632229
0.652049
0.669401
0.66326
0.639792
0.604586
0.561178
0.554905
0.604125
0.861099
1.16277
1.32379
1.28493
1.29594
1.33802
1.34304
1.20048
1.08431
0.946207
0.785491
0.722987
0.708081
0.720249
0.71642
0.690056
0.655154
0.627342
0.590721
0.590745
0.635657
0.849987
1.14942
1.22585
1.30076
1.35162
1.33887
1.71129
1.35761
1.1867
1.01224
0.845255
0.778881
0.783616
0.797754
0.780672
0.749956
0.711086
0.67191
0.646544
0.635254
0.661361
0.787522
1.03723
1.23718
1.3053
1.32627
2.85057
2.01668
1.61112
1.42815
1.24316
1.02435
0.92756
0.910121
0.868428
0.812903
0.785136
0.768669
0.740046
0.709582
0.669
0.673302
0.726991
0.891736
1.09995
1.27093
3.49318
3.01811
2.36564
1.87139
1.5837
1.34912
1.0924
1.02238
0.981725
0.932249
0.926572
0.910812
0.871289
0.82577
0.772159
0.725467
0.729676
0.745817
0.80709
1.04511
3.29901
3.27181
3.11408
2.66838
2.15053
1.8201
1.49896
1.31629
1.23263
1.1397
1.06481
0.99191
0.933803
0.886159
0.856161
0.815033
0.790282
0.778134
0.765257
0.812976
2.34608
2.99707
3.0967
3.05767
2.85804
2.48267
2.09444
1.73369
1.50966
1.32375
1.20156
1.10095
1.00198
0.975688
0.979664
0.953894
0.909971
0.865789
0.802045
0.803832
1.55154
2.00804
2.58249
2.94993
2.94656
2.89009
2.70428
2.34437
2.00403
1.72591
1.5097
1.38514
1.25106
1.164
1.11782
1.05299
0.968444
0.911692
0.879727
0.852281
1.40635
1.4611
1.68845
2.16492
2.60429
2.82017
2.81203
2.75007
2.55844
2.27563
1.941
1.69825
1.51675
1.35095
1.2368
1.16087
1.06693
1.02705
1.02554
0.981853
1.40013
1.40153
1.41478
1.51089
1.77459
2.19328
2.54754
2.7053
2.69453
2.63781
2.47071
2.19726
1.93901
1.70574
1.50672
1.40692
1.31833
1.23029
1.15896
1.0634
1.40001
1.40002
1.40021
1.40361
1.42562
1.54063
1.80614
2.17961
2.46337
2.59694
2.58891
2.53602
2.4008
2.18204
1.92381
1.70676
1.54956
1.40369
1.28797
1.16111
1.40001
1.40001
1.40001
1.40004
1.40043
1.4057
1.43386
1.5526
1.79819
2.13664
2.37495
2.49474
2.49023
2.45511
2.34601
2.1487
1.93353
1.72645
1.57556
1.39816
1.40001
1.40001
1.40001
1.40001
1.40001
1.40008
1.40066
1.4068
1.43769
1.54555
1.76935
2.068
2.29385
2.40653
2.40391
2.37756
2.29426
2.13499
1.95358
1.67492
1.40001
1.40001
1.40001
1.40001
1.40001
1.40001
1.40001
1.4001
1.40084
1.40639
1.43716
1.53038
1.72635
1.98505
2.21383
2.32827
2.32502
2.30672
2.25716
2.04422
1.40001
1.40001
1.40001
1.40001
1.40001
1.40001
1.40001
1.40001
1.40001
1.40009
1.40089
1.40566
1.43101
1.51313
1.67577
1.91071
2.11384
2.25746
2.25599
2.21928
1.40001
1.40001
1.40001
1.40001
1.40001
1.40001
1.40001
1.40001
1.40001
1.40001
1.40001
1.40008
1.40074
1.40491
1.42359
1.49247
1.62741
1.83791
2.02062
2.17021
1.40001
1.40001
1.40001
1.40001
1.40001
1.40001
1.40001
1.40001
1.40001
1.40001
1.40001
1.40001
1.40001
1.40007
1.40056
1.40372
1.41945
1.47152
1.59032
1.94366
2.27029
3.42533
3.59545
2.90724
1.83188
1.45157
1.40262
1.40007
1.40001
1.40001
1.40001
1.40001
1.40001
1.40001
1.40001
3.25737
3.91839
3.51998
2.15366
1.46746
1.40115
1.40001
1.4
1.40001
1.40001
1.40001
1.40001
1.40001
1.40001
1.40001
4.0799
3.9965
2.76432
1.61156
1.40718
1.40007
1.40001
1.40001
1.40001
1.40001
1.40001
1.40001
1.40001
1.40001
1.40001
4.52097
3.55814
1.906
1.42684
1.40026
1.40001
1.40001
1.40001
1.40001
1.40001
1.40001
1.40001
1.40001
1.40001
1.40001
4.61657
2.35113
1.46611
1.40074
1.40001
1.4
1.40001
1.40001
1.40001
1.40001
1.40001
1.40001
1.40001
1.40001
1.40001
2.88869
1.50216
1.40065
1.4
1.4
1.4
1.40001
1.40001
1.40001
1.40001
1.40001
1.40001
1.40001
1.40001
1.40001
1.54414
1.40084
1.4
1.4
1.40001
1.40001
1.40001
1.40001
1.40001
1.40001
1.40001
1.40001
1.40001
1.40001
1.40001
1.39738
1.39982
1.4
1.4
1.40001
1.40001
1.40001
1.40001
1.40001
1.40001
1.40001
1.40001
1.40001
1.40001
1.40001
1.39996
1.40001
1.40001
1.40001
1.40001
1.40001
1.40001
1.40001
1.40001
1.40001
1.40001
1.40001
1.40001
1.40001
1.40001
1.40001
1.40001
1.40001
1.40001
1.40001
1.40001
1.40001
1.40001
1.40001
1.40001
1.40001
1.40001
1.40001
1.40001
1.40001
1.40001
1.40001
1.40001
1.40001
1.40001
1.40001
1.40001
1.40001
1.40001
1.40001
1.40001
1.40001
1.40001
1.40001
1.40001
1.40001
1.40001
1.40001
1.40001
1.40001
1.40001
1.40001
1.40001
1.40001
1.40001
1.40001
1.40001
1.40001
1.40001
1.40001
1.40001
1.40001
1.40001
1.40001
1.40001
1.40001
1.40001
1.40001
1.40001
1.40001
1.40001
1.40001
1.40001
1.40001
1.40001
1.40001
1.40001
1.40001
1.40001
1.40001
1.40001
1.40001
1.40001
1.40001
1.40001
1.40001
1.40001
1.40001
1.40001
1.40001
1.40001
1.40001
1.40001
1.40001
1.40001
1.40001
1.40001
1.40001
1.40001
1.40001
1.40001
1.40001
1.40001
1.40001
1.40001
1.40001
1.40001
1.40001
1.40001
1.40001
1.40001
1.40001
1.40001
1.40001
1.40001
1.40001
1.40001
1.40001
1.40001
1.40001
1.40001
1.40001
1.40001
1.40001
1.40001
1.40001
1.40001
1.40001
1.40001
1.40001
1.40001
1.40001
1.40001
1.40001
1.40001
1.40001
1.40001
1.40001
1.40001
1.40001
1.40001
1.40001
1.40001
1.40001
1.40001
1.40001
1.40001
1.40001
1.40001
1.40001
1.40001
1.40001
1.40001
1.40001
1.40001
1.40001
1.40001
1.40001
1.40001
1.40001
1.40001
1.40001
1.40001
1.40001
1.40001
1.40001
1.40001
1.40001
1.40001
1.40001
1.40001
1.40001
1.40001
1.40001
1.40001
1.40001
1.40001
1.40001
1.40001
1.40001
1.40001
1.40001
1.40001
1.40001
1.40001
1.40001
1.40001
1.40001
1.40001
1.40001
1.40001
1.40001
1.40001
1.40001
1.40001
1.40001
1.40001
1.40001
1.40001
1.40001
1.40001
1.40001
1.40001
1.40001
1.40001
1.40001
1.40001
1.40001
1.40001
1.40001
1.40001
1.40001
1.40001
1.40001
1.40001
1.40001
1.40001
1.40001
1.40001
1.40001
1.40001
1.40001
1.40001
1.40001
1.40001
1.40001
1.40001
1.40001
1.40001
1.40001
1.40001
1.40001
1.40001
1.40001
1.40001
1.40001
1.40001
1.40001
1.40001
1.40001
1.40001
1.40001
1.40001
1.40001
1.40001
1.40001
1.40001
1.40001
1.40001
1.40001
1.40001
1.40001
1.40001
1.40001
1.40001
1.40001
1.40001
1.40001
1.40001
1.40001
1.40001
1.40001
1.40001
1.40001
1.40001
1.40001
1.40001
1.40001
1.40001
1.40001
1.40001
1.40001
1.40001
1.40001
1.40001
1.40001
1.40001
1.40001
1.40001
1.40001
1.40001
1.40001
1.40001
1.40001
1.40001
1.40001
1.40001
1.40001
1.40001
1.40001
1.40001
1.40001
1.40001
1.40001
1.40001
1.40001
1.40001
1.40001
1.40001
1.40001
1.40001
1.40001
1.40001
1.40001
1.40001
1.40001
1.40001
1.40001
1.40001
1.40001
1.40001
1.40001
1.40001
1.40001
1.40001
1.40001
1.40001
1.40001
1.40001
1.40001
1.40001
1.40001
1.40001
1.40001
1.40001
1.40001
1.40001
1.40001
1.40001
1.40001
1.40001
1.40001
1.40001
1.40001
1.40001
1.40001
1.40001
1.40001
1.40001
1.40001
1.40001
1.40001
1.40001
1.40001
1.40001
1.40001
1.40001
1.40001
1.40001
1.40001
1.40001
1.40001
1.40001
1.40001
1.40001
1.40001
1.40001
1.40001
1.40001
1.40001
1.40001
1.40001
1.40001
1.40001
1.40001
1.40001
1.40001
1.40001
1.40001
1.40001
1.40001
1.40001
1.40001
1.40001
1.40001
1.40001
1.40001
1.40001
1.40001
1.40001
1.40001
1.40001
1.40001
1.40001
1.40001
1.40001
1.40001
1.40001
1.40001
1.40001
1.40001
1.40001
1.40001
1.40001
1.40001
1.40001
1.40001
1.40001
1.40001
1.40001
1.40001
1.40001
1.40001
1.40001
1.40001
1.40001
1.40001
1.40001
1.40001
1.40001
1.40001
1.40001
1.40001
1.40001
1.40001
1.40001
1.40001
1.40001
1.40001
1.40001
1.40001
1.40001
1.40001
1.40001
1.40001
1.40001
1.40001
1.40001
1.40001
1.40001
1.40001
1.40001
1.40001
1.40001
1.40001
1.40001
1.40001
1.40001
1.40001
1.40001
1.40001
1.40001
1.40001
1.40001
1.40001
1.40001
1.40001
1.40001
1.40001
1.40001
1.40001
1.40001
1.40001
1.40001
1.40001
1.40001
1.40001
1.40001
1.40001
1.40001
1.40001
1.40001
1.40001
1.40001
1.40001
1.40001
1.40001
1.40001
1.40001
1.40001
1.40001
1.40001
1.40001
1.40001
1.40001
1.40001
1.40001
1.40001
1.40001
1.40001
1.40001
1.40001
1.40001
1.40001
1.40001
1.40001
1.40001
1.40001
1.40001
1.40001
1.40001
1.40001
1.40001
1.40001
1.40001
1.40001
1.40001
1.40001
1.40001
1.40001
1.40001
1.40001
1.40001
1.40001
1.40001
1.40001
1.40001
1.40001
1.40001
1.40001
1.40001
1.40001
1.40001
1.40001
1.40001
1.40001
1.40001
1.40001
1.40001
1.40001
1.40001
1.40001
1.40001
1.40001
1.40001
1.40001
1.40001
1.40001
1.40001
1.40001
1.40001
1.40001
1.40001
1.40001
1.40001
1.40001
1.40001
1.40001
1.40001
1.40001
1.40001
1.40001
1.40001
1.40001
1.40001
1.40001
1.40001
1.40001
1.40001
1.40001
1.40001
1.40001
1.40001
1.40001
1.40001
1.40001
1.40001
1.40001
1.40001
1.40001
1.40001
1.40001
1.40001
1.40001
1.40001
1.40001
1.40001
1.40001
1.40001
1.40001
1.40001
1.40001
1.40001
1.40001
1.40001
1.40001
1.40001
1.40001
1.40001
1.40001
1.40001
1.40001
1.40001
1.40001
1.40001
1.40001
1.40001
1.40001
1.40001
1.40001
1.40001
1.40001
1.40001
1.40001
1.40001
1.40001
1.40001
1.40001
1.40001
1.40001
1.40001
1.40001
1.40001
1.40001
1.40001
1.40001
1.40001
1.40001
1.40001
1.40001
1.40001
1.40001
1.40001
1.40001
1.40001
1.40001
1.40001
1.40001
1.40001
1.40001
1.40001
1.40001
1.40001
1.40001
1.40001
1.40001
1.40001
1.40001
1.40001
1.40001
1.40001
1.40001
1.40001
1.40001
1.40001
1.40001
1.40001
1.40001
1.40001
1.40001
1.40001
1.40001
1.40001
1.40001
1.40001
1.40001
1.40001
1.40001
1.40001
1.40001
1.40001
1.40001
1.40001
1.40001
1.40001
1.40001
1.40001
1.40001
1.40001
1.40001
1.40001
1.40001
1.40001
1.40001
1.40001
1.40001
1.40001
1.40001
1.40001
1.40001
1.40001
1.40001
1.40001
1.40001
1.40001
1.40001
1.40001
1.40001
1.40001
1.40001
1.40001
1.40001
1.40001
1.40001
1.40001
1.40001
1.40001
1.40001
1.40001
1.40001
1.40001
1.40001
1.40001
1.40001
1.40001
1.40001
1.40001
1.40001
1.40001
1.40001
1.40001
1.40001
1.40001
1.40001
1.40001
1.40001
1.40001
1.40001
1.40001
1.40001
1.40001
1.40001
1.40001
1.40001
1.40001
1.40001
1.40001
1.40001
1.40001
1.40001
1.40001
1.40001
1.40001
1.40001
1.40001
1.40001
1.40001
1.40001
1.40001
1.40001
1.40001
1.40001
1.40001
1.40001
1.40001
1.40001
1.40001
1.40001
1.40001
1.40001
1.40001
1.40001
1.40001
1.40001
1.40001
1.40001
1.40001
1.40001
1.40001
1.40001
1.40001
1.40001
1.40001
1.40001
1.40001
1.40001
1.40001
1.40001
1.40001
1.40001
1.40001
1.40001
1.40001
1.40001
1.40001
1.40001
1.40001
1.40001
1.40001
1.40001
1.40001
1.40001
1.40001
1.40001
1.40001
1.40001
1.40001
1.40001
1.40001
1.40001
1.40001
1.40001
1.40001
1.40001
1.40001
1.40001
1.40001
1.40001
1.40001
1.40001
1.40001
1.40001
1.40001
1.40001
1.40001
1.40001
1.40001
1.40001
1.40001
1.40001
1.40001
1.40001
1.40001
1.40001
1.40001
1.40001
1.40001
1.40001
1.40001
1.40001
1.40001
1.40001
1.40001
1.40001
1.40001
1.40001
1.40001
1.40001
1.40001
1.40001
1.40001
1.40001
1.40001
1.40001
1.40001
1.40001
1.40001
1.40001
1.40001
1.40001
1.40001
1.40001
1.40001
1.40001
1.40001
1.40001
1.40001
1.40001
1.40001
1.40001
1.40001
1.40001
1.40001
1.40001
1.40001
1.39996
1.40001
1.40001
1.40001
1.40001
1.40001
1.40001
1.40001
1.40001
1.40001
1.40001
1.40001
1.40001
1.40001
1.40001
1.39738
1.39982
1.4
1.4
1.40001
1.40001
1.40001
1.40001
1.40001
1.40001
1.40001
1.40001
1.40001
1.40001
1.40001
1.54389
1.40083
1.4
1.4
1.40001
1.40001
1.40001
1.40001
1.40001
1.40001
1.40001
1.40001
1.40001
1.40001
1.40001
2.8883
1.50223
1.40066
1.4
1.4
1.4
1.40001
1.40001
1.40001
1.40001
1.40001
1.40001
1.40001
1.40001
1.40001
4.61607
2.35172
1.46619
1.40074
1.40001
1.4
1.40001
1.40001
1.40001
1.40001
1.40001
1.40001
1.40001
1.40001
1.40001
4.52088
3.55835
1.90622
1.42685
1.40026
1.40001
1.40001
1.40001
1.40001
1.40001
1.40001
1.40001
1.40001
1.40001
1.40001
4.07995
3.99697
2.76484
1.61157
1.40718
1.40007
1.40001
1.40001
1.40001
1.40001
1.40001
1.40001
1.40001
1.40001
1.40001
3.25712
3.91921
3.52016
2.15345
1.4674
1.40114
1.40001
1.4
1.40001
1.40001
1.40001
1.40001
1.40001
1.40001
1.40001
2.2714
3.42674
3.59556
2.90674
1.83162
1.45156
1.40263
1.40007
1.40001
1.40001
1.40001
1.40001
1.40001
1.40001
1.40001
1.70729
2.84857
3.49362
3.2994
2.34531
1.55119
1.40633
1.40013
1.40001
1.40001
1.40001
1.40001
1.40001
1.40001
1.40001
1.35333
2.01675
3.01354
3.27209
2.99898
2.00887
1.46131
1.40154
1.40002
1.40001
1.40001
1.40001
1.40001
1.40001
1.40001
1.18604
1.61494
2.36647
3.11157
3.09758
2.58414
1.68924
1.41483
1.40021
1.40001
1.40001
1.40001
1.40001
1.40001
1.40001
1.01127
1.42702
1.87922
2.66883
3.05807
2.95031
2.1662
1.51104
1.40361
1.40004
1.40001
1.40001
1.40001
1.40001
1.40001
0.84065
1.23332
1.58728
2.16667
2.85561
2.94637
2.60395
1.77504
1.42581
1.40043
1.40001
1.40001
1.40001
1.40001
1.40001
0.78485
1.0305
1.32238
1.80617
2.49022
2.89032
2.81924
2.1945
1.54037
1.40563
1.40008
1.40001
1.40001
1.40001
1.40001
0.799383
0.952283
1.10248
1.48708
2.08297
2.69981
2.8113
2.54641
1.80633
1.43401
1.40067
1.40001
1.40001
1.40001
1.40001
0.807304
0.918938
1.03538
1.33243
1.72926
2.34444
2.74936
2.7037
2.17793
1.55226
1.40679
1.40009
1.40001
1.40001
1.40001
0.782887
0.862224
0.962852
1.22987
1.51469
2.01404
2.55974
2.69378
2.46513
1.79766
1.43727
1.40082
1.40001
1.40001
1.40001
0.744195
0.809323
0.938404
1.14663
1.32408
1.71914
2.2742
2.63857
2.59704
2.1351
1.54583
1.40644
1.40009
1.40001
1.40001
0.699083
0.782464
0.931327
1.07317
1.19787
1.5027
1.94935
2.46964
2.58837
2.37468
1.76892
1.43705
1.40089
1.40001
1.40001
0.655305
0.763638
0.903439
0.989736
1.09759
1.37933
1.70761
2.20088
2.53589
2.49603
2.06836
1.53008
1.40563
1.40008
1.40001
0.644244
0.741743
0.859966
0.921553
1.01298
1.25646
1.51138
1.94533
2.40224
2.49132
2.29273
1.72627
1.43109
1.40074
1.40001
0.640584
0.714128
0.816859
0.877257
1.00033
1.18057
1.34182
1.70508
2.18047
2.45563
2.40689
1.98564
1.513
1.4049
1.40007
0.663249
0.669581
0.765795
0.848164
0.996165
1.12657
1.23297
1.50972
1.92264
2.34602
2.4045
2.21381
1.67585
1.42362
1.40056
0.787805
0.675093
0.724912
0.810816
0.958675
1.04611
1.14692
1.40988
1.70947
2.14886
2.37846
2.32832
1.91089
1.49246
1.40372
1.04491
0.731582
0.730435
0.785248
0.910382
0.966314
1.06236
1.31173
1.5487
1.93406
2.29527
2.3251
2.11435
1.62757
1.41948
1.24431
0.899738
0.748466
0.772687
0.86761
0.915135
1.0265
1.2246
1.40095
1.72782
2.13534
2.30676
2.25733
1.83812
1.47161
1.31384
1.10759
0.80843
0.762216
0.803242
0.884411
1.0244
1.1588
1.28585
1.57606
1.95327
2.25702
2.25582
2.0207
1.59033
1.33098
1.27285
1.04082
0.808424
0.79983
0.855637
0.983571
1.06562
1.16
1.39702
1.67421
2.04398
2.21916
2.1702
1.94366
1.1992
1.09052
0.950669
0.771551
0.714481
0.704978
0.714109
0.701357
0.679086
0.651044
0.611663
0.586594
0.59296
0.641159
0.847278
1.15239
1.22989
1.30612
1.35637
1.34571
0.952741
0.878452
0.769519
0.642518
0.637162
0.652812
0.658547
0.643223
0.622894
0.60239
0.565483
0.563642
0.614888
0.865754
1.17429
1.32255
1.28621
1.29925
1.34237
1.3474
0.737257
0.714898
0.63927
0.562003
0.558661
0.585329
0.592616
0.585017
0.575721
0.553286
0.540973
0.608069
0.877974
1.15644
1.28973
1.33962
1.32731
1.30804
1.32934
1.34289
0.56302
0.572945
0.532185
0.503554
0.513231
0.530804
0.531797
0.530373
0.524326
0.518646
0.621949
0.903892
1.17966
1.30657
1.31543
1.33639
1.33786
1.31744
1.31637
1.32995
0.442078
0.452883
0.458439
0.459622