/*--------------------------------*- C++ -*----------------------------------*\
  =========                 |
  \\      /  F ield         | OpenFOAM: The Open Source CFD Toolbox
   \\    /   O peration     | Website:  https://openfoam.org
    \\  /    A nd           | Version:  7
     \\/     M anipulation  |
\*---------------------------------------------------------------------------*/
FoamFile
{
    version     2.0;
    format      ascii;
    class       volScalarField;
    location    "9.7";
    object      T;
}
// * * * * * * * * * * * * * * * * * * * * * * * * * * * * * * * * * * * * * //

dimensions      [0 0 0 1 0 0 0];

internalField   nonuniform List<scalar> 
3700
(
100.578
100.722
100.757
100.798
100.798
100.837
100.941
101.078
101.111
101.096
101.082
101.101
101.121
101.108
101.08
101.077
101.098
101.106
101.102
101.073
100.265
100.226
100.261
100.319
100.293
100.332
100.492
100.636
100.607
100.488
100.433
100.524
100.574
100.525
100.432
100.434
100.475
100.55
100.567
100.494
100.289
100.211
100.143
100.074
100.024
99.9867
99.9592
99.9644
99.9254
99.9208
99.9164
99.9376
99.9706
100.005
100.029
100.041
100.046
100.045
100.039
100.022
100.325
100.215
100.104
100.036
100.019
100.011
100.018
100.042
100.041
100.036
99.9907
99.9696
99.9677
99.9955
100.031
100.054
100.071
100.089
100.097
100.097
100.351
100.187
100.041
99.9802
99.9642
99.9924
100.02
100.062
100.095
100.108
100.103
100.091
100.062
100.04
100.032
100.043
100.069
100.101
100.124
100.152
100.364
100.15
99.9712
99.9185
99.9116
99.9467
99.9707
100.027
100.098
100.13
100.147
100.146
100.147
100.14
100.127
100.11
100.102
100.107
100.133
100.19
100.354
100.095
99.9214
99.8913
99.896
99.9313
99.9512
100.001
100.061
100.116
100.155
100.165
100.185
100.191
100.196
100.201
100.201
100.202
100.203
100.232
100.293
100.024
99.8842
99.8789
99.9036
99.9508
99.9564
100.003
100.051
100.101
100.137
100.16
100.196
100.217
100.234
100.255
100.269
100.28
100.286
100.319
100.15
99.9415
99.847
99.8794
99.9661
100.039
100.065
100.102
100.119
100.149
100.156
100.175
100.2
100.23
100.258
100.287
100.316
100.339
100.353
100.394
99.9961
99.8648
99.8219
99.8737
99.9864
100.093
100.156
100.193
100.223
100.255
100.272
100.29
100.306
100.316
100.32
100.331
100.358
100.389
100.419
100.456
99.8727
99.8066
99.81
99.8653
99.9949
100.124
100.204
100.233
100.271
100.32
100.348
100.368
100.39
100.4
100.41
100.419
100.433
100.449
100.497
100.496
99.7877
99.7532
99.7984
99.884
100.05
100.208
100.253
100.25
100.298
100.354
100.392
100.419
100.447
100.461
100.48
100.498
100.517
100.536
100.573
100.566
99.7367
99.7094
99.7636
99.97
100.177
100.317
100.328
100.361
100.413
100.444
100.466
100.482
100.501
100.517
100.543
100.572
100.599
100.623
100.656
100.653
99.7072
99.6718
99.7312
100.096
100.307
100.402
100.427
100.474
100.522
100.555
100.568
100.58
100.592
100.606
100.629
100.656
100.682
100.709
100.725
100.735
99.6669
99.6545
99.8586
100.224
100.407
100.454
100.5
100.556
100.601
100.63
100.643
100.658
100.677
100.702
100.732
100.755
100.772
100.783
100.779
100.774
99.5765
99.7294
100.07
100.324
100.464
100.525
100.588
100.64
100.686
100.708
100.721
100.739
100.763
100.792
100.815
100.824
100.822
100.815
100.789
100.746
99.4488
99.8696
100.244
100.461
100.588
100.677
100.73
100.77
100.798
100.809
100.818
100.832
100.849
100.856
100.856
100.845
100.792
100.676
100.515
100.279
99.5012
100.092
100.461
100.653
100.762
100.81
100.838
100.866
100.881
100.883
100.882
100.882
100.881
100.858
100.773
100.625
100.36
100.101
100.005
99.9978
100.114
100.525
100.74
100.837
100.883
100.9
100.917
100.925
100.921
100.91
100.894
100.838
100.723
100.47
100.149
100.011
99.9967
99.9985
99.9992
99.9998
100.696
100.836
100.913
100.946
100.955
100.95
100.951
100.932
100.847
100.765
100.578
100.236
100.03
99.9957
99.9977
99.9989
99.9998
100
100
100
100.999
100.996
100.992
100.986
100.975
100.949
100.885
100.467
99.8403
100
100
100
100
100
100
100
100
100
100
100
100.999
100.996
100.991
100.98
100.957
100.849
100.474
100.012
100
100
100
100
100
100
100
100
100
100
100
100
100.993
100.994
100.99
100.969
100.924
100.627
100.03
99.9995
100
100
100
100
100
100
100
100
100
100
100
100
100.986
100.992
100.988
100.949
100.801
100.258
99.9965
100
100
100
100
100
100
100
100
100
100
100
100
100
100.978
100.99
100.987
100.923
100.582
99.9917
100
100
100
100
100
100
100
100
100
100
100
100
100
100
100.972
100.983
100.98
100.833
100.232
100
100
100
100
100
100
100
100
100
100
100
100
100
100
100
100.971
100.977
100.963
100.689
99.993
100
100
100
100
100
100
100
100
100
100
100
100
100
100
100
100.983
100.975
100.919
100.478
100
100
100
100
100
100
100
100
100
100
100
100
100
100
100
100
101.005
100.977
100.826
100.129
100
100
100
100
100
100
100
100
100
100
100
100
100
100
100
100
101.016
100.943
100.693
99.9964
100
100
100
100
100
100
100
100
100
100
100
100
100
100
100
100
101.024
100.909
100.504
100
100
100
100
100
100
100
100
100
100
100
100
100
100
100
100
100
101.028
100.854
100.312
100
100
100
100
100
100
100
100
100
100
100
100
100
100
100
100
100
101.03
100.795
100.118
100
100
100
100
100
100
100
100
100
100
100
100
100
100
100
100
100
101.023
100.727
100.001
100
100
100
100
100
100
100
100
100
100
100
100
100
100
100
100
100
101.013
100.66
100
100
100
100
100
100
100
100
100
100
100
100
100
100
100
100
100
100
100.992
100.587
100
100
100
100
100
100
100
100
100
100
100
100
100
100
100
100
100
100
100.961
100.445
100
100
100
100
100
100
100
100
100
100
100
100
100
100
100
100
100
100
100.901
100.22
100
100
100
100
100
100
100
100
100
100
100
100
100
100
100
100
100
100
100.853
100.004
100
100
100
100
100
100
100
100
100
100
100
100
100
100
100
100
100
100
100.815
100
100
100
100
100
100
100
100
100
100
100
100
100
100
100
100
100
100
100
100.816
100
100
100
100
100
100
100
100
100
100
100
100
100
100
100
100
100
100
100
100.855
100.004
100
100
100
100
100
100
100
100
100
100
100
100
100
100
100
100
100
100
100.899
100.215
100
100
100
100
100
100
100
100
100
100
100
100
100
100
100
100
100
100
100.959
100.441
100
100
100
100
100
100
100
100
100
100
100
100
100
100
100
100
100
100
100.993
100.591
100
100
100
100
100
100
100
100
100
100
100
100
100
100
100
100
100
100
101.014
100.663
100
100
100
100
100
100
100
100
100
100
100
100
100
100
100
100
100
100
101.025
100.726
100
100
100
100
100
100
100
100
100
100
100
100
100
100
100
100
100
100
101.03
100.794
100.117
100
100
100
100
100
100
100
100
100
100
100
100
100
100
100
100
100
101.027
100.853
100.311
100
100
100
100
100
100
100
100
100
100
100
100
100
100
100
100
100
101.024
100.908
100.501
100
100
100
100
100
100
100
100
100
100
100
100
100
100
100
100
100
101.016
100.943
100.691
99.9964
100
100
100
100
100
100
100
100
100
100
100
100
100
100
100
100
101.005
100.978
100.828
100.134
100
100
100
100
100
100
100
100
100
100
100
100
100
100
100
100
100.984
100.977
100.922
100.479
100
100
100
100
100
100
100
100
100
100
100
100
100
100
100
100
100.971
100.978
100.963
100.691
99.9964
100
100
100
100
100
100
100
100
100
100
100
100
100
100
100
100.972
100.983
100.978
100.829
100.224
100
100
100
100
100
100
100
100
100
100
100
100
100
100
100
100.977
100.989
100.986
100.926
100.575
99.9918
100
100
100
100
100
100
100
100
100
100
100
100
100
100
100.985
100.992
100.988
100.949
100.805
100.269
99.9963
100
100
100
100
100
100
100
100
100
100
100
100
100
100.992
100.994
100.989
100.967
100.925
100.632
100.034
99.9995
100
100
100
100
100
100
100
100
100
100
100
100
101
100.997
100.991
100.98
100.959
100.849
100.469
100.011
100
100
100
100
100
100
100
100
100
100
100
100
100.999
100.996
100.993
100.987
100.977
100.948
100.883
100.461
99.8436
100
100
100
100
100
100
100
100
100
100
100
100.697
100.836
100.913
100.948
100.956
100.949
100.951
100.931
100.847
100.765
100.579
100.237
100.03
99.9958
99.9977
99.9989
99.9998
100
100
100
100.12
100.525
100.738
100.836
100.884
100.901
100.916
100.924
100.921
100.911
100.895
100.839
100.722
100.468
100.147
100.01
99.9967
99.9985
99.9992
99.9998
99.5363
100.127
100.46
100.653
100.761
100.808
100.837
100.866
100.881
100.884
100.882
100.882
100.88
100.857
100.773
100.624
100.36
100.101
100.005
99.9978
99.2803
99.8317
100.241
100.447
100.58
100.678
100.729
100.769
100.798
100.809
100.819
100.832
100.849
100.856
100.855
100.845
100.792
100.676
100.515
100.279
99.39
99.7237
100.062
100.327
100.466
100.528
100.587
100.641
100.688
100.709
100.723
100.74
100.763
100.792
100.815
100.824
100.822
100.815
100.789
100.746
99.4711
99.566
99.8849
100.224
100.392
100.455
100.507
100.56
100.606
100.634
100.645
100.659
100.677
100.701
100.731
100.755
100.772
100.783
100.779
100.774
99.5254
99.5435
99.7317
100.065
100.295
100.395
100.425
100.476
100.525
100.557
100.568
100.579
100.59
100.605
100.628
100.656
100.683
100.709
100.725
100.735
99.5954
99.5793
99.7477
99.9415
100.165
100.304
100.317
100.356
100.409
100.44
100.463
100.481
100.5
100.517
100.544
100.574
100.6
100.623
100.655
100.653
99.7019
99.6588
99.7706
99.9
100.048
100.2
100.233
100.242
100.295
100.354
100.394
100.421
100.448
100.462
100.481
100.499
100.518
100.536
100.572
100.565
99.8419
99.7577
99.7866
99.8795
99.9799
100.117
100.197
100.226
100.271
100.321
100.35
100.368
100.39
100.4
100.41
100.419
100.432
100.449
100.496
100.496
99.9941
99.8646
99.7947
99.8771
99.9649
100.083
100.155
100.188
100.222
100.256
100.271
100.288
100.303
100.314
100.32
100.333
100.36
100.39
100.419
100.456
100.132
99.9551
99.8224
99.8813
99.9366
100.018
100.068
100.102
100.121
100.15
100.156
100.175
100.204
100.237
100.265
100.291
100.318
100.339
100.352
100.393
100.238
100.022
99.8584
99.8724
99.8713
99.9189
99.9605
100.013
100.056
100.105
100.143
100.168
100.204
100.223
100.239
100.257
100.268
100.278
100.284
100.316
100.306
100.074
99.8929
99.8779
99.8682
99.9095
99.9569
100.012
100.066
100.122
100.16
100.17
100.191
100.194
100.196
100.198
100.195
100.196
100.197
100.23
100.34
100.125
99.935
99.8987
99.8865
99.9259
99.9801
100.037
100.099
100.131
100.149
100.147
100.145
100.136
100.119
100.102
100.095
100.103
100.134
100.191
100.34
100.18
100.019
99.9652
99.9517
99.9771
100.024
100.057
100.092
100.103
100.096
100.082
100.051
100.029
100.026
100.042
100.07
100.103
100.127
100.154
100.309
100.194
100.107
100.037
100.007
100.003
100.014
100.026
100.028
100.02
99.9712
99.956
99.959
99.9932
100.029
100.053
100.072
100.091
100.099
100.098
100.252
100.184
100.139
100.087
100.031
99.9829
99.9523
99.9341
99.9151
99.9076
99.9112
99.9341
99.9662
100.002
100.027
100.04
100.047
100.046
100.04
100.023
100.243
100.22
100.25
100.254
100.369
100.528
100.591
100.585
100.634
100.674
100.656
100.521
100.426
100.452
100.523
100.569
100.557
100.483
100.443
100.449
100.582
100.787
100.76
100.747
100.809
100.92
100.999
101.072
101.142
101.145
101.137
101.105
101.073
101.081
101.114
101.12
101.112
101.087
101.068
101.061
101.042
101.029
101.012
100.994
100.963
100.939
100.909
100.899
100.895
100.89
100.877
100.862
100.85
100.844
100.839
100.828
100.82
100.816
100.813
100.809
100.567
100.646
100.717
100.734
100.754
100.779
100.799
100.808
100.813
100.813
100.808
100.798
100.792
100.793
100.796
100.795
100.792
100.79
100.788
100.785
100.021
100.069
100.192
100.277
100.403
100.5
100.579
100.632
100.65
100.664
100.675
100.673
100.677
100.687
100.7
100.71
100.713
100.715
100.718
100.721
100.075
100.087
100.088
100.091
100.109
100.2
100.371
100.457
100.49
100.526
100.555
100.561
100.566
100.577
100.591
100.604
100.612
100.617
100.622
100.631
100.134
100.134
100.129
100.131
100.14
100.137
100.17
100.259
100.367
100.434
100.47
100.493
100.503
100.509
100.515
100.524
100.532
100.536
100.539
100.548
100.192
100.183
100.171
100.165
100.165
100.169
100.176
100.171
100.201
100.28
100.374
100.443
100.471
100.479
100.479
100.483
100.487
100.486
100.487
100.493
100.242
100.238
100.207
100.189
100.195
100.205
100.21
100.208
100.194
100.182
100.23
100.34
100.429
100.457
100.46
100.463
100.462
100.456
100.457
100.463
100.305
100.288
100.258
100.228
100.222
100.23
100.238
100.235
100.222
100.191
100.173
100.204
100.314
100.401
100.441
100.448
100.443
100.437
100.442
100.445
100.368
100.344
100.311
100.271
100.254
100.257
100.26
100.256
100.242
100.219
100.183
100.171
100.191
100.293
100.383
100.423
100.416
100.419
100.429
100.43
100.43
100.406
100.37
100.322
100.29
100.272
100.273
100.268
100.254
100.234
100.211
100.181
100.175
100.185
100.271
100.358
100.383
100.406
100.416
100.413
100.523
100.457
100.417
100.376
100.324
100.288
100.284
100.283
100.272
100.256
100.235
100.209
100.188
100.174
100.177
100.222
100.307
100.362
100.373
100.379
100.62
100.536
100.475
100.441
100.405
100.352
100.313
100.297
100.277
100.257
100.244
100.229
100.206
100.184
100.162
100.152
100.166
100.221
100.276
100.32
100.609
100.587
100.536
100.475
100.433
100.394
100.336
100.305
100.287
100.272
100.263
100.248
100.225
100.2
100.175
100.15
100.14
100.132
100.145
100.221
100.489
100.547
100.541
100.514
100.467
100.426
100.379
100.34
100.316
100.29
100.265
100.238
100.212
100.19
100.174
100.153
100.133
100.115
100.1
100.107
100.25
100.377
100.446
100.482
100.473
100.448
100.411
100.364
100.327
100.289
100.26
100.231
100.201
100.184
100.177
100.162
100.141
100.117
100.092
100.073
100.043
100.145
100.254
100.337
100.388
100.415
100.406
100.379
100.344
100.306
100.27
100.246
100.217
100.191
100.172
100.149
100.121
100.099
100.083
100.062
100.002
100.015
100.066
100.156
100.234
100.29
100.329
100.348
100.339
100.317
100.28
100.246
100.217
100.185
100.158
100.137
100.111
100.097
100.09
100.068
100
100
100.003
100.025
100.078
100.148
100.208
100.25
100.28
100.292
100.282
100.258
100.229
100.197
100.166
100.146
100.127
100.106
100.085
100.056
100
100
100
100.001
100.006
100.031
100.081
100.14
100.186
100.217
100.241
100.244
100.236
100.217
100.187
100.157
100.131
100.104
100.079
100.048
100
100
100
100
100
100.001
100.007
100.033
100.078
100.13
100.169
100.191
100.21
100.21
100.202
100.183
100.156
100.127
100.101
100.069
100
100
100
100
100
100
100
100.002
100.008
100.031
100.073
100.119
100.155
100.173
100.186
100.184
100.177
100.16
100.137
100.098
100
100
100
100
100
100
100
100
100
100.001
100.008
100.028
100.065
100.106
100.142
100.159
100.168
100.166
100.162
100.138
100
100
100
100
100
100
100
100
100
100
100
100.001
100.007
100.025
100.056
100.096
100.128
100.148
100.155
100.151
100
100
100
100
100
100
100
100
100
100
100
100
100
100.001
100.005
100.02
100.047
100.084
100.113
100.138
100
100
100
100
100
100
100
100
100
100
100
100
100
100
100
100.001
100.004
100.016
100.041
100.106
100.598
100.653
100.61
100.416
100.142
100.017
100.001
100
100
100
100
100
100
100
100
100.67
100.662
100.518
100.218
100.022
100
100
100
100
100
100
100
100
100
100
100.705
100.636
100.373
100.074
100.002
100
100
100
100
100
100
100
100
100
100
100.72
100.518
100.167
100.009
100
100
100
100
100
100
100
100
100
100
100
100.651
100.284
100.025
100
100
100
100
100
100
100
100
100
100
100
100
100.396
100.038
100
100
100
100
100
100
100
100
100
100
100
100
100
100.043
100
100
100
100
100
100
100
100
100
100
100
100
100
100
99.9995
100
100
100
100
100
100
100
100
100
100
100
100
100
100
100
100
100
100
100
100
100
100
100
100
100
100
100
100
100
100
100
100
100
100
100
100
100
100
100
100
100
100
100
100
100
100
100
100
100
100
100
100
100
100
100
100
100
100
100
100
100
100
100
100
100
100
100
100
100
100
100
100
100
100
100
100
100
100
100
100
100
100
100
100
100
100
100
100
100
100
100
100
100
100
100
100
100
100
100
100
100
100
100
100
100
100
100
100
100
100
100
100
100
100
100
100
100
100
100
100
100
100
100
100
100
100
100
100
100
100
100
100
100
100
100
100
100
100
100
100
100
100
100
100
100
100
100
100
100
100
100
100
100
100
100
100
100
100
100
100
100
100
100
100
100
100
100
100
100
100
100
100
100
100
100
100
100
100
100
100
100
100
100
100
100
100
100
100
100
100
100
100
100
100
100
100
100
100
100
100
100
100
100
100
100
100
100
100
100
100
100
100
100
100
100
100
100
100
100
100
100
100
100
100
100
100
100
100
100
100
100
100
100
100
100
100
100
100
100
100
100
100
100
100
100
100
100
100
100
100
100
100
100
100
100
100
100
100
100
100
100
100
100
100
100
100
100
100
100
100
100
100
100
100
100
100
100
100
100
100
100
100
100
100
100
100
100
100
100
100
100
100
100
100
100
100
100
100
100
100
100
100
100
100
100
100
100
100
100
100
100
100
100
100
100
100
100
100
100
100
100
100
100
100
100
100
100
100
100
100
100
100
100
100
100
100
100
100
100
100
100
100
100
100
100
100
100
100
100
100
100
100
100
100
100
100
100
100
100
100
100
100
100
100
100
100
100
100
100
100
100
100
100
100
100
100
100
100
100
100
100
100
100
100
100
100
100
100
100
100
100
100
100
100
100
100
100
100
100
100
100
100
100
100
100
100
100
100
100
100
100
100
100
100
100
100
100
100
100
100
100
100
100
100
100
100
100
100
100
100
100
100
100
100
100
100
100
100
100
100
100
100
100
100
100
100
100
100
100
100
100
100
100
100
100
100
100
100
100
100
100
100
100
100
100
100
100
100
100
100
100
100
100
100
100
100
100
100
100
100
100
100
100
100
100
100
100
100
100
100
100
100
100
100
100
100
100
100
100
100
100
100
100
100
100
100
100
100
100
100
100
100
100
100
100
100
100
100
100
100
100
100
100
100
100
100
100
100
100
100
100
100
100
100
100
100
100
100
100
100
100
100
100
100
100
100
100
100
100
100
100
100
100
100
100
100
100
100
100
100
100
100
100
100
100
100
100
100
100
100
100
100
100
100
100
100
100
100
100
100
100
100
100
100
100
100
100
100
100
100
100
100
100
100
100
100
100
100
100
100
100
100
100
100
100
100
100
100
100
100
100
100
100
100
100
100
100
100
100
100
100
100
100
100
100
100
100
100
100
100
100
100
100
100
100
100
100
100
100
100
100
100
100
100
100
100
100
100
100
100
100
100
100
100
100
100
100
100
100
100
100
100
100
100
100
100
100
100
100
100
100
100
100
100
100
100
100
100
100
100
100
100
100
100
100
100
100
100
100
100
100
100
100
100
100
100
100
100
100
100
100
100
100
100
100
100
100
100
100
100
100
100
100
100
100
100
100
100
100
100
100
100
100
100
100
100
100
100
100
100
100
100
100
100
100
100
100
100
100
100
100
100
100
100
100
100
100
100
100
100
100
100
100
100
100
100
100
100
100
100
100
100
100
100
100
100
100
100
100
100
100
100
100
100
100
100
100
100
100
100
100
100
100
100
100
100
100
100
100
100
100
100
100
100
100
100
100
100
100
100
100
100
100
100
100
100
100
100
100
100
100
100
100
100
100
100
100
100
100
100
100
100
100
100
100
100
100
100
100
100
100
100
100
100
100
100
100
100
100
100
100
100
100
100
100
100
100
100
100
100
100
100
100
100
100
100
100
100
100
100
100
100
100
100
100
100
100
100
100
100
100
100
100
100
99.9995
100
100
100
100
100
100
100
100
100
100
100
100
100
100
100.043
100
100
100
100
100
100
100
100
100
100
100
100
100
100
100.396
100.038
100
100
100
100
100
100
100
100
100
100
100
100
100
100.651
100.284
100.025
100
100
100
100
100
100
100
100
100
100
100
100
100.72
100.518
100.167
100.009
100
100
100
100
100
100
100
100
100
100
100
100.705
100.636
100.374
100.073
100.002
100
100
100
100
100
100
100
100
100
100
100.67
100.663
100.518
100.218
100.022
100
100
100
100
100
100
100
100
100
100
100.598
100.653
100.61
100.415
100.142
100.017
100.001
100
100
100
100
100
100
100
100
100.523
100.62
100.609
100.489
100.25
100.043
100.002
100
100
100
100
100
100
100
100
100.456
100.537
100.587
100.547
100.377
100.145
100.015
100
100
100
100
100
100
100
100
100.417
100.476
100.536
100.54
100.446
100.254
100.066
100.003
100
100
100
100
100
100
100
100.377
100.441
100.476
100.514
100.482
100.337
100.156
100.025
100.001
100
100
100
100
100
100
100.323
100.404
100.435
100.469
100.473
100.388
100.234
100.078
100.006
100
100
100
100
100
100
100.289
100.351
100.389
100.426
100.449
100.415
100.289
100.148
100.031
100.001
100
100
100
100
100
100.289
100.318
100.336
100.377
100.41
100.406
100.329
100.208
100.081
100.008
100
100
100
100
100
100.287
100.299
100.308
100.342
100.363
100.379
100.348
100.25
100.14
100.033
100.002
100
100
100
100
100.273
100.276
100.283
100.315
100.327
100.345
100.339
100.279
100.186
100.078
100.008
100
100
100
100
100.254
100.256
100.274
100.292
100.289
100.305
100.317
100.292
100.217
100.129
100.031
100.001
100
100
100
100.23
100.243
100.265
100.267
100.258
100.27
100.282
100.282
100.241
100.169
100.073
100.008
100
100
100
100.203
100.227
100.246
100.237
100.23
100.245
100.248
100.259
100.244
100.191
100.119
100.028
100.001
100
100
100.187
100.208
100.222
100.21
100.203
100.217
100.216
100.23
100.236
100.21
100.154
100.065
100.007
100
100
100.178
100.186
100.198
100.189
100.191
100.193
100.183
100.198
100.217
100.21
100.173
100.107
100.025
100.001
100
100.176
100.161
100.173
100.174
100.183
100.173
100.157
100.166
100.187
100.202
100.186
100.142
100.056
100.005
100
100.222
100.153
100.151
100.152
100.164
100.147
100.134
100.147
100.157
100.183
100.184
100.159
100.096
100.02
100.001
100.31
100.168
100.14
100.131
100.141
100.12
100.109
100.125
100.131
100.156
100.177
100.168
100.128
100.047
100.004
100.364
100.223
100.131
100.114
100.118
100.099
100.096
100.104
100.104
100.127
100.161
100.166
100.148
100.084
100.016
100.375
100.278
100.145
100.099
100.093
100.084
100.09
100.085
100.079
100.102
100.137
100.162
100.155
100.113
100.041
100.38
100.32
100.22
100.106
100.073
100.063
100.069
100.056
100.048
100.069
100.098
100.138
100.151
100.138
100.106
100.43
100.408
100.371
100.319
100.288
100.271
100.271
100.264
100.251
100.231
100.203
100.178
100.177
100.189
100.27
100.36
100.385
100.408
100.417
100.414
100.37
100.346
100.312
100.268
100.257
100.256
100.255
100.247
100.234
100.216
100.184
100.174
100.196
100.296
100.386
100.424
100.417
100.421
100.43
100.431
100.307
100.291
100.258
100.224
100.22
100.23
100.232
100.228
100.218
100.195
100.178
100.208
100.323
100.399
100.432
100.446
100.443
100.438
100.443
100.446
100.243
100.238
100.207
100.189
100.195
100.204
100.206
100.205
100.194
100.184
100.234
100.344
100.429
100.452
100.455
100.461
100.462
100.458
100.458
100.463
100.192
100.184
100.172
100.165
100.166
100.171
100.177
100.172
100.196
100.273
100.372
100.447
100.466
100.474
100.476
100.481
100.488
100.489
100.488
100.493
100.131
100.138
100.123
100.125
100.133
100.134
100.168
100.251
100.36
100.428
100.469
100.498
100.504
100.509
100.513
100.52
100.533
100.54
100.543
100.548
100.074
100.085
100.095
100.095
100.12
100.218
100.375
100.451
100.482
100.516
100.555
100.57
100.578
100.584
100.588
100.595
100.609
100.621
100.625
100.629
100.022
100.071
100.177
100.269
100.429
100.53
100.587
100.617
100.629
100.647
100.675
100.691
100.699
100.701
100.699
100.701
100.709
100.718
100.719
100.717
100.572
100.64
100.699
100.73
100.778
100.812
100.808
100.796
100.792
100.795
100.806
100.813
100.81
100.805
100.798
100.791
100.789
100.789
100.787
100.782
101.046
101.022
101.004
100.993
100.972
100.947
100.913
100.894
100.886
100.878
100.869
100.862
100.854
100.848
100.84
100.827
100.817
100.815
100.813
100.808
)
;

boundaryField
{
    inlet
    {
        type            fixedValue;
        value           uniform 100;
    }
    outlet
    {
        type            inletOutlet;
        inletValue      uniform 100;
        value           nonuniform List<scalar> 
50
(
100.379
100.32
100.221
100.107
100.073
100.062
100.068
100.056
100.048
100.069
100.098
100.138
100.151
100.138
100.106
100.809
100.785
100.721
100.631
100.548
100.493
100.463
100.445
100.43
100.413
100.414
100.431
100.446
100.463
100.493
100.548
100.629
100.717
100.782
100.808
100.38
100.32
100.22
100.106
100.073
100.063
100.069
100.056
100.048
100.069
100.098
100.138
100.151
100.138
100.106
)
;
    }
    airfoil
    {
        type            zeroGradient;
    }
    top
    {
        type            symmetryPlane;
    }
    bottom
    {
        type            symmetryPlane;
    }
    defaultFaces
    {
        type            empty;
    }
}


// ************************************************************************* //
