/*--------------------------------*- C++ -*----------------------------------*\
  =========                 |
  \\      /  F ield         | OpenFOAM: The Open Source CFD Toolbox
   \\    /   O peration     | Website:  https://openfoam.org
    \\  /    A nd           | Version:  7
     \\/     M anipulation  |
\*---------------------------------------------------------------------------*/
FoamFile
{
    version     2.0;
    format      ascii;
    class       volScalarField;
    location    "5.3";
    object      p;
}
// * * * * * * * * * * * * * * * * * * * * * * * * * * * * * * * * * * * * * //

dimensions      [1 -1 -2 0 0 0 0];

internalField   nonuniform List<scalar> 
3700
(
0.202003
0.288863
0.328569
0.371521
0.392404
0.364689
0.347815
0.361328
0.377732
0.411996
0.431877
0.455522
0.474045
0.483115
0.495999
0.506057
0.495791
0.492882
0.52496
0.531956
0.138089
0.115232
0.115059
0.116848
0.12094
0.111286
0.107885
0.125755
0.154279
0.182922
0.184369
0.169549
0.161923
0.170295
0.179967
0.179067
0.172268
0.173146
0.187497
0.199077
0.134069
0.0962508
0.0776211
0.0540193
0.0464353
0.0480199
0.0567867
0.0668518
0.0748921
0.0830298
0.0804307
0.0788337
0.0783786
0.0799874
0.0845533
0.0943833
0.106043
0.117294
0.128119
0.13489
0.128232
0.0917453
0.0694397
0.0447497
0.0405598
0.0439229
0.0539107
0.0681009
0.0821426
0.0972912
0.113676
0.117901
0.12152
0.121644
0.121898
0.122985
0.1288
0.141238
0.157736
0.185717
0.120861
0.0855116
0.0617315
0.040142
0.03841
0.0428829
0.0517486
0.0650796
0.0802266
0.0966362
0.120699
0.13718
0.153117
0.162911
0.170105
0.167246
0.16332
0.165279
0.176588
0.219213
0.104566
0.079096
0.0520035
0.0392422
0.0382098
0.0462756
0.056608
0.0664924
0.0790053
0.0936691
0.117443
0.140283
0.168368
0.193401
0.213218
0.230391
0.238063
0.246592
0.249215
0.278007
0.0821722
0.0632646
0.0403012
0.0412032
0.046416
0.0640668
0.0802493
0.0897031
0.0982538
0.110336
0.120877
0.138287
0.172967
0.208888
0.24032
0.275276
0.30744
0.340391
0.356988
0.400726
0.0623256
0.0472958
0.0348163
0.0433125
0.0557684
0.0782063
0.104928
0.124869
0.145129
0.165361
0.16905
0.181189
0.196989
0.228712
0.268188
0.315807
0.369328
0.426911
0.472652
0.563146
0.047161
0.0363078
0.0342479
0.0455118
0.0582264
0.0807206
0.111374
0.138588
0.182834
0.222246
0.250837
0.280478
0.307352
0.340432
0.365654
0.400379
0.449573
0.529862
0.604605
0.747864
0.0351823
0.0290438
0.0353975
0.04677
0.0577659
0.0785867
0.106662
0.135567
0.19329
0.257429
0.316066
0.367789
0.429628
0.483758
0.531027
0.581018
0.62952
0.697467
0.801971
0.954769
0.027083
0.024455
0.0337078
0.046878
0.0606058
0.0917779
0.113426
0.138191
0.192052
0.275932
0.366273
0.446898
0.545467
0.623912
0.712621
0.802092
0.890689
0.968788
1.13857
1.12386
0.0216957
0.020637
0.0303836
0.0509697
0.0811486
0.139019
0.174778
0.235639
0.321351
0.405599
0.50608
0.605029
0.715715
0.814407
0.9335
1.07685
1.22442
1.35069
1.5493
1.49656
0.0186944
0.0182154
0.0314336
0.0711958
0.130332
0.210047
0.28225
0.399544
0.544165
0.694837
0.825026
0.943778
1.05975
1.16667
1.29419
1.46447
1.66077
1.84917
2.10863
2.09113
0.0179186
0.0207571
0.0430837
0.111278
0.184383
0.266109
0.382047
0.548053
0.752955
0.985774
1.17145
1.35285
1.52139
1.68637
1.88478
2.10644
2.33012
2.57743
2.80517
3.00552
0.0186829
0.0300694
0.0634939
0.13933
0.223097
0.317862
0.514881
0.766656
1.07977
1.39354
1.65952
1.91143
2.15045
2.3973
2.70016
2.98116
3.25043
3.50975
3.67513
3.79366
0.0201129
0.0443603
0.0836605
0.145286
0.298389
0.622913
1.02612
1.44082
1.90839
2.29524
2.58921
2.86765
3.14436
3.44343
3.75974
3.94964
4.06476
4.1253
4.03665
3.91669
0.0186385
0.0574663
0.138165
0.320925
0.79461
1.45542
2.05014
2.6365
3.20568
3.57327
3.79339
4.03179
4.24514
4.39945
4.47807
4.40103
4.17967
3.64118
2.78504
1.88885
0.0265567
0.114302
0.473683
1.21216
2.14095
2.90637
3.54729
4.22477
4.75947
4.81204
4.73233
4.75076
4.70955
4.53717
4.02484
3.0646
2.08836
1.33109
1.01832
0.992885
0.306989
0.888766
2.00662
3.18485
4.19322
4.84611
5.41817
5.88031
5.7293
5.2735
4.84655
4.30969
3.3906
2.3254
1.42622
1.02974
0.989402
0.994939
0.997328
0.999442
2.32463
3.64013
4.91557
5.72879
6.23049
6.40861
6.53143
6.25252
4.55716
3.22064
2.37651
1.56102
1.07724
0.987204
0.992797
0.996224
0.999147
0.999973
1.00002
1.00001
6.97708
6.93921
6.91431
6.91052
6.98058
6.75965
6.03578
2.44487
0.614094
1
1
1
1
1
1
1
1
1
1
1
6.95121
6.90135
6.83919
6.78092
6.84317
5.81793
2.5998
1.01909
1
1
1
1
1
1
1
1
1
1
1
1
6.80685
6.85231
6.82013
6.66218
6.36658
3.27938
1.01994
0.999745
1
1
1
1
1
1
1
1
1
1
1
1
6.68586
6.83099
6.81962
6.46788
4.70847
1.42332
0.995406
1.00007
0.999999
1
1
1
1
1
1
1
1
1
1
1
6.53483
6.83368
6.83095
6.05352
2.82682
0.973618
1.00034
0.999994
1
1
1
1
1
1
1
1
1
1
1
1
6.41148
6.79175
6.84053
5.06504
1.42974
1
1
1
1
1
1
1
1
1
1
1
1
1
1
1
6.35558
6.67022
6.65341
3.46331
0.974178
1
1
1
1
1
1
1
1
1
1
1
1
1
1
1
6.48881
6.61279
6.02541
2.0587
0.999996
1
1
1
1
1
1
1
1
1
1
1
1
1
1
1
6.96612
6.70979
4.91637
1.16084
1
1
1
1
1
1
1
1
1
1
1
1
1
1
1
1
7.21111
6.35657
3.51585
0.987933
1
1
1
1
1
1
1
1
1
1
1
1
1
1
1
1
7.40647
5.99658
2.33837
1
1
1
1
1
1
1
1
1
1
1
1
1
1
1
1
1
7.49991
5.43438
1.60073
1
1
1
1
1
1
1
1
1
1
1
1
1
1
1
1
1
7.54497
4.73685
1.1785
1
1
1
1
1
1
1
1
1
1
1
1
1
1
1
1
1
7.42699
3.98428
1.00502
1
1
1
1
1
1
1
1
1
1
1
1
1
1
1
1
1
7.1851
3.15593
1
1
1
1
1
1
1
1
1
1
1
1
1
1
1
1
1
1
6.8749
2.55076
1
1
1
1
1
1
1
1
1
1
1
1
1
1
1
1
1
1
6.69999
1.93435
1
1
1
1
1
1
1
1
1
1
1
1
1
1
1
1
1
1
6.33794
1.36387
1
1
1
1
1
1
1
1
1
1
1
1
1
1
1
1
1
1
5.65122
1.00533
1
1
1
1
1
1
1
1
1
1
1
1
1
1
1
1
1
1
4.66047
1.00005
1
1
1
1
1
1
1
1
1
1
1
1
1
1
1
1
1
1
4.66654
1.00005
1
1
1
1
1
1
1
1
1
1
1
1
1
1
1
1
1
1
5.64914
1.00514
1
1
1
1
1
1
1
1
1
1
1
1
1
1
1
1
1
1
6.32908
1.35851
1
1
1
1
1
1
1
1
1
1
1
1
1
1
1
1
1
1
6.71282
1.9307
1
1
1
1
1
1
1
1
1
1
1
1
1
1
1
1
1
1
6.87933
2.56332
1
1
1
1
1
1
1
1
1
1
1
1
1
1
1
1
1
1
7.17564
3.16526
1
1
1
1
1
1
1
1
1
1
1
1
1
1
1
1
1
1
7.42836
3.98168
1.00365
1
1
1
1
1
1
1
1
1
1
1
1
1
1
1
1
1
7.54849
4.72838
1.17646
1
1
1
1
1
1
1
1
1
1
1
1
1
1
1
1
1
7.4996
5.42155
1.59494
1
1
1
1
1
1
1
1
1
1
1
1
1
1
1
1
1
7.40872
6.00585
2.32857
1
1
1
1
1
1
1
1
1
1
1
1
1
1
1
1
1
7.2128
6.36318
3.53021
0.98782
1
1
1
1
1
1
1
1
1
1
1
1
1
1
1
1
6.96411
6.71615
4.93407
1.16359
1
1
1
1
1
1
1
1
1
1
1
1
1
1
1
1
6.48058
6.61276
6.03728
2.06753
0.999998
1
1
1
1
1
1
1
1
1
1
1
1
1
1
1
6.35402
6.66229
6.63332
3.45543
0.974386
1
1
1
1
1
1
1
1
1
1
1
1
1
1
1
6.40738
6.78373
6.84343
5.06465
1.41638
1
1
1
1
1
1
1
1
1
1
1
1
1
1
1
6.53215
6.83537
6.83859
6.07275
2.82534
0.973541
1.00034
0.999994
1
1
1
1
1
1
1
1
1
1
1
1
6.68527
6.83303
6.82109
6.44426
4.71006
1.43125
0.995256
1.00007
0.999999
1
1
1
1
1
1
1
1
1
1
1
6.80788
6.85247
6.81816
6.65056
6.38088
3.2856
1.02173
0.999717
1
1
1
1
1
1
1
1
1
1
1
1
6.95324
6.89966
6.83784
6.78354
6.85836
5.81549
2.59618
1.01846
1
1
1
1
1
1
1
1
1
1
1
1
6.98034
6.93893
6.91231
6.90836
6.97415
6.76223
6.03683
2.43625
0.615297
1
1
1
1
1
1
1
1
1
1
1
2.32568
3.6445
4.91254
5.72267
6.2219
6.40675
6.53191
6.25272
4.55887
3.22274
2.3784
1.56255
1.0777
0.987222
0.992795
0.996221
0.999145
0.999973
1.00002
1.00001
0.305927
0.884382
2.01826
3.19305
4.17934
4.83675
5.41633
5.88174
5.7309
5.27491
4.84668
4.30946
3.39033
2.32561
1.42667
1.02992
0.989409
0.994945
0.997331
0.999443
0.0281068
0.121182
0.473754
1.21469
2.15419
2.90156
3.53629
4.21913
4.76422
4.8102
4.72875
4.74794
4.70867
4.53842
4.02629
3.06616
2.08908
1.33099
1.01822
0.99289
0.0154974
0.04825
0.12814
0.340937
0.808593
1.46441
2.05635
2.64071
3.20771
3.57437
3.79103
4.02722
4.24207
4.39913
4.47943
4.40272
4.18156
3.64231
2.78483
1.88806
0.0217924
0.0450366
0.0781653
0.11922
0.287265
0.63387
1.03404
1.45108
1.92158
2.30997
2.60041
2.87425
3.14837
3.44639
3.76462
3.95391
4.06669
4.12417
4.03506
3.91487
0.0218662
0.0360166
0.0651845
0.127036
0.21508
0.302797
0.504227
0.755793
1.07322
1.38866
1.65624
1.90674
2.14606
2.39427
2.69963
2.98038
3.24878
3.5064
3.67339
3.79363
0.0200548
0.0253698
0.0487399
0.11164
0.183042
0.258775
0.37698
0.537918
0.739031
0.974511
1.16165
1.34631
1.51773
1.68515
1.88566
2.10793
2.32975
2.57622
2.80469
3.00489
0.0175966
0.0209661
0.0373111
0.0748255
0.13465
0.211274
0.2848
0.402777
0.545406
0.697905
0.827886
0.947955
1.06452
1.1717
1.2969
1.46256
1.65656
1.84526
2.1093
2.094
0.0187362
0.0221813
0.0354981
0.0514282
0.0844855
0.14514
0.178794
0.245164
0.335231
0.419182
0.516422
0.611118
0.716619
0.812415
0.927668
1.0715
1.22246
1.35308
1.553
1.49973
0.0233076
0.025971
0.0370537
0.0458586
0.060315
0.0978236
0.113804
0.139238
0.191269
0.269573
0.360132
0.441862
0.54087
0.619914
0.710175
0.802315
0.894374
0.973864
1.14094
1.12204
0.0311581
0.029567
0.0384796
0.0449965
0.0555212
0.0808601
0.104209
0.131437
0.188732
0.2537
0.3129
0.365424
0.429545
0.48375
0.533921
0.58585
0.635035
0.699703
0.80079
0.953345
0.0423248
0.0343027
0.0378046
0.0449541
0.0567871
0.082207
0.10978
0.136236
0.182541
0.223658
0.254424
0.284466
0.313336
0.347438
0.37164
0.404093
0.447606
0.525012
0.600679
0.746219
0.0570784
0.0440398
0.0361731
0.0434838
0.0554846
0.0796258
0.10585
0.126078
0.149088
0.170469
0.174241
0.187001
0.200731
0.228706
0.264468
0.310095
0.363319
0.422765
0.471223
0.564523
0.0737961
0.0589354
0.0394043
0.0416747
0.0484178
0.0660365
0.0847041
0.0930868
0.101246
0.112166
0.120093
0.135641
0.168132
0.203666
0.235025
0.270563
0.304936
0.33949
0.359938
0.404175
0.090069
0.0761208
0.0529756
0.0397835
0.0389051
0.0465565
0.0587459
0.067526
0.0784102
0.092178
0.114247
0.136271
0.164288
0.189844
0.210319
0.229543
0.240117
0.25085
0.252496
0.278031
0.103623
0.083602
0.0676213
0.042427
0.038658
0.0426358
0.0508797
0.0648499
0.0788757
0.0947159
0.118468
0.134671
0.15083
0.162003
0.170905
0.1708
0.165777
0.167032
0.174903
0.21424
0.113358
0.0880914
0.0738909
0.0491078
0.0404338
0.0439969
0.052317
0.0678187
0.0817007
0.0963451
0.113624
0.117835
0.121718
0.122848
0.124015
0.124903
0.12879
0.139961
0.155677
0.183987
0.121781
0.0939181
0.0786379
0.0573646
0.0453396
0.0481581
0.0552482
0.066756
0.0760159
0.0843495
0.0823753
0.0804645
0.079787
0.081031
0.0850865
0.0946549
0.106176
0.11742
0.128124
0.136452
0.132789
0.10817
0.109715
0.0921303
0.0787634
0.0937151
0.120346
0.138712
0.141975
0.149991
0.161797
0.176604
0.17645
0.163018
0.159659
0.172709
0.199997
0.227023
0.252645
0.241052
0.209059
0.277605
0.325556
0.337383
0.329977
0.336133
0.35533
0.372897
0.379248
0.408379
0.436636
0.464706
0.482031
0.478961
0.48877
0.515952
0.523508
0.525732
0.531338
0.521813
0.57328
0.643885
0.697198
0.779965
0.843221
0.896507
0.889473
0.862902
0.853021
0.868393
0.91828
0.964833
0.967576
0.948187
0.924433
0.924464
0.944474
0.971666
0.975829
0.966046
0.310593
0.428948
0.549306
0.660485
0.768737
0.851771
0.873306
0.873963
0.866634
0.876135
0.913181
0.956041
0.965334
0.957363
0.936941
0.929966
0.935312
0.953437
0.95978
0.960491
0.135922
0.159728
0.239258
0.342036
0.503511
0.680029
0.786686
0.862843
0.885273
0.889247
0.906959
0.929865
0.945056
0.954013
0.957809
0.9528
0.946068
0.943065
0.945871
0.955338
0.192996
0.213423
0.230228
0.234563
0.245027
0.309553
0.501838
0.740402
0.828485
0.894917
0.913091
0.908383
0.919556
0.948149
0.971368
0.972597
0.961221
0.940057
0.938364
0.952035
0.243251
0.260495
0.28356
0.285205
0.280735
0.282193
0.29778
0.40016
0.640811
0.827642
0.872584
0.884444
0.902455
0.939619
0.976183
0.98
0.97036
0.942587
0.937158
0.952524
0.30355
0.33577
0.341423
0.323327
0.304373
0.304064
0.317857
0.333511
0.384914
0.535796
0.735741
0.83587
0.864876
0.918814
0.96825
0.977971
0.973403
0.949214
0.94578
0.959439
0.387173
0.412484
0.413009
0.382845
0.355767
0.354474
0.361012
0.375699
0.381253
0.388014
0.465861
0.676865
0.814364
0.878774
0.949227
0.973942
0.970071
0.950495
0.95597
0.965806
0.508234
0.503997
0.49105
0.456924
0.410515
0.395414
0.39938
0.404256
0.40835
0.406449
0.403074
0.449636
0.642874
0.818026
0.890924
0.945067
0.94334
0.942553
0.96375
0.966729
0.662478
0.617891
0.584837
0.532113
0.469801
0.440675
0.432672
0.431808
0.438403
0.436173
0.426142
0.421485
0.454234
0.628529
0.804508
0.917186
0.904038
0.92781
0.968458
0.965097
0.85609
0.745849
0.696527
0.63887
0.565452
0.503265
0.471625
0.456785
0.461131
0.46372
0.452802
0.445243
0.439736
0.457869
0.601495
0.815232
0.868895
0.932465
0.974011
0.960726
1.28096
0.922177
0.75342
0.722998
0.701856
0.648806
0.565247
0.532886
0.523316
0.511831
0.503448
0.49459
0.484735
0.463591
0.47148
0.55559
0.744707
0.891228
0.939005
0.95058
2.04349
1.52814
1.10641
0.88388
0.874011
0.840374
0.737149
0.62967
0.59181
0.56599
0.546247
0.545094
0.535647
0.522418
0.49414
0.489404
0.52748
0.639883
0.780373
0.906371
2.50243
2.17476
1.73514
1.31883
1.06432
0.955891
0.870917
0.740158
0.691545
0.672963
0.651659
0.624915
0.605119
0.584709
0.560307
0.525632
0.527744
0.534426
0.570891
0.741102
2.3673
2.34877
2.23845
1.94567
1.55163
1.23738
1.09833
0.969631
0.887861
0.823843
0.771476
0.709259
0.653689
0.618883
0.60831
0.583491
0.563141
0.554519
0.547927
0.58305
1.68372
2.14228
2.22521
2.19764
2.06143
1.77549
1.4782
1.24867
1.08163
0.945416
0.86283
0.806202
0.730883
0.701314
0.700554
0.683432
0.648123
0.618031
0.576252
0.577549
1.10975
1.43612
1.84774
2.11465
2.11382
2.07397
1.92951
1.69314
1.43207
1.22279
1.07404
0.997853
0.911222
0.843089
0.799957
0.751979
0.696784
0.656118
0.631514
0.604643
1.00455
1.04437
1.20401
1.54696
1.86229
2.02154
2.01549
1.97222
1.83065
1.62883
1.39773
1.21953
1.08671
0.962494
0.883
0.827369
0.771471
0.735029
0.73136
0.70124
1.00009
1.00112
1.01024
1.07909
1.26928
1.5742
1.8214
1.93432
1.92784
1.88945
1.77153
1.57589
1.39184
1.21801
1.07939
1.00702
0.942165
0.881152
0.830896
0.759872
1
1.00001
1.00014
1.00256
1.01918
1.09979
1.29159
1.55776
1.76774
1.85771
1.85232
1.81441
1.71727
1.56056
1.37428
1.22072
1.10659
1.00311
0.921452
0.83103
1
1
1
1.00003
1.00033
1.00383
1.02491
1.10903
1.28526
1.52199
1.70341
1.78784
1.78416
1.75718
1.678
1.53536
1.38048
1.23222
1.12471
0.997939
1
1
1
1
1
1.00005
1.0005
1.00472
1.02656
1.10482
1.26474
1.47538
1.63951
1.72558
1.72271
1.70228
1.64295
1.5285
1.39635
1.19509
1
1
1
1
1
1
1
1.00006
1.00059
1.00469
1.02549
1.09495
1.23288
1.42349
1.57202
1.66751
1.6657
1.65318
1.61641
1.46354
1
1
1
1
1
1
1
1
1.00001
1.00006
1.00059
1.0043
1.0216
1.08033
1.19777
1.37304
1.50629
1.60581
1.61516
1.59142
1
1
1
1
1
1
1
1
1
1
1.00001
1.00006
1.0005
1.00343
1.0179
1.06307
1.16539
1.3139
1.44371
1.54929
1
1
1
1
1
1
1
1
1
1
1
1
1
1.00005
1.00041
1.00253
1.01419
1.05132
1.13611
1.3881
1.61921
2.45932
2.58213
2.08551
1.31059
1.03701
1.00187
1.00005
1
1
1
1
1
1
1
2.34473
2.81501
2.5255
1.54078
1.04834
1.00082
1
1
1
1
1
1
1
1
1
2.93489
2.8693
1.97896
1.15209
1.00518
1.00005
1
1
1
1
1
1
1
1
1
3.25406
2.5582
1.36541
1.01965
1.0002
1
1
1
1
1
1
1
1
1
1
3.32632
1.68354
1.04664
1.00047
1
1
1
1
1
1
1
1
1
1
1
2.07109
1.07345
1.0005
0.999999
1
1
1
1
1
1
1
1
1
1
1
1.10236
1.00058
0.999997
1
1
1
1
1
1
1
1
1
1
1
1
0.99814
0.999865
0.999996
1
1
1
1
1
1
1
1
1
1
1
1
0.999967
1
1
1
1
1
1
1
1
1
1
1
1
1
1
1
1
1
1
1
1
1
1
1
1
1
1
1
1
1
1
1
1
1
1
1
1
1
1
1
1
1
1
1
1
1
1
1
1
1
1
1
1
1
1
1
1
1
1
1
1
1
1
1
1
1
1
1
1
1
1
1
1
1
1
1
1
1
1
1
1
1
1
1
1
1
1
1
1
1
1
1
1
1
1
1
1
1
1
1
1
1
1
1
1
1
1
1
1
1
1
1
1
1
1
1
1
1
1
1
1
1
1
1
1
1
1
1
1
1
1
1
1
1
1
1
1
1
1
1
1
1
1
1
1
1
1
1
1
1
1
1
1
1
1
1
1
1
1
1
1
1
1
1
1
1
1
1
1
1
1
1
1
1
1
1
1
1
1
1
1
1
1
1
1
1
1
1
1
1
1
1
1
1
1
1
1
1
1
1
1
1
1
1
1
1
1
1
1
1
1
1
1
1
1
1
1
1
1
1
1
1
1
1
1
1
1
1
1
1
1
1
1
1
1
1
1
1
1
1
1
1
1
1
1
1
1
1
1
1
1
1
1
1
1
1
1
1
1
1
1
1
1
1
1
1
1
1
1
1
1
1
1
1
1
1
1
1
1
1
1
1
1
1
1
1
1
1
1
1
1
1
1
1
1
1
1
1
1
1
1
1
1
1
1
1
1
1
1
1
1
1
1
1
1
1
1
1
1
1
1
1
1
1
1
1
1
1
1
1
1
1
1
1
1
1
1
1
1
1
1
1
1
1
1
1
1
1
1
1
1
1
1
1
1
1
1
1
1
1
1
1
1
1
1
1
1
1
1
1
1
1
1
1
1
1
1
1
1
1
1
1
1
1
1
1
1
1
1
1
1
1
1
1
1
1
1
1
1
1
1
1
1
1
1
1
1
1
1
1
1
1
1
1
1
1
1
1
1
1
1
1
1
1
1
1
1
1
1
1
1
1
1
1
1
1
1
1
1
1
1
1
1
1
1
1
1
1
1
1
1
1
1
1
1
1
1
1
1
1
1
1
1
1
1
1
1
1
1
1
1
1
1
1
1
1
1
1
1
1
1
1
1
1
1
1
1
1
1
1
1
1
1
1
1
1
1
1
1
1
1
1
1
1
1
1
1
1
1
1
1
1
1
1
1
1
1
1
1
1
1
1
1
1
1
1
1
1
1
1
1
1
1
1
1
1
1
1
1
1
1
1
1
1
1
1
1
1
1
1
1
1
1
1
1
1
1
1
1
1
1
1
1
1
1
1
1
1
1
1
1
1
1
1
1
1
1
1
1
1
1
1
1
1
1
1
1
1
1
1
1
1
1
1
1
1
1
1
1
1
1
1
1
1
1
1
1
1
1
1
1
1
1
1
1
1
1
1
1
1
1
1
1
1
1
1
1
1
1
1
1
1
1
1
1
1
1
1
1
1
1
1
1
1
1
1
1
1
1
1
1
1
1
1
1
1
1
1
1
1
1
1
1
1
1
1
1
1
1
1
1
1
1
1
1
1
1
1
1
1
1
1
1
1
1
1
1
1
1
1
1
1
1
1
1
1
1
1
1
1
1
1
1
1
1
1
1
1
1
1
1
1
1
1
1
1
1
1
1
1
1
1
1
1
1
1
1
1
1
1
1
1
1
1
1
1
1
1
1
1
1
1
1
1
1
1
1
1
1
1
1
1
1
1
1
1
1
1
1
1
1
1
1
1
1
1
1
1
1
1
1
1
1
1
1
1
1
1
1
1
1
1
1
1
1
1
1
1
1
1
1
1
1
1
1
1
1
1
1
1
1
1
1
1
1
1
1
1
1
1
1
1
1
1
1
1
1
1
1
1
1
1
1
1
1
1
1
1
1
1
1
1
1
1
1
1
1
1
1
1
1
1
1
1
1
0.999967
1
1
1
1
1
1
1
1
1
1
1
1
1
1
0.99814
0.999865
0.999996
1
1
1
1
1
1
1
1
1
1
1
1
1.1022
1.00057
0.999997
1
1
1
1
1
1
1
1
1
1
1
1
2.0705
1.07348
1.0005
0.999999
1
1
1
1
1
1
1
1
1
1
1
3.32611
1.68309
1.04661
1.00047
1
1
1
1
1
1
1
1
1
1
1
3.25356
2.55804
1.3651
1.01959
1.0002
1
1
1
1
1
1
1
1
1
1
2.93397
2.86907
1.97894
1.15212
1.00519
1.00005
1
1
1
1
1
1
1
1
1
2.34621
2.81493
2.52567
1.54071
1.04834
1.00082
1
1
1
1
1
1
1
1
1
1.61757
2.46016
2.58218
2.08539
1.31052
1.037
1.00187
1.00005
1
1
1
1
1
1
1
1.28621
2.03804
2.50002
2.36668
1.6843
1.1099
1.00455
1.00009
1
1
1
1
1
1
1
0.930309
1.53296
2.17349
2.34854
2.1426
1.43661
1.04443
1.00112
1.00001
1
1
1
1
1
1
0.734393
1.11099
1.74355
2.23756
2.22491
1.84796
1.20408
1.01024
1.00014
1
1
1
1
1
1
0.713615
0.871175
1.3165
1.94721
2.19856
2.11515
1.54689
1.07901
1.00255
1.00003
1
1
1
1
1
0.703675
0.864287
1.05416
1.55183
2.05963
2.11389
1.86201
1.26904
1.01915
1.00033
1
1
1
1
1
0.657795
0.839186
0.957477
1.24609
1.76771
2.07423
2.02126
1.57372
1.09974
1.00383
1.00005
1
1
1
1
0.576344
0.744747
0.861869
1.09823
1.48791
1.92624
2.01525
1.82121
1.29153
1.02492
1.0005
1
1
1
1
0.539254
0.646734
0.735713
0.943584
1.25502
1.69377
1.9721
1.93436
1.5579
1.1091
1.00473
1.00006
1
1
1
0.524777
0.600546
0.704822
0.871791
1.07078
1.44006
1.83172
1.92794
1.76795
1.28541
1.02657
1.00059
1.00001
1
1
0.50469
0.56802
0.685161
0.826306
0.935269
1.22344
1.62849
1.88914
1.85749
1.52198
1.10485
1.0047
1.00006
1
1
0.492398
0.539228
0.663366
0.779679
0.859435
1.06394
1.39534
1.77094
1.8521
1.70322
1.2647
1.02549
1.00059
1.00001
1
0.484751
0.537059
0.636671
0.715278
0.802231
0.989374
1.21844
1.57561
1.81438
1.78787
1.47545
1.09497
1.0043
1.00006
1
0.480357
0.530527
0.605737
0.656563
0.731695
0.909572
1.08803
1.39203
1.71723
1.78431
1.63971
1.23299
1.02161
1.0005
1
0.472685
0.513577
0.578557
0.620163
0.709433
0.848493
0.964252
1.21872
1.56095
1.75748
1.72594
1.42373
1.08037
1.00343
1.00005
0.479129
0.481611
0.551628
0.608728
0.709152
0.803931
0.881315
1.08046
1.37546
1.67868
1.72313
1.57238
1.19788
1.0179
1.00041
0.561413
0.485796
0.522575
0.584074
0.690027
0.751393
0.823072
1.0092
1.22133
1.53611
1.70272
1.66785
1.37319
1.06311
1.00253
0.751438
0.530643
0.527061
0.559038
0.651751
0.693487
0.769515
0.944046
1.10581
1.38119
1.64342
1.66597
1.50647
1.16544
1.01419
0.89744
0.649606
0.538858
0.549638
0.618772
0.6527
0.735115
0.882412
1.00187
1.23308
1.5288
1.65335
1.60595
1.31397
1.05133
0.940666
0.788355
0.577587
0.546022
0.576081
0.629413
0.73125
0.831486
0.919798
1.12495
1.3964
1.61651
1.61528
1.44376
1.13611
0.950207
0.908211
0.744854
0.583107
0.577266
0.603362
0.700841
0.759685
0.829195
0.997404
1.19495
1.46361
1.5915
1.54931
1.38804
0.863469
0.742041
0.688866
0.643541
0.577189
0.509143
0.475008
0.463702
0.463285
0.458259
0.445031
0.439929
0.43825
0.461274
0.605533
0.821127
0.87352
0.937901
0.97506
0.960404
0.667375
0.613933
0.582525
0.539346
0.479169
0.441091
0.431883
0.431928
0.436184
0.42897
0.417294
0.418457
0.454485
0.625804
0.837154
0.940255
0.911464
0.928095
0.966746
0.963247
0.50946
0.502883
0.492219
0.461186
0.413125
0.393378
0.39707
0.401839
0.402827
0.395522
0.399306
0.447836
0.643325
0.82276
0.915609
0.951971
0.94159
0.934606
0.955793
0.964033
0.387194
0.411184
0.413439
0.384217
0.357452
0.355609
0.361421
0.374853
0.381045
0.386757
0.458158
0.675373
0.817861
0.915366
0.95243
0.961661
0.954382
0.938306
0.942534
0.961543
0.301669
0.336829
0.342128
0.32409
0.304708
0.303144
0.314797
0.330326
0.381004
0.524948
0.738312
0.839918
0.872467
0.926816
0.959531
0.965657
0.959716
0.940974
0.94041
0.956646
0.242931
0.261828
0.281844
0.284568
0.279357
0.280311
0.299042
0.401602
0.634649
0.829264
0.885807
0.884714
0.90022
0.934329
0.965127
0.971285
0.964071
0.94248
0.940307
0.954138
0.194706
0.214184
0.228405
0.23276
0.244099
0.313495
0.514914
0.742662
0.832019
0.903
0.921183
0.907453
0.914201
0.936915
0.955383
0.962626
0.962218
0.952381
0.948618
0.956837
0.137302
0.159999
0.249548
0.358905
0.50672
0.68596
0.789044
0.863966
0.892439
0.904156
0.917739
0.930357
0.938232
0.943273
0.943626
0.949049
0.958209
0.962057
0.960312
0.960499
0.264325
0.407468
0.551194
0.665366
0.756864
0.851093
0.872225
0.879397
0.875054
0.888429
0.9206
0.954619
0.957647
0.94688
0.929749
0.933413
0.956234
0.977353
0.97643
0.965041
0.548208
0.647729
0.69855
0.779724
0.838465
0.880595
0.877504
0.867241
0.856862
0.872805
0.92487
0.972897
0.974758
0.951654
0.924421
0.926568
0.952116
0.97905
0.976842
0.962099
)
;

boundaryField
{
    inlet
    {
        type            fixedValue;
        value           uniform 1;
    }
    outlet
    {
        type            zeroGradient;
    }
    airfoil
    {
        type            zeroGradient;
    }
    top
    {
        type            symmetryPlane;
    }
    bottom
    {
        type            symmetryPlane;
    }
    defaultFaces
    {
        type            empty;
    }
}


// ************************************************************************* //
