/*--------------------------------*- C++ -*----------------------------------*\
  =========                 |
  \\      /  F ield         | OpenFOAM: The Open Source CFD Toolbox
   \\    /   O peration     | Website:  https://openfoam.org
    \\  /    A nd           | Version:  7
     \\/     M anipulation  |
\*---------------------------------------------------------------------------*/
FoamFile
{
    version     2.0;
    format      ascii;
    class       volScalarField;
    location    "5.3";
    object      rho;
}
// * * * * * * * * * * * * * * * * * * * * * * * * * * * * * * * * * * * * * //

dimensions      [1 -3 0 0 0 0 0];

internalField   nonuniform List<scalar> 
3700
(
0.280907
0.401103
0.456035
0.515289
0.544253
0.505978
0.482722
0.501294
0.523523
0.57048
0.597952
0.630725
0.6564
0.668886
0.686748
0.700769
0.686838
0.683102
0.7275
0.736981
0.192827
0.160885
0.160558
0.162876
0.16847
0.155127
0.150521
0.175318
0.214646
0.254272
0.256322
0.235943
0.225474
0.23705
0.25049
0.249353
0.240208
0.24163
0.261591
0.277647
0.187158
0.134503
0.108528
0.0756219
0.0650448
0.0672602
0.0795059
0.0935658
0.10481
0.116193
0.11259
0.110384
0.109773
0.112032
0.118414
0.132143
0.148434
0.164155
0.17929
0.188775
0.178956
0.128195
0.0971277
0.062697
0.056854
0.0615554
0.0755072
0.0953148
0.11493
0.136093
0.15899
0.164919
0.170006
0.170222
0.170624
0.172165
0.180288
0.197646
0.220688
0.259766
0.168664
0.119508
0.0863976
0.0562782
0.0538654
0.0601191
0.0725119
0.091134
0.112287
0.135185
0.168784
0.191821
0.214081
0.227778
0.23786
0.233913
0.228494
0.231262
0.247063
0.306534
0.145994
0.110586
0.0728372
0.055029
0.0535915
0.0648802
0.0793285
0.0931288
0.110612
0.13108
0.164273
0.196162
0.23537
0.270318
0.298006
0.321998
0.332732
0.344672
0.348375
0.388582
0.114841
0.0885284
0.0564981
0.0577772
0.065086
0.0897746
0.11241
0.125623
0.137563
0.154409
0.169104
0.193408
0.241823
0.291963
0.33583
0.3846
0.429461
0.475434
0.498607
0.559573
0.0871779
0.0662429
0.0488263
0.0607182
0.0781373
0.10948
0.14681
0.17468
0.202993
0.231247
0.236412
0.253353
0.275407
0.319691
0.374767
0.441164
0.515758
0.596003
0.659764
0.785796
0.0660054
0.0508814
0.048027
0.0637821
0.081541
0.11293
0.155727
0.193737
0.255499
0.310502
0.350399
0.391768
0.429251
0.475414
0.510624
0.559074
0.627638
0.739452
0.843529
1.04291
0.0492667
0.0407121
0.0496184
0.0655241
0.0808567
0.109887
0.149098
0.189464
0.270002
0.359472
0.441228
0.513346
0.599501
0.674978
0.740867
0.810555
0.878138
0.97276
1.11819
1.33068
0.0379458
0.0342846
0.0472312
0.0656454
0.0847646
0.128234
0.158484
0.193059
0.268207
0.385213
0.511155
0.623506
0.760757
0.870037
0.993566
1.11815
1.24146
1.3501
1.58609
1.56568
0.0304201
0.0289439
0.0425657
0.07134
0.113434
0.194159
0.244093
0.328924
0.448346
0.56574
0.70579
0.843639
0.99774
1.13512
1.30082
1.5002
1.70536
1.88083
2.15654
2.08333
0.0262357
0.0255645
0.0440295
0.0996082
0.182078
0.293211
0.393857
0.557195
0.758513
0.968158
1.14939
1.31464
1.47602
1.62476
1.80208
2.03874
2.3114
2.57293
2.93286
2.90854
0.0251586
0.029144
0.060344
0.155563
0.257473
0.371346
0.532779
0.763806
1.04881
1.37257
1.63087
1.8831
2.11737
2.34653
2.62194
2.92958
3.23998
3.58311
3.89903
4.17705
0.0262343
0.0422302
0.0889249
0.194718
0.311452
0.443452
0.71761
1.06779
1.50299
1.93913
2.30885
2.65884
2.99068
3.33303
3.75285
4.14235
4.51572
4.87547
5.1054
5.27031
0.0282518
0.0622575
0.117143
0.203082
0.416316
0.867539
1.4279
2.00398
2.6532
3.1905
3.59877
3.98519
4.36882
4.783
5.22114
5.48432
5.64433
5.72882
5.60712
5.44283
0.0262117
0.0806025
0.193158
0.447561
1.10596
2.02356
2.8491
3.66264
4.45227
4.9623
5.26758
5.59788
5.89314
6.10697
6.21611
6.10982
5.80551
5.06336
3.87909
2.6371
0.0373918
0.160066
0.660287
1.68585
2.97438
4.03618
4.92492
5.86403
6.6052
6.67798
6.56747
6.593
6.53588
6.29808
5.5916
4.26387
2.91325
1.86166
1.42557
1.39007
0.429278
1.23772
2.78858
4.42183
5.81914
6.72393
7.51639
8.15685
7.94781
7.3164
6.72517
5.9836
4.71288
3.24041
1.99377
1.44149
1.38521
1.39294
1.39627
1.39923
3.232
5.05399
6.81956
7.94504
8.64001
8.88763
9.05777
8.67246
6.32664
4.47492
3.30822
2.1804
1.5077
1.38215
1.38995
1.39473
1.39881
1.39997
1.40003
1.40002
9.6714
9.6191
9.5849
9.58026
9.67848
9.37493
8.37577
3.40619
0.861229
1.40001
1.40001
1.40001
1.40001
1.40001
1.40001
1.40001
1.40001
1.40001
1.40001
1.40001
9.6355
9.56663
9.48098
9.40141
9.49004
8.0765
3.62243
1.42654
1.40001
1.40001
1.40001
1.40001
1.40001
1.40001
1.40001
1.40001
1.40001
1.40001
1.40001
1.40001
9.43601
9.49889
9.45464
9.23748
8.83196
4.56289
1.42759
1.39965
1.40001
1.40001
1.40001
1.40001
1.40001
1.40001
1.40001
1.40001
1.40001
1.40001
1.40001
1.40001
9.26882
9.46948
9.454
8.96938
6.53968
1.98787
1.39362
1.40011
1.4
1.40001
1.40001
1.40001
1.40001
1.40001
1.40001
1.40001
1.40001
1.40001
1.40001
1.40001
9.06011
9.47333
9.46993
8.39773
3.93443
1.36318
1.40048
1.4
1.40001
1.40001
1.40001
1.40001
1.40001
1.40001
1.40001
1.40001
1.40001
1.40001
1.40001
1.40001
8.88962
9.4157
9.48372
7.03229
1.99662
1.40001
1.40001
1.40001
1.40001
1.40001
1.40001
1.40001
1.40001
1.40001
1.40001
1.40001
1.40001
1.40001
1.40001
1.40001
8.81232
9.24794
9.22587
4.81544
1.36395
1.40001
1.40001
1.40001
1.40001
1.40001
1.40001
1.40001
1.40001
1.40001
1.40001
1.40001
1.40001
1.40001
1.40001
1.40001
8.99596
9.16872
8.35926
2.86865
1.4
1.40001
1.40001
1.40001
1.40001
1.40001
1.40001
1.40001
1.40001
1.40001
1.40001
1.40001
1.40001
1.40001
1.40001
1.40001
9.65552
9.30308
6.82694
1.6232
1.40001
1.40001
1.40001
1.40001
1.40001
1.40001
1.40001
1.40001
1.40001
1.40001
1.40001
1.40001
1.40001
1.40001
1.40001
1.40001
9.99396
8.81604
4.88848
1.38316
1.40001
1.40001
1.40001
1.40001
1.40001
1.40001
1.40001
1.40001
1.40001
1.40001
1.40001
1.40001
1.40001
1.40001
1.40001
1.40001
10.2639
8.31964
3.25703
1.40001
1.40001
1.40001
1.40001
1.40001
1.40001
1.40001
1.40001
1.40001
1.40001
1.40001
1.40001
1.40001
1.40001
1.40001
1.40001
1.40001
10.393
7.54342
2.23399
1.40001
1.40001
1.40001
1.40001
1.40001
1.40001
1.40001
1.40001
1.40001
1.40001
1.40001
1.40001
1.40001
1.40001
1.40001
1.40001
1.40001
10.4552
6.57911
1.64792
1.40001
1.40001
1.40001
1.40001
1.40001
1.40001
1.40001
1.40001
1.40001
1.40001
1.40001
1.40001
1.40001
1.40001
1.40001
1.40001
1.40001
10.2927
5.53759
1.40701
1.40001
1.40001
1.40001
1.40001
1.40001
1.40001
1.40001
1.40001
1.40001
1.40001
1.40001
1.40001
1.40001
1.40001
1.40001
1.40001
1.40001
9.95856
4.38959
1.40001
1.40001
1.40001
1.40001
1.40001
1.40001
1.40001
1.40001
1.40001
1.40001
1.40001
1.40001
1.40001
1.40001
1.40001
1.40001
1.40001
1.40001
9.53062
3.55057
1.40001
1.40001
1.40001
1.40001
1.40001
1.40001
1.40001
1.40001
1.40001
1.40001
1.40001
1.40001
1.40001
1.40001
1.40001
1.40001
1.40001
1.40001
9.29049
2.69591
1.40001
1.40001
1.40001
1.40001
1.40001
1.40001
1.40001
1.40001
1.40001
1.40001
1.40001
1.40001
1.40001
1.40001
1.40001
1.40001
1.40001
1.40001
8.79332
1.905
1.40001
1.40001
1.40001
1.40001
1.40001
1.40001
1.40001
1.40001
1.40001
1.40001
1.40001
1.40001
1.40001
1.40001
1.40001
1.40001
1.40001
1.40001
7.8449
1.4074
1.40001
1.40001
1.40001
1.40001
1.40001
1.40001
1.40001
1.40001
1.40001
1.40001
1.40001
1.40001
1.40001
1.40001
1.40001
1.40001
1.40001
1.40001
6.47213
1.40007
1.40001
1.40001
1.40001
1.40001
1.40001
1.40001
1.40001
1.40001
1.40001
1.40001
1.40001
1.40001
1.40001
1.40001
1.40001
1.40001
1.40001
1.40001
6.48047
1.40008
1.40001
1.40001
1.40001
1.40001
1.40001
1.40001
1.40001
1.40001
1.40001
1.40001
1.40001
1.40001
1.40001
1.40001
1.40001
1.40001
1.40001
1.40001
7.84203
1.40715
1.40001
1.40001
1.40001
1.40001
1.40001
1.40001
1.40001
1.40001
1.40001
1.40001
1.40001
1.40001
1.40001
1.40001
1.40001
1.40001
1.40001
1.40001
8.78123
1.89758
1.40001
1.40001
1.40001
1.40001
1.40001
1.40001
1.40001
1.40001
1.40001
1.40001
1.40001
1.40001
1.40001
1.40001
1.40001
1.40001
1.40001
1.40001
9.30832
2.69087
1.40001
1.40001
1.40001
1.40001
1.40001
1.40001
1.40001
1.40001
1.40001
1.40001
1.40001
1.40001
1.40001
1.40001
1.40001
1.40001
1.40001
1.40001
9.53664
3.56793
1.40001
1.40001
1.40001
1.40001
1.40001
1.40001
1.40001
1.40001
1.40001
1.40001
1.40001
1.40001
1.40001
1.40001
1.40001
1.40001
1.40001
1.40001
9.94534
4.40249
1.40001
1.40001
1.40001
1.40001
1.40001
1.40001
1.40001
1.40001
1.40001
1.40001
1.40001
1.40001
1.40001
1.40001
1.40001
1.40001
1.40001
1.40001
10.2945
5.53402
1.4051
1.40001
1.40001
1.40001
1.40001
1.40001
1.40001
1.40001
1.40001
1.40001
1.40001
1.40001
1.40001
1.40001
1.40001
1.40001
1.40001
1.40001
10.4602
6.56744
1.64509
1.40001
1.40001
1.40001
1.40001
1.40001
1.40001
1.40001
1.40001
1.40001
1.40001
1.40001
1.40001
1.40001
1.40001
1.40001
1.40001
1.40001
10.3926
7.52573
2.22597
1.40001
1.40001
1.40001
1.40001
1.40001
1.40001
1.40001
1.40001
1.40001
1.40001
1.40001
1.40001
1.40001
1.40001
1.40001
1.40001
1.40001
10.267
8.33251
3.24347
1.40001
1.40001
1.40001
1.40001
1.40001
1.40001
1.40001
1.40001
1.40001
1.40001
1.40001
1.40001
1.40001
1.40001
1.40001
1.40001
1.40001
9.99633
8.82518
4.90835
1.383
1.40001
1.40001
1.40001
1.40001
1.40001
1.40001
1.40001
1.40001
1.40001
1.40001
1.40001
1.40001
1.40001
1.40001
1.40001
1.40001
9.65274
9.31181
6.85135
1.62699
1.40001
1.40001
1.40001
1.40001
1.40001
1.40001
1.40001
1.40001
1.40001
1.40001
1.40001
1.40001
1.40001
1.40001
1.40001
1.40001
8.98456
9.16863
8.37559
2.88086
1.4
1.40001
1.40001
1.40001
1.40001
1.40001
1.40001
1.40001
1.40001
1.40001
1.40001
1.40001
1.40001
1.40001
1.40001
1.40001
8.81015
9.23695
9.19805
4.80452
1.36424
1.40001
1.40001
1.40001
1.40001
1.40001
1.40001
1.40001
1.40001
1.40001
1.40001
1.40001
1.40001
1.40001
1.40001
1.40001
8.88393
9.4046
9.48777
7.03184
1.97809
1.40001
1.40001
1.40001
1.40001
1.40001
1.40001
1.40001
1.40001
1.40001
1.40001
1.40001
1.40001
1.40001
1.40001
1.40001
9.05639
9.47563
9.48052
8.42442
3.93244
1.36308
1.40049
1.4
1.40001
1.40001
1.40001
1.40001
1.40001
1.40001
1.40001
1.40001
1.40001
1.40001
1.40001
1.40001
9.26798
9.47227
9.45604
8.93679
6.54188
1.99887
1.39341
1.40011
1.4
1.40001
1.40001
1.40001
1.40001
1.40001
1.40001
1.40001
1.40001
1.40001
1.40001
1.40001
9.43743
9.4991
9.45191
9.22141
8.85165
4.57145
1.43007
1.39961
1.40001
1.40001
1.40001
1.40001
1.40001
1.40001
1.40001
1.40001
1.40001
1.40001
1.40001
1.40001
9.63831
9.5643
9.47912
9.40502
9.51098
8.07306
3.61742
1.42566
1.40001
1.40001
1.40001
1.40001
1.40001
1.40001
1.40001
1.40001
1.40001
1.40001
1.40001
1.40001
9.67594
9.61875
9.58216
9.57728
9.66957
9.37852
8.3773
3.39426
0.862903
1.40001
1.40001
1.40001
1.40001
1.40001
1.40001
1.40001
1.40001
1.40001
1.40001
1.40001
3.23347
5.06006
6.81539
7.93661
8.62812
8.8851
9.05848
8.67277
6.329
4.4778
3.31081
2.18252
1.50835
1.38218
1.38995
1.39473
1.39881
1.39997
1.40003
1.40002
0.42779
1.23165
2.80473
4.4332
5.79996
6.71099
7.51387
8.15884
7.95001
7.31832
6.72531
5.98325
4.7125
3.24071
1.9944
1.44175
1.38522
1.39295
1.39628
1.39923
0.0395704
0.169634
0.660312
1.68933
2.99274
4.02953
4.90973
5.85623
6.61176
6.67542
6.56248
6.58908
6.53465
6.29981
5.59362
4.26604
2.91426
1.86151
1.42543
1.39008
0.0218004
0.0677112
0.1792
0.475367
1.12532
2.03603
2.85771
3.66847
4.45505
4.96379
5.26427
5.59153
5.88888
6.10653
6.218
6.11218
5.80813
5.06491
3.87881
2.63601
0.0305929
0.0631992
0.109486
0.166717
0.400837
0.882729
1.43887
2.01817
2.67145
3.21087
3.61425
3.99431
4.37435
4.78712
5.22792
5.49025
5.64701
5.72727
5.60493
5.44033
0.030684
0.050571
0.0913193
0.177577
0.3003
0.422483
0.702798
1.0527
1.49389
1.93236
2.30431
2.65235
2.98462
3.32886
3.75214
4.14128
4.51343
4.87082
5.103
5.27027
0.0281425
0.0356201
0.0682884
0.156088
0.255629
0.361147
0.525737
0.749721
1.02946
1.35692
1.61726
1.87403
2.1123
2.34485
2.62316
2.93164
3.23944
3.58142
3.89838
4.17618
0.0247002
0.0294147
0.05227
0.104695
0.188129
0.294946
0.39742
0.561701
0.760243
0.972429
1.15337
1.32045
1.48266
1.63175
1.80583
2.03606
2.30554
2.56751
2.93381
2.91252
0.0262899
0.031101
0.0497198
0.0719926
0.118102
0.202721
0.249707
0.342201
0.467684
0.584638
0.720167
0.8521
0.999003
1.13236
1.29272
1.49276
1.70262
1.88415
2.1617
2.08774
0.0326815
0.0364002
0.0518989
0.0642101
0.0843474
0.136673
0.159019
0.194513
0.267093
0.376337
0.502603
0.616502
0.754368
0.864474
0.990159
1.11845
1.24659
1.35716
1.58938
1.56315
0.0436615
0.0414412
0.0539108
0.0630322
0.0776967
0.113035
0.145668
0.183694
0.263627
0.354259
0.436809
0.510044
0.599375
0.674957
0.744888
0.817275
0.885809
0.975867
1.11655
1.3287
0.0592703
0.0480767
0.0529899
0.0629913
0.0795105
0.114984
0.153489
0.190441
0.255072
0.312454
0.355383
0.397312
0.437574
0.485161
0.518948
0.564241
0.624906
0.732716
0.838072
1.04062
0.0798764
0.0616964
0.0507195
0.0609506
0.0777279
0.111446
0.148077
0.176351
0.208506
0.238363
0.243649
0.261462
0.280637
0.319692
0.369591
0.433216
0.507397
0.590232
0.657777
0.787716
0.103197
0.0824979
0.0552405
0.0584354
0.0678854
0.0925236
0.118628
0.130351
0.14175
0.156976
0.168022
0.189724
0.235082
0.284685
0.328451
0.378036
0.425975
0.474177
0.502718
0.564375
0.125854
0.106455
0.0741963
0.0557879
0.0545695
0.0652797
0.0823274
0.09458
0.109785
0.129004
0.159822
0.19057
0.229682
0.265358
0.293963
0.320815
0.335596
0.350605
0.352943
0.388605
0.144688
0.116854
0.0946186
0.0594727
0.0542172
0.0597792
0.0712996
0.0908173
0.110409
0.132511
0.165672
0.188319
0.210889
0.226508
0.238974
0.238868
0.231913
0.233704
0.244709
0.299596
0.158243
0.123096
0.103343
0.0687837
0.0566852
0.0616671
0.0732871
0.0949241
0.114312
0.13477
0.158915
0.164821
0.170276
0.171895
0.173571
0.174842
0.180276
0.195862
0.217807
0.257343
0.170011
0.131229
0.109953
0.0802974
0.0635221
0.0674608
0.0773605
0.0934301
0.106374
0.118032
0.115302
0.112658
0.111738
0.11349
0.11916
0.132523
0.148614
0.164325
0.179288
0.190952
0.185375
0.151051
0.153124
0.128686
0.110074
0.130738
0.167544
0.193125
0.197831
0.208995
0.225214
0.245598
0.245415
0.226962
0.222531
0.240687
0.278567
0.316033
0.351653
0.33566
0.290752
0.385573
0.451772
0.46827
0.458114
0.466525
0.492813
0.517007
0.525808
0.565992
0.604671
0.643284
0.667289
0.663201
0.677013
0.714647
0.724914
0.727948
0.735744
0.722701
0.794096
0.892207
0.966404
1.08131
1.16923
1.2433
1.23384
1.19737
1.18396
1.20537
1.27459
1.33918
1.34305
1.31632
1.28351
1.28367
1.31149
1.34926
1.35508
1.34164
0.432036
0.596622
0.763714
0.918005
1.06805
1.18312
1.21298
1.21386
1.20369
1.21689
1.26831
1.32777
1.34066
1.32959
1.30129
1.29169
1.2992
1.3244
1.33322
1.33425
0.190249
0.22349
0.334356
0.477453
0.70205
0.947331
1.09526
1.20058
1.23133
1.23674
1.26131
1.29305
1.31402
1.32629
1.33143
1.32448
1.31518
1.31104
1.31489
1.32793
0.269972
0.298518
0.322008
0.328092
0.3427
0.432618
0.70031
1.03198
1.15402
1.24611
1.27136
1.26472
1.28008
1.31962
1.35174
1.35339
1.33757
1.30813
1.30569
1.3245
0.340101
0.364196
0.396425
0.398755
0.392564
0.394599
0.416323
0.558919
0.893671
1.15337
1.21591
1.23234
1.25724
1.30875
1.35948
1.36474
1.35133
1.31266
1.30504
1.32623
0.424227
0.469192
0.477107
0.451922
0.425517
0.425092
0.444326
0.466146
0.537751
0.747753
1.02593
1.16519
1.20547
1.28035
1.34898
1.36248
1.35613
1.32247
1.31766
1.33657
0.540803
0.576116
0.576873
0.534875
0.497131
0.495348
0.504471
0.524963
0.532705
0.542127
0.650545
0.944201
1.13546
1.22498
1.32286
1.35719
1.35181
1.32459
1.3322
1.34584
0.709439
0.70359
0.68558
0.638057
0.573379
0.552377
0.557943
0.564778
0.570505
0.567873
0.563195
0.628088
0.897101
1.14074
1.24209
1.3173
1.31489
1.31379
1.34325
1.34739
0.924163
0.862121
0.816117
0.74273
0.655937
0.6154
0.604336
0.6032
0.612412
0.609325
0.595378
0.588943
0.634616
0.87732
1.12217
1.27879
1.26048
1.2935
1.35
1.34534
1.19343
1.04011
0.971523
0.891335
0.789143
0.702573
0.658593
0.638021
0.644114
0.647751
0.632575
0.622087
0.614475
0.639806
0.839834
1.13725
1.21185
1.30017
1.35794
1.33949
1.78378
1.28537
1.05078
1.00851
0.979106
0.905276
0.789005
0.744054
0.730805
0.714867
0.703225
0.690926
0.677254
0.647873
0.6589
0.776115
1.03939
1.24321
1.30972
1.3258
2.8433
2.12768
1.54171
1.23247
1.21884
1.17209
1.02848
0.878931
0.826327
0.790454
0.762991
0.761421
0.748333
0.729998
0.690637
0.684101
0.737212
0.893858
1.08955
1.2649
3.48221
3.0269
2.41607
1.83761
1.48389
1.33317
1.21494
1.03294
0.96537
0.939591
0.90999
0.872809
0.845317
0.816981
0.783053
0.734757
0.737788
0.747222
0.798122
1.03529
3.29813
3.27041
3.11698
2.70989
2.16213
1.72526
1.53185
1.35278
1.23905
1.15002
1.07719
0.9906
0.913249
0.864829
0.850174
0.815653
0.787361
0.775438
0.766334
0.815399
2.35132
2.98796
3.10147
3.0619
2.87238
2.47461
2.06111
1.7418
1.50936
1.31979
1.20485
1.12602
1.02112
0.979999
0.979038
0.95526
0.906109
0.864239
0.806006
0.807978
1.55298
2.00767
2.5803
2.9506
2.94791
2.89158
2.69043
2.36141
1.99804
1.70673
1.49963
1.39356
1.27291
1.17804
1.11802
1.05121
0.974309
0.917647
0.883381
0.845993
1.40635
1.46191
1.68452
2.16241
2.60114
2.82196
2.81242
2.75152
2.55427
2.27316
1.95134
1.70314
1.5181
1.34503
1.23426
1.15674
1.07884
1.02804
1.02299
0.981067
1.40013
1.40157
1.4143
1.51036
1.77561
2.2006
2.54467
2.70133
2.69149
2.63754
2.47316
2.20056
1.94412
1.70187
1.50865
1.40778
1.31736
1.23231
1.16226
1.06323
1.40001
1.40002
1.40021
1.40357
1.42678
1.53925
1.80677
2.17784
2.47023
2.59518
2.58702
2.53401
2.39853
2.18006
1.92042
1.70634
1.54722
1.40291
1.28902
1.16288
1.40001
1.40001
1.40001
1.40004
1.40047
1.40535
1.43477
1.55215
1.79796
2.12807
2.38075
2.4982
2.49258
2.45491
2.34447
2.1456
1.92968
1.72294
1.57301
1.39616
1.40001
1.40001
1.40001
1.40001
1.40001
1.40007
1.40071
1.4066
1.43707
1.54627
1.76935
2.06311
2.29179
2.41163
2.40732
2.37882
2.29607
2.13647
1.95223
1.6715
1.40001
1.40001
1.40001
1.40001
1.40001
1.40001
1.40001
1.40009
1.40083
1.40656
1.43557
1.5325
1.72492
1.99076
2.19776
2.3308
2.32807
2.31061
2.25932
2.04613
1.40001
1.40001
1.40001
1.40001
1.40001
1.40001
1.40001
1.40001
1.40001
1.40009
1.40082
1.406
1.43015
1.5121
1.67593
1.9204
2.10614
2.24487
2.25775
2.22463
1.40001
1.40001
1.40001
1.40001
1.40001
1.40001
1.40001
1.40001
1.40001
1.40001
1.40001
1.40008
1.4007
1.40479
1.42498
1.48802
1.63077
1.83792
2.01892
2.16603
1.40001
1.40001
1.40001
1.40001
1.40001
1.40001
1.40001
1.40001
1.40001
1.40001
1.40001
1.40001
1.40001
1.40007
1.40058
1.40353
1.4198
1.47162
1.58992
1.9413
2.25345
3.42074
3.5931
2.90761
1.83222
1.45156
1.40262
1.40007
1.40001
1.40001
1.40001
1.40001
1.40001
1.40001
1.40001
3.26072
3.91509
3.51749
2.15241
1.46737
1.40114
1.40001
1.4
1.40001
1.40001
1.40001
1.40001
1.40001
1.40001
1.40001
4.08008
3.99165
2.76026
1.61175
1.40723
1.40007
1.40001
1.40001
1.40001
1.40001
1.40001
1.40001
1.40001
1.40001
1.40001
4.52316
3.56305
1.90839
1.42738
1.40029
1.40001
1.40001
1.40001
1.40001
1.40001
1.40001
1.40001
1.40001
1.40001
1.40001
4.62672
2.35029
1.46495
1.40066
1.40001
1.40001
1.40001
1.40001
1.40001
1.40001
1.40001
1.40001
1.40001
1.40001
1.40001
2.8881
1.50225
1.4007
1.4
1.4
1.40001
1.40001
1.40001
1.40001
1.40001
1.40001
1.40001
1.40001
1.40001
1.40001
1.54265
1.40081
1.4
1.4
1.40001
1.40001
1.40001
1.40001
1.40001
1.40001
1.40001
1.40001
1.40001
1.40001
1.40001
1.39741
1.39982
1.4
1.40001
1.40001
1.40001
1.40001
1.40001
1.40001
1.40001
1.40001
1.40001
1.40001
1.40001
1.40001
1.39996
1.40001
1.40001
1.40001
1.40001
1.40001
1.40001
1.40001
1.40001
1.40001
1.40001
1.40001
1.40001
1.40001
1.40001
1.40001
1.40001
1.40001
1.40001
1.40001
1.40001
1.40001
1.40001
1.40001
1.40001
1.40001
1.40001
1.40001
1.40001
1.40001
1.40001
1.40001
1.40001
1.40001
1.40001
1.40001
1.40001
1.40001
1.40001
1.40001
1.40001
1.40001
1.40001
1.40001
1.40001
1.40001
1.40001
1.40001
1.40001
1.40001
1.40001
1.40001
1.40001
1.40001
1.40001
1.40001
1.40001
1.40001
1.40001
1.40001
1.40001
1.40001
1.40001
1.40001
1.40001
1.40001
1.40001
1.40001
1.40001
1.40001
1.40001
1.40001
1.40001
1.40001
1.40001
1.40001
1.40001
1.40001
1.40001
1.40001
1.40001
1.40001
1.40001
1.40001
1.40001
1.40001
1.40001
1.40001
1.40001
1.40001
1.40001
1.40001
1.40001
1.40001
1.40001
1.40001
1.40001
1.40001
1.40001
1.40001
1.40001
1.40001
1.40001
1.40001
1.40001
1.40001
1.40001
1.40001
1.40001
1.40001
1.40001
1.40001
1.40001
1.40001
1.40001
1.40001
1.40001
1.40001
1.40001
1.40001
1.40001
1.40001
1.40001
1.40001
1.40001
1.40001
1.40001
1.40001
1.40001
1.40001
1.40001
1.40001
1.40001
1.40001
1.40001
1.40001
1.40001
1.40001
1.40001
1.40001
1.40001
1.40001
1.40001
1.40001
1.40001
1.40001
1.40001
1.40001
1.40001
1.40001
1.40001
1.40001
1.40001
1.40001
1.40001
1.40001
1.40001
1.40001
1.40001
1.40001
1.40001
1.40001
1.40001
1.40001
1.40001
1.40001
1.40001
1.40001
1.40001
1.40001
1.40001
1.40001
1.40001
1.40001
1.40001
1.40001
1.40001
1.40001
1.40001
1.40001
1.40001
1.40001
1.40001
1.40001
1.40001
1.40001
1.40001
1.40001
1.40001
1.40001
1.40001
1.40001
1.40001
1.40001
1.40001
1.40001
1.40001
1.40001
1.40001
1.40001
1.40001
1.40001
1.40001
1.40001
1.40001
1.40001
1.40001
1.40001
1.40001
1.40001
1.40001
1.40001
1.40001
1.40001
1.40001
1.40001
1.40001
1.40001
1.40001
1.40001
1.40001
1.40001
1.40001
1.40001
1.40001
1.40001
1.40001
1.40001
1.40001
1.40001
1.40001
1.40001
1.40001
1.40001
1.40001
1.40001
1.40001
1.40001
1.40001
1.40001
1.40001
1.40001
1.40001
1.40001
1.40001
1.40001
1.40001
1.40001
1.40001
1.40001
1.40001
1.40001
1.40001
1.40001
1.40001
1.40001
1.40001
1.40001
1.40001
1.40001
1.40001
1.40001
1.40001
1.40001
1.40001
1.40001
1.40001
1.40001
1.40001
1.40001
1.40001
1.40001
1.40001
1.40001
1.40001
1.40001
1.40001
1.40001
1.40001
1.40001
1.40001
1.40001
1.40001
1.40001
1.40001
1.40001
1.40001
1.40001
1.40001
1.40001
1.40001
1.40001
1.40001
1.40001
1.40001
1.40001
1.40001
1.40001
1.40001
1.40001
1.40001
1.40001
1.40001
1.40001
1.40001
1.40001
1.40001
1.40001
1.40001
1.40001
1.40001
1.40001
1.40001
1.40001
1.40001
1.40001
1.40001
1.40001
1.40001
1.40001
1.40001
1.40001
1.40001
1.40001
1.40001
1.40001
1.40001
1.40001
1.40001
1.40001
1.40001
1.40001
1.40001
1.40001
1.40001
1.40001
1.40001
1.40001
1.40001
1.40001
1.40001
1.40001
1.40001
1.40001
1.40001
1.40001
1.40001
1.40001
1.40001
1.40001
1.40001
1.40001
1.40001
1.40001
1.40001
1.40001
1.40001
1.40001
1.40001
1.40001
1.40001
1.40001
1.40001
1.40001
1.40001
1.40001
1.40001
1.40001
1.40001
1.40001
1.40001
1.40001
1.40001
1.40001
1.40001
1.40001
1.40001
1.40001
1.40001
1.40001
1.40001
1.40001
1.40001
1.40001
1.40001
1.40001
1.40001
1.40001
1.40001
1.40001
1.40001
1.40001
1.40001
1.40001
1.40001
1.40001
1.40001
1.40001
1.40001
1.40001
1.40001
1.40001
1.40001
1.40001
1.40001
1.40001
1.40001
1.40001
1.40001
1.40001
1.40001
1.40001
1.40001
1.40001
1.40001
1.40001
1.40001
1.40001
1.40001
1.40001
1.40001
1.40001
1.40001
1.40001
1.40001
1.40001
1.40001
1.40001
1.40001
1.40001
1.40001
1.40001
1.40001
1.40001
1.40001
1.40001
1.40001
1.40001
1.40001
1.40001
1.40001
1.40001
1.40001
1.40001
1.40001
1.40001
1.40001
1.40001
1.40001
1.40001
1.40001
1.40001
1.40001
1.40001
1.40001
1.40001
1.40001
1.40001
1.40001
1.40001
1.40001
1.40001
1.40001
1.40001
1.40001
1.40001
1.40001
1.40001
1.40001
1.40001
1.40001
1.40001
1.40001
1.40001
1.40001
1.40001
1.40001
1.40001
1.40001
1.40001
1.40001
1.40001
1.40001
1.40001
1.40001
1.40001
1.40001
1.40001
1.40001
1.40001
1.40001
1.40001
1.40001
1.40001
1.40001
1.40001
1.40001
1.40001
1.40001
1.40001
1.40001
1.40001
1.40001
1.40001
1.40001
1.40001
1.40001
1.40001
1.40001
1.40001
1.40001
1.40001
1.40001
1.40001
1.40001
1.40001
1.40001
1.40001
1.40001
1.40001
1.40001
1.40001
1.40001
1.40001
1.40001
1.40001
1.40001
1.40001
1.40001
1.40001
1.40001
1.40001
1.40001
1.40001
1.40001
1.40001
1.40001
1.40001
1.40001
1.40001
1.40001
1.40001
1.40001
1.40001
1.40001
1.40001
1.40001
1.40001
1.40001
1.40001
1.40001
1.40001
1.40001
1.40001
1.40001
1.40001
1.40001
1.40001
1.40001
1.40001
1.40001
1.40001
1.40001
1.40001
1.40001
1.40001
1.40001
1.40001
1.40001
1.40001
1.40001
1.40001
1.40001
1.40001
1.40001
1.40001
1.40001
1.40001
1.40001
1.40001
1.40001
1.40001
1.40001
1.40001
1.40001
1.40001
1.40001
1.40001
1.40001
1.40001
1.40001
1.40001
1.40001
1.40001
1.40001
1.40001
1.40001
1.40001
1.40001
1.40001
1.40001
1.40001
1.40001
1.40001
1.40001
1.40001
1.40001
1.40001
1.40001
1.40001
1.40001
1.40001
1.40001
1.40001
1.40001
1.40001
1.40001
1.40001
1.40001
1.40001
1.40001
1.40001
1.40001
1.40001
1.40001
1.40001
1.40001
1.40001
1.40001
1.40001
1.40001
1.40001
1.40001
1.40001
1.40001
1.40001
1.40001
1.40001
1.40001
1.40001
1.40001
1.40001
1.40001
1.40001
1.40001
1.40001
1.40001
1.40001
1.40001
1.40001
1.40001
1.40001
1.40001
1.40001
1.40001
1.40001
1.40001
1.40001
1.40001
1.40001
1.40001
1.40001
1.40001
1.40001
1.40001
1.40001
1.40001
1.40001
1.40001
1.40001
1.40001
1.40001
1.40001
1.40001
1.40001
1.40001
1.40001
1.40001
1.40001
1.40001
1.40001
1.40001
1.40001
1.40001
1.40001
1.40001
1.40001
1.40001
1.40001
1.40001
1.40001
1.40001
1.40001
1.40001
1.40001
1.40001
1.40001
1.40001
1.40001
1.40001
1.40001
1.40001
1.40001
1.40001
1.40001
1.40001
1.40001
1.40001
1.40001
1.40001
1.40001
1.40001
1.40001
1.40001
1.40001
1.40001
1.40001
1.40001
1.40001
1.40001
1.40001
1.40001
1.40001
1.40001
1.40001
1.40001
1.40001
1.40001
1.40001
1.40001
1.40001
1.40001
1.40001
1.40001
1.40001
1.40001
1.40001
1.40001
1.40001
1.40001
1.40001
1.40001
1.40001
1.40001
1.40001
1.40001
1.40001
1.40001
1.40001
1.40001
1.40001
1.40001
1.40001
1.40001
1.40001
1.40001
1.40001
1.40001
1.40001
1.40001
1.40001
1.40001
1.40001
1.40001
1.40001
1.40001
1.40001
1.40001
1.40001
1.40001
1.40001
1.40001
1.40001
1.40001
1.40001
1.40001
1.40001
1.40001
1.40001
1.40001
1.40001
1.40001
1.40001
1.40001
1.40001
1.40001
1.40001
1.40001
1.40001
1.40001
1.40001
1.40001
1.40001
1.40001
1.40001
1.40001
1.40001
1.40001
1.40001
1.40001
1.40001
1.40001
1.40001
1.40001
1.40001
1.40001
1.40001
1.40001
1.40001
1.40001
1.40001
1.40001
1.40001
1.40001
1.40001
1.40001
1.40001
1.40001
1.40001
1.40001
1.40001
1.40001
1.40001
1.40001
1.40001
1.40001
1.40001
1.40001
1.40001
1.40001
1.40001
1.40001
1.40001
1.40001
1.40001
1.40001
1.40001
1.40001
1.40001
1.40001
1.40001
1.40001
1.40001
1.40001
1.40001
1.39996
1.40001
1.40001
1.40001
1.40001
1.40001
1.40001
1.40001
1.40001
1.40001
1.40001
1.40001
1.40001
1.40001
1.40001
1.39741
1.39982
1.4
1.40001
1.40001
1.40001
1.40001
1.40001
1.40001
1.40001
1.40001
1.40001
1.40001
1.40001
1.40001
1.54244
1.4008
1.4
1.4
1.40001
1.40001
1.40001
1.40001
1.40001
1.40001
1.40001
1.40001
1.40001
1.40001
1.40001
2.88728
1.50229
1.4007
1.4
1.4
1.40001
1.40001
1.40001
1.40001
1.40001
1.40001
1.40001
1.40001
1.40001
1.40001
4.62642
2.34967
1.46491
1.40066
1.40001
1.40001
1.40001
1.40001
1.40001
1.40001
1.40001
1.40001
1.40001
1.40001
1.40001
4.52247
3.56283
1.90796
1.42729
1.40029
1.40001
1.40001
1.40001
1.40001
1.40001
1.40001
1.40001
1.40001
1.40001
1.40001
4.0788
3.99134
2.76023
1.61179
1.40723
1.40007
1.40001
1.40001
1.40001
1.40001
1.40001
1.40001
1.40001
1.40001
1.40001
3.26278
3.91497
3.51773
2.15231
1.46736
1.40114
1.40001
1.4
1.40001
1.40001
1.40001
1.40001
1.40001
1.40001
1.40001
2.25118
3.4219
3.59316
2.90745
1.83212
1.45155
1.40261
1.40007
1.40001
1.40001
1.40001
1.40001
1.40001
1.40001
1.40001
1.79107
2.83574
3.47887
3.29726
2.35213
1.55318
1.40636
1.40013
1.40001
1.40001
1.40001
1.40001
1.40001
1.40001
1.40001
1.29666
2.13438
3.02514
3.27008
2.9884
2.00835
1.46199
1.40157
1.40002
1.40001
1.40001
1.40001
1.40001
1.40001
1.40001
1.0243
1.54806
2.42774
3.11572
3.10107
2.58061
1.68463
1.4143
1.40021
1.40001
1.40001
1.40001
1.40001
1.40001
1.40001
0.995455
1.21478
1.83437
2.71203
3.06319
2.9513
2.16231
1.51024
1.40356
1.40004
1.40001
1.40001
1.40001
1.40001
1.40001
0.981645
1.20532
1.46976
2.16241
2.86988
2.948
2.60076
1.77527
1.42673
1.40047
1.40001
1.40001
1.40001
1.40001
1.40001
0.917793
1.17045
1.33537
1.73736
2.4638
2.89195
2.82157
2.19993
1.53917
1.40535
1.40007
1.40001
1.40001
1.40001
1.40001
0.804436
1.03906
1.20236
1.5317
2.07462
2.68588
2.8121
2.54441
1.80669
1.43478
1.40071
1.40001
1.40001
1.40001
1.40001
0.752903
0.902689
1.02678
1.31653
1.75062
2.36228
2.75136
2.70139
2.17803
1.55223
1.4066
1.40009
1.40001
1.40001
1.40001
0.732836
0.838488
0.983866
1.21668
1.49424
2.00915
2.55576
2.69163
2.47052
1.79818
1.43709
1.40083
1.40001
1.40001
1.40001
0.704924
0.793272
0.95657
1.15345
1.30565
1.70763
2.27269
2.63712
2.59488
2.12805
1.54632
1.40656
1.40009
1.40001
1.40001
0.68783
0.753187
0.926285
1.08862
1.20013
1.48556
1.94801
2.47235
2.58672
2.38048
1.7693
1.43558
1.40082
1.40001
1.40001
0.677217
0.750211
0.889173
0.998992
1.1205
1.38176
1.70162
2.20017
2.53396
2.49824
2.06321
1.53253
1.406
1.40008
1.40001
0.671156
0.741191
0.846168
0.91725
1.02225
1.27062
1.51995
1.94438
2.39847
2.49279
2.29206
1.72507
1.43017
1.4007
1.40001
0.660546
0.717674
0.808399
0.866606
0.991318
1.18558
1.34748
1.70286
2.18061
2.45533
2.41214
1.99109
1.51216
1.4048
1.40007
0.669599
0.673178
0.770945
0.85075
0.991018
1.12357
1.23191
1.51014
1.92207
2.34543
2.4079
2.19827
1.67609
1.42498
1.40058
0.784229
0.67906
0.730494
0.816462
0.964448
1.0504
1.15076
1.41081
1.7072
2.14665
2.37943
2.33127
1.92061
1.48807
1.40353
1.04874
0.741619
0.736838
0.781637
0.911164
0.969709
1.07611
1.31999
1.54612
1.93067
2.29672
2.32845
2.10639
1.63084
1.41981
1.25183
0.9074
0.753416
0.768631
0.865271
0.912874
1.02816
1.23407
1.40117
1.72414
2.1369
2.31085
2.24506
1.83801
1.47163
1.31202
1.10067
0.807469
0.763675
0.805767
0.880447
1.02283
1.16308
1.28671
1.57335
1.95229
2.25947
2.2579
2.01899
1.58991
1.32528
1.26746
1.04051
0.815478
0.807586
0.844206
0.980509
1.06297
1.16032
1.39542
1.67131
2.04623
2.22474
2.16607
1.94122
1.20368
1.03481
0.960861
0.897834
0.805483
0.710744
0.663281
0.647637
0.647115
0.64016
0.621763
0.614694
0.612408
0.644537
0.84544
1.14545
1.21827
1.30772
1.35939
1.33903
0.930972
0.856614
0.812898
0.752796
0.668977
0.61596
0.60322
0.603358
0.609323
0.599307
0.583069
0.584737
0.634969
0.873517
1.1675
1.31084
1.2708
1.29391
1.34762
1.34276
0.711143
0.702039
0.687207
0.643991
0.577006
0.549524
0.554717
0.56141
0.562815
0.552664
0.55796
0.625594
0.897723
1.14731
1.27637
1.32688
1.31246
1.30276
1.33219
1.34365
0.540829
0.574305
0.577472
0.536785
0.499471
0.496921
0.505038
0.523784
0.532427
0.540394
0.639837
0.942124
1.14031
1.27581
1.3273
1.34013
1.33002
1.30766
1.31353
1.33993
0.4216
0.470673
0.47809
0.452984
0.42598