/*--------------------------------*- C++ -*----------------------------------*\
  =========                 |
  \\      /  F ield         | OpenFOAM: The Open Source CFD Toolbox
   \\    /   O peration     | Website:  https://openfoam.org
    \\  /    A nd           | Version:  7
     \\/     M anipulation  |
\*---------------------------------------------------------------------------*/
FoamFile
{
    version     2.0;
    format      ascii;
    class       volScalarField;
    location    "5.3";
    object      T;
}
// * * * * * * * * * * * * * * * * * * * * * * * * * * * * * * * * * * * * * //

dimensions      [0 0 0 1 0 0 0];

internalField   nonuniform List<scalar> 
3700
(
100.676
100.824
100.869
100.94
100.94
100.907
100.875
100.911
101.013
101.107
101.117
101.111
101.107
101.118
101.115
101.101
101.059
101.015
101.024
101.053
100.258
100.274
100.327
100.437
100.503
100.435
100.345
100.422
100.627
100.716
100.701
100.605
100.541
100.575
100.585
100.538
100.403
100.321
100.346
100.383
100.288
100.185
100.131
100.007
99.9459
99.9523
99.9946
100.029
100.038
100.042
100.011
99.9848
99.9611
99.9559
99.9673
99.9953
100.018
100.034
100.043
100.038
100.318
100.194
100.091
99.9249
99.8769
99.8975
99.9577
100.028
100.061
100.085
100.099
100.087
100.072
100.047
100.02
100.009
100.018
100.045
100.065
100.092
100.321
100.175
100.031
99.8594
99.8306
99.8621
99.9123
99.9756
100.028
100.079
100.116
100.121
100.132
100.131
100.121
100.099
100.068
100.056
100.065
100.119
100.273
100.134
99.9559
99.8369
99.8177
99.8549
99.9029
99.958
99.9966
100.043
100.09
100.12
100.147
100.164
100.168
100.171
100.167
100.162
100.151
100.162
100.174
100.048
99.8652
99.8398
99.8412
99.9101
99.9456
99.9697
99.9951
100.04
100.073
100.1
100.137
100.165
100.184
100.205
100.223
100.235
100.236
100.258
100.09
99.957
99.8293
99.8675
99.9215
100.009
100.062
100.079
100.093
100.112
100.109
100.123
100.137
100.159
100.186
100.219
100.253
100.281
100.296
100.332
100.031
99.9012
99.8337
99.8977
99.9709
100.07
100.126
100.148
100.184
100.207
100.221
100.231
100.243
100.251
100.253
100.261
100.281
100.319
100.346
100.394
99.9771
99.8757
99.8755
99.93
100.019
100.122
100.154
100.174
100.224
100.258
100.287
100.304
100.33
100.339
100.347
100.354
100.364
100.38
100.409
100.451
99.9223
99.8615
99.915
99.9756
100.099
100.199
100.197
100.212
100.249
100.284
100.319
100.345
100.381
100.396
100.413
100.428
100.444
100.46
100.499
100.493
99.8487
99.8205
99.9332
100.025
100.153
100.242
100.244
100.295
100.345
100.371
100.386
100.404
100.427
100.445
100.468
100.494
100.519
100.54
100.579
100.569
99.7582
99.754
99.9494
100.067
100.212
100.292
100.329
100.389
100.438
100.477
100.492
100.506
100.517
100.528
100.543
100.565
100.592
100.619
100.656
100.655
99.7116
99.7122
99.9559
100.145
100.258
100.325
100.392
100.454
100.508
100.548
100.562
100.579
100.595
100.614
100.639
100.664
100.685
100.706
100.724
100.735
99.7024
99.6854
99.9628
100.177
100.284
100.351
100.45
100.518
100.578
100.61
100.627
100.646
100.667
100.696
100.73
100.755
100.773
100.783
100.78
100.775
99.6685
99.7545
99.9844
100.158
100.344
100.524
100.608
100.658
100.699
100.716
100.726
100.741
100.762
100.791
100.814
100.824
100.821
100.814
100.788
100.745
99.5511
99.8147
100.142
100.388
100.588
100.694
100.741
100.777
100.802
100.812
100.82
100.833
100.85
100.856
100.856
100.845
100.793
100.678
100.515
100.277
99.4324
99.9738
100.435
100.663
100.772
100.812
100.838
100.864
100.879
100.882
100.88
100.881
100.88
100.857
100.772
100.624
100.359
100.101
100.006
99.9978
100.118
100.529
100.742
100.836
100.883
100.902
100.919
100.927
100.922
100.909
100.893
100.835
100.721
100.468
100.147
100.01
99.9967
99.9985
99.9992
99.9998
100.696
100.835
100.913
100.948
100.957
100.95
100.952
100.935
100.844
100.76
100.571
100.231
100.029
99.9957
99.9977
99.9989
99.9998
100
100
100
100.998
100.996
100.993
100.986
100.975
100.945
100.888
100.489
99.8266
100
100
100
100
100
100
100
100
100
100
100
100.999
100.996
100.991
100.978
100.953
100.85
100.478
100.014
100
100
100
100
100
100
100
100
100
100
100
100
100.992
100.994
100.99
100.97
100.92
100.619
100.024
99.9996
100
100
100
100
100
100
100
100
100
100
100
100
100.986
100.992
100.989
100.955
100.798
100.24
99.9968
100
100
100
100
100
100
100
100
100
100
100
100
100
100.979
100.991
100.987
100.92
100.588
99.9917
100
100
100
100
100
100
100
100
100
100
100
100
100
100
100.973
100.986
100.981
100.836
100.251
100
100
100
100
100
100
100
100
100
100
100
100
100
100
100
100.971
100.978
100.964
100.69
99.9927
100
100
100
100
100
100
100
100
100
100
100
100
100
100
100
100.983
100.973
100.913
100.472
100
100
100
100
100
100
100
100
100
100
100
100
100
100
100
100
101.006
100.975
100.82
100.122
100
100
100
100
100
100
100
100
100
100
100
100
100
100
100
100
101.017
100.944
100.69
99.9965
100
100
100
100
100
100
100
100
100
100
100
100
100
100
100
100
101.025
100.909
100.513
100
100
100
100
100
100
100
100
100
100
100
100
100
100
100
100
100
101.029
100.858
100.315
100
100
100
100
100
100
100
100
100
100
100
100
100
100
100
100
100
101.031
100.798
100.12
100
100
100
100
100
100
100
100
100
100
100
100
100
100
100
100
100
101.021
100.73
100.002
100
100
100
100
100
100
100
100
100
100
100
100
100
100
100
100
100
101.01
100.654
100
100
100
100
100
100
100
100
100
100
100
100
100
100
100
100
100
100
100.989
100.577
100
100
100
100
100
100
100
100
100
100
100
100
100
100
100
100
100
100
100.964
100.452
100
100
100
100
100
100
100
100
100
100
100
100
100
100
100
100
100
100
100.908
100.232
100
100
100
100
100
100
100
100
100
100
100
100
100
100
100
100
100
100
100.852
100.005
100
100
100
100
100
100
100
100
100
100
100
100
100
100
100
100
100
100
100.812
100
100
100
100
100
100
100
100
100
100
100
100
100
100
100
100
100
100
100
100.813
100
100
100
100
100
100
100
100
100
100
100
100
100
100
100
100
100
100
100
100.852
100.004
100
100
100
100
100
100
100
100
100
100
100
100
100
100
100
100
100
100
100.906
100.228
100
100
100
100
100
100
100
100
100
100
100
100
100
100
100
100
100
100
100.963
100.451
100
100
100
100
100
100
100
100
100
100
100
100
100
100
100
100
100
100
100.99
100.581
100
100
100
100
100
100
100
100
100
100
100
100
100
100
100
100
100
100
101.012
100.656
100
100
100
100
100
100
100
100
100
100
100
100
100
100
100
100
100
100
101.022
100.729
100.001
100
100
100
100
100
100
100
100
100
100
100
100
100
100
100
100
100
101.03
100.797
100.119
100
100
100
100
100
100
100
100
100
100
100
100
100
100
100
100
100
101.028
100.857
100.313
100
100
100
100
100
100
100
100
100
100
100
100
100
100
100
100
100
101.025
100.909
100.51
100
100
100
100
100
100
100
100
100
100
100
100
100
100
100
100
100
101.017
100.944
100.692
99.9964
100
100
100
100
100
100
100
100
100
100
100
100
100
100
100
100
101.005
100.975
100.823
100.125
100
100
100
100
100
100
100
100
100
100
100
100
100
100
100
100
100.983
100.974
100.915
100.475
100
100
100
100
100
100
100
100
100
100
100
100
100
100
100
100
100.971
100.977
100.964
100.689
99.9928
100
100
100
100
100
100
100
100
100
100
100
100
100
100
100
100.973
100.985
100.981
100.835
100.245
100
100
100
100
100
100
100
100
100
100
100
100
100
100
100
100.979
100.991
100.987
100.92
100.586
99.9917
100
100
100
100
100
100
100
100
100
100
100
100
100
100
100.987
100.992
100.989
100.953
100.798
100.245
99.9968
100
100
100
100
100
100
100
100
100
100
100
100
100
100.992
100.994
100.99
100.97
100.922
100.621
100.025
99.9996
100
100
100
100
100
100
100
100
100
100
100
100
100.999
100.996
100.99
100.978
100.954
100.85
100.477
100.013
100
100
100
100
100
100
100
100
100
100
100
100
100.998
100.996
100.993
100.986
100.975
100.945
100.887
100.486
99.828
100
100
100
100
100
100
100
100
100
100
100
100.696
100.835
100.912
100.947
100.957
100.95
100.952
100.935
100.844
100.76
100.573
100.232
100.029
99.9957
99.9977
99.9989
99.9998
100
100
100
100.119
100.527
100.743
100.837
100.882
100.901
100.919
100.927
100.922
100.91
100.893
100.836
100.721
100.468
100.148
100.01
99.9967
99.9985
99.9992
99.9998
99.4423
100.013
100.446
100.665
100.773
100.811
100.837
100.864
100.88
100.882
100.881
100.881
100.88
100.857
100.772
100.624
100.359
100.101
100.005
99.9978
99.5233
99.7623
100.11
100.41
100.597
100.695
100.741
100.778
100.803
100.813
100.82
100.833
100.85
100.856
100.856
100.845
100.793
100.678
100.515
100.277
99.7273
99.7662
99.9503
100.115
100.333
100.532
100.611
100.661
100.703
100.719
100.729
100.743
100.763
100.791
100.814
100.824
100.821
100.814
100.788
100.745
99.7679
99.7082
99.9336
100.154
100.271
100.34
100.444
100.514
100.577
100.609
100.626
100.645
100.666
100.695
100.729
100.755
100.773
100.783
100.779
100.775
99.7668
99.713
99.9234
100.133
100.247
100.315
100.388
100.449
100.504
100.545
100.56
100.577
100.593
100.613
100.639
100.664
100.686
100.706
100.723
100.735
99.7374
99.7892
99.9345
100.059
100.203
100.284
100.328
100.39
100.438
100.477
100.492
100.507
100.518
100.529
100.545
100.566
100.592
100.618
100.655
100.655
99.7749
99.8486
99.9551
100.01
100.15
100.235
100.242
100.301
100.351
100.379
100.393
100.407
100.427
100.444
100.466
100.492
100.518
100.54
100.579
100.57
99.8449
99.8883
99.9546
99.9877
100.111
100.205
100.193
100.216
100.257
100.283
100.315
100.342
100.378
100.394
100.413
100.429
100.444
100.461
100.5
100.493
99.9083
99.8861
99.9273
99.9416
100.043
100.15
100.155
100.173
100.227
100.26
100.287
100.304
100.332
100.34
100.349
100.357
100.366
100.381
100.408
100.45
99.974
99.8904
99.8805
99.912
99.9896
100.093
100.133
100.152
100.191
100.214
100.228
100.237
100.251
100.259
100.26
100.264
100.279
100.315
100.344
100.393
100.042
99.9345
99.8483
99.8802
99.9368
100.028
100.076
100.09
100.105
100.124
100.119
100.13
100.138
100.156
100.18
100.212
100.247
100.278
100.295
100.333
100.115
100.014
99.8656
99.845
99.8524
99.9219
99.9649
99.9773
99.9967
100.036
100.065
100.092
100.129
100.158
100.178
100.199
100.22
100.234
100.238
100.261
100.193
100.108
99.9592
99.8372
99.8128
99.8462
99.8994
99.9542
99.9908
100.036
100.078
100.11
100.14
100.16
100.165
100.17
100.17
100.167
100.156
100.165
100.266
100.162
100.055
99.8744
99.8232
99.8514
99.905
99.9702
100.016
100.069
100.111
100.117
100.13
100.131
100.123
100.106
100.076
100.06
100.064
100.114
100.29
100.189
100.101
99.9526
99.8629
99.8846
99.9412
100.024
100.06
100.084
100.1
100.09
100.076
100.054
100.029
100.013
100.017
100.043
100.065
100.093
100.285
100.196
100.128
100.016
99.927
99.9418
99.9835
100.031
100.045
100.049
100.021
99.9937
99.9681
99.9597
99.968
99.996
100.022
100.039
100.048
100.043
100.286
100.257
100.311
100.23
100.177
100.355
100.561
100.555
100.473
100.475
100.579
100.671
100.659
100.557
100.446
100.46
100.513
100.57
100.583
100.54
100.665
100.798
100.887
100.869
100.842
100.871
100.944
100.977
100.978
101.014
101.095
101.136
101.133
101.108
101.073
101.076
101.103
101.11
101.105
101.085
101.07
101.035
101.001
100.985
100.965
100.95
100.926
100.893
100.868
100.861
100.863
100.865
100.861
100.847
100.834
100.825
100.822
100.821
100.818
100.807
100.647
100.655
100.696
100.727
100.767
100.792
100.796
100.799
100.798
100.798
100.8
100.805
100.807
100.806
100.802
100.795
100.788
100.786
100.786
100.782
100.022
100.058
100.182
100.293
100.409
100.498
100.557
100.617
100.654
100.664
100.669
100.678
100.69
100.704
100.714
100.713
100.708
100.706
100.71
100.719
100.083
100.092
100.097
100.091
100.099
100.175
100.324
100.445
100.508
100.544
100.549
100.555
100.571
100.59
100.605
100.61
100.609
100.608
100.614
100.631
100.133
100.137
100.142
100.134
100.119
100.12
100.137
100.234
100.388
100.462
100.469
100.478
100.493
100.514
100.528
100.532
100.532
100.531
100.535
100.551
100.176
100.189
100.186
100.163
100.142
100.141
100.152
100.165
100.21
100.316
100.401
100.432
100.445
100.468
100.487
100.49
100.49
100.487
100.488
100.498
100.229
100.237
100.233
100.207
100.19
100.185
100.188
100.194
100.197
100.202
100.256
100.361
100.41
100.433
100.458
100.467
100.466
100.461
100.463
100.467
100.295
100.285
100.276
100.257
100.234
100.218
100.213
100.209
100.208
100.204
100.197
100.224
100.326
100.395
100.419
100.44
100.44
100.441
100.447
100.448
100.358
100.34
100.326
100.3
100.272
100.251
100.233
100.221
100.221
100.217
100.205
100.193
100.207
100.299
100.37
100.413
100.411
100.42
100.433
100.431
100.427
100.393
100.372
100.346
100.316
100.285
100.256
100.232
100.228
100.225
100.213
100.202
100.188
100.19
100.269
100.359
100.38
100.407
100.419
100.413
100.536
100.442
100.382
100.366
100.357
100.337
100.297
100.267
100.252
100.238
100.228
100.218
100.203
100.179
100.178
100.221
100.308
100.363
100.373
100.378
100.619
100.551
100.471
100.403
100.392
100.379
100.343
100.297
100.267
100.245
100.23
100.225
100.21
100.19
100.168
100.156
100.171
100.222
100.273
100.318
100.609
100.587
100.544
100.476
100.415
100.382
100.358
100.318
100.29
100.273
100.257
100.238
100.219
100.198
100.176
100.154
100.143
100.131
100.141
100.218
100.488
100.547
100.541
100.519
100.47
100.411
100.38
100.348
100.32
100.293
100.268
100.239
100.21
100.186
100.172
100.152
100.132
100.115
100.1
100.107
100.251
100.376
100.446
100.483
100.475
100.448
100.406
100.364
100.327
100.288
100.259
100.237
100.208
100.188
100.178
100.162
100.14
100.117
100.093
100.073
100.043
100.145
100.254
100.336
100.389
100.415
100.405
100.381
100.343
100.303
100.269
100.246
100.22
100.194
100.172
100.148
100.122
100.1
100.084
100.06
100.002
100.015
100.065
100.155
100.233
100.291
100.33
100.349
100.339
100.317
100.281
100.247
100.217
100.184
100.157
100.136
100.114
100.097
100.09
100.069
100
100
100.003
100.025
100.078
100.15
100.208
100.249
100.279
100.292
100.282
100.259
100.229
100.197
100.166
100.146
100.127
100.106
100.086
100.056
100
100
100
100.001
100.006
100.03
100.081
100.139
100.187
100.217
100.241
100.243
100.236
100.217
100.186
100.157
100.13
100.104
100.079
100.048
100
100
100
100
100
100.001
100.008
100.033
100.078
100.128
100.169
100.192
100.21
100.21
100.202
100.182
100.155
100.126
100.101
100.069
100
100
100
100
100
100
100
100.001
100.008
100.031
100.073
100.118
100.154
100.174
100.186
100.184
100.177
100.161
100.137
100.097
100
100
100
100
100
100
100
100
100
100.001
100.008
100.029
100.065
100.107
100.14
100.16
100.168
100.167
100.162
100.138
100
100
100
100
100
100
100
100
100
100
100
100.001
100.007
100.024
100.057
100.097
100.127
100.146
100.155
100.151
100
100
100
100
100
100
100
100
100
100
100
100
100
100.001
100.006
100.019
100.048
100.084
100.113
100.137
100
100
100
100
100
100
100
100
100
100
100
100
100
100
100
100.001
100.004
100.016
100.04
100.105
100.597
100.653
100.61
100.417
100.143
100.017
100.001
100
100
100
100
100
100
100
100
100.672
100.663
100.518
100.218
100.022
100
100
100
100
100
100
100
100
100
100
100.705
100.636
100.373
100.074
100.002
100
100
100
100
100
100
100
100
100
100
100.719
100.518
100.167
100.009
100
100
100
100
100
100
100
100
100
100
100
100.652
100.284
100.024
100
100
100
100
100
100
100
100
100
100
100
100
100.396
100.038
100
100
100
100
100
100
100
100
100
100
100
100
100
100.043
100
100
100
100
100
100
100
100
100
100
100
100
100
100
99.9995
100
100
100
100
100
100
100
100
100
100
100
100
100
100
100
100
100
100
100
100
100
100
100
100
100
100
100
100
100
100
100
100
100
100
100
100
100
100
100
100
100
100
100
100
100
100
100
100
100
100
100
100
100
100
100
100
100
100
100
100
100
100
100
100
100
100
100
100
100
100
100
100
100
100
100
100
100
100
100
100
100
100
100
100
100
100
100
100
100
100
100
100
100
100
100
100
100
100
100
100
100
100
100
100
100
100
100
100
100
100
100
100
100
100
100
100
100
100
100
100
100
100
100
100
100
100
100
100
100
100
100
100
100
100
100
100
100
100
100
100
100
100
100
100
100
100
100
100
100
100
100
100
100
100
100
100
100
100
100
100
100
100
100
100
100
100
100
100
100
100
100
100
100
100
100
100
100
100
100
100
100
100
100
100
100
100
100
100
100
100
100
100
100
100
100
100
100
100
100
100
100
100
100
100
100
100
100
100
100
100
100
100
100
100
100
100
100
100
100
100
100
100
100
100
100
100
100
100
100
100
100
100
100
100
100
100
100
100
100
100
100
100
100
100
100
100
100
100
100
100
100
100
100
100
100
100
100
100
100
100
100
100
100
100
100
100
100
100
100
100
100
100
100
100
100
100
100
100
100
100
100
100
100
100
100
100
100
100
100
100
100
100
100
100
100
100
100
100
100
100
100
100
100
100
100
100
100
100
100
100
100
100
100
100
100
100
100
100
100
100
100
100
100
100
100
100
100
100
100
100
100
100
100
100
100
100
100
100
100
100
100
100
100
100
100
100
100
100
100
100
100
100
100
100
100
100
100
100
100
100
100
100
100
100
100
100
100
100
100
100
100
100
100
100
100
100
100
100
100
100
100
100
100
100
100
100
100
100
100
100
100
100
100
100
100
100
100
100
100
100
100
100
100
100
100
100
100
100
100
100
100
100
100
100
100
100
100
100
100
100
100
100
100
100
100
100
100
100
100
100
100
100
100
100
100
100
100
100
100
100
100
100
100
100
100
100
100
100
100
100
100
100
100
100
100
100
100
100
100
100
100
100
100
100
100
100
100
100
100
100
100
100
100
100
100
100
100
100
100
100
100
100
100
100
100
100
100
100
100
100
100
100
100
100
100
100
100
100
100
100
100
100
100
100
100
100
100
100
100
100
100
100
100
100
100
100
100
100
100
100
100
100
100
100
100
100
100
100
100
100
100
100
100
100
100
100
100
100
100
100
100
100
100
100
100
100
100
100
100
100
100
100
100
100
100
100
100
100
100
100
100
100
100
100
100
100
100
100
100
100
100
100
100
100
100
100
100
100
100
100
100
100
100
100
100
100
100
100
100
100
100
100
100
100
100
100
100
100
100
100
100
100
100
100
100
100
100
100
100
100
100
100
100
100
100
100
100
100
100
100
100
100
100
100
100
100
100
100
100
100
100
100
100
100
100
100
100
100
100
100
100
100
100
100
100
100
100
100
100
100
100
100
100
100
100
100
100
100
100
100
100
100
100
100
100
100
100
100
100
100
100
100
100
100
100
100
100
100
100
100
100
100
100
100
100
100
100
100
100
100
100
100
100
100
100
100
100
100
100
100
100
100
100
100
100
100
100
100
100
100
100
100
100
100
100
100
100
100
100
100
100
100
100
100
100
100
100
100
100
100
100
100
100
100
100
100
100
100
100
100
100
100
100
100
100
100
100
100
100
100
100
100
100
100
100
100
100
100
100
100
100
100
100
100
100
100
100
100
100
100
100
100
100
100
100
100
100
100
100
100
100
100
100
100
100
100
100
100
100
100
100
100
100
100
100
100
100
100
100
100
100
100
100
100
100
100
100
100
100
100
100
100
100
100
100
100
100
100
100
100
100
100
100
100
100
100
100
100
100
100
100
100
100
100
100
100
100
100
100
100
100
100
100
100
100
100
100
100
100
100
100
100
100
100
100
100
100
100
100
100
100
100
100
100
100
100
100
100
100
100
100
100
100
100
99.9995
100
100
100
100
100
100
100
100
100
100
100
100
100
100
100.042
100
100
100
100
100
100
100
100
100
100
100
100
100
100
100.396
100.038
100
100
100
100
100
100
100
100
100
100
100
100
100
100.652
100.284
100.024
100
100
100
100
100
100
100
100
100
100
100
100
100.719
100.518
100.167
100.009
100
100
100
100
100
100
100
100
100
100
100
100.705
100.636
100.373
100.074
100.002
100
100
100
100
100
100
100
100
100
100
100.672
100.663
100.518
100.218
100.022
100
100
100
100
100
100
100
100
100
100
100.597
100.653
100.61
100.416
100.143
100.017
100.001
100
100
100
100
100
100
100
100
100.538
100.618
100.609
100.488
100.251
100.043
100.002
100
100
100
100
100
100
100
100
100.446
100.552
100.587
100.547
100.377
100.145
100.015
100
100
100
100
100
100
100
100
100.376
100.473
100.545
100.541
100.446
100.254
100.065
100.003
100
100
100
100
100
100
100
100.363
100.401
100.477
100.519
100.483
100.336
100.155
100.025
100.001
100
100
100
100
100
100
100.357
100.389
100.413
100.47
100.474
100.388
100.233
100.078
100.006
100
100
100
100
100
100
100.34
100.377
100.382
100.413
100.446
100.414
100.291
100.15
100.03
100.001
100
100
100
100
100
100.304
100.345
100.354
100.381
100.408
100.405
100.329
100.208
100.081
100.008
100
100
100
100
100
100.273
100.304
100.314
100.341
100.366
100.381
100.349
100.249
100.139
100.033
100.001
100
100
100
100
100.253
100.272
100.294
100.315
100.325
100.345
100.339
100.278
100.187
100.078
100.008
100
100
100
100
100.233
100.247
100.278
100.293
100.285
100.304
100.317
100.291
100.217
100.128
100.031
100.001
100
100
100
100.222
100.23
100.262
100.27
100.257
100.266
100.281
100.282
100.241
100.169
100.073
100.008
100
100
100
100.212
100.223
100.244
100.24
100.234
100.244
100.247
100.259
100.244
100.192
100.118
100.029
100.001
100
100
100.201
100.209
100.221
100.212
100.208
100.219
100.217
100.229
100.236
100.211
100.154
100.065
100.007
100
100
100.184
100.186
100.196
100.188
100.191
100.195
100.184
100.197
100.217
100.21
100.174
100.107
100.024
100.001
100
100.177
100.16
100.173
100.173
100.181
100.173
100.157
100.166
100.187
100.202
100.186
100.14
100.057
100.006
100
100.223
100.156
100.152
100.152
100.165
100.148
100.135
100.147
100.157
100.183
100.184
100.16
100.097
100.019
100.001
100.312
100.173
100.142
100.13
100.142
100.121
100.113
100.127
100.13
100.156
100.177
100.168
100.127
100.048
100.004
100.367
100.226
100.131
100.113
100.117
100.1
100.098
100.106
100.103
100.126
100.161
100.167
100.146
100.084
100.016
100.375
100.275
100.143
100.099
100.093
100.083
100.09
100.086
100.079
100.101
100.137
100.162
100.155
100.113
100.04
100.379
100.319
100.22
100.107
100.073
100.06
100.069
100.055
100.048
100.068
100.097
100.138
100.151
100.137
100.105
100.43
100.392
100.37
100.348
100.321
100.29
100.261
100.239
100.23
100.22
100.206
100.197
100.187
100.194
100.273
100.361
100.382
100.409
100.419
100.414
100.361
100.338
100.325
100.304
100.278
100.255
100.235
100.223
100.219
100.209
100.196
100.189
100.207
100.299
100.387
100.421
100.413
100.42
100.433
100.431
100.296
100.285
100.277
100.26
100.238
100.22
100.213
100.208
100.203
100.193
100.192
100.22
100.327
100.397
100.43
100.443
100.439
100.437
100.445
100.447
100.23
100.236
100.233
100.209
100.193
100.188
100.189
100.193
100.195
100.197
100.248
100.361
100.412
100.448
100.46
100.462
100.46
100.456
100.458
100.466
100.175
100.189
100.186
100.164
100.144
100.141
100.149
100.162
100.205
100.308
100.402
100.435
100.448
100.471
100.484
100.486
100.486
100.485
100.486
100.496
100.132
100.138
100.141
100.134
100.118
100.119
100.14
100.236
100.383
100.458
100.473
100.479
100.492
100.509
100.523
100.53
100.533
100.533
100.537
100.55
100.087
100.086
100.091
100.088
100.099
100.179
100.333
100.451
100.509
100.54
100.548
100.555
100.568
100.582
100.596
100.606
100.611
100.613
100.618
100.63
100.025
100.053
100.203
100.318
100.412
100.494
100.563
100.633
100.662
100.663
100.667
100.678
100.688
100.695
100.701
100.709
100.711
100.711
100.713
100.718
100.516
100.613
100.725
100.754
100.768
100.783
100.799
100.813
100.808
100.801
100.801
100.807
100.807
100.801
100.792
100.791
100.792
100.792
100.789
100.781
101.021
101.017
101.011
100.997
100.966
100.943
100.922
100.899
100.871
100.863
100.866
100.87
100.866
100.849
100.831
100.823
100.823
100.822
100.817
100.805
)
;

boundaryField
{
    inlet
    {
        type            fixedValue;
        value           uniform 100;
    }
    outlet
    {
        type            inletOutlet;
        inletValue      uniform 100;
        value           nonuniform List<scalar> 
50
(
100.378
100.318
100.218
100.107
100.073
100.06
100.069
100.056
100.048
100.069
100.097
100.138
100.151
100.137
100.105
100.807
100.783
100.719
100.631
100.551
100.498
100.467
100.448
100.431
100.413
100.414
100.431
100.447
100.466
100.496
100.55
100.63
100.718
100.781
100.805
100.379
100.319
100.22
100.107
100.073
100.06
100.069
100.055
100.048
100.068
100.097
100.138
100.151
100.137
100.105
)
;
    }
    airfoil
    {
        type            zeroGradient;
    }
    top
    {
        type            symmetryPlane;
    }
    bottom
    {
        type            symmetryPlane;
    }
    defaultFaces
    {
        type            empty;
    }
}


// ************************************************************************* //
