/*--------------------------------*- C++ -*----------------------------------*\
  =========                 |
  \\      /  F ield         | OpenFOAM: The Open Source CFD Toolbox
   \\    /   O peration     | Website:  https://openfoam.org
    \\  /    A nd           | Version:  7
     \\/     M anipulation  |
\*---------------------------------------------------------------------------*/
FoamFile
{
    version     2.0;
    format      ascii;
    class       volVectorField;
    location    "5.3";
    object      U;
}
// * * * * * * * * * * * * * * * * * * * * * * * * * * * * * * * * * * * * * //

dimensions      [0 1 -1 0 0 0 0];

internalField   nonuniform List<vector> 
3700
(
(1.36473 -0.434987 0)
(1.32519 -0.504745 0)
(1.28333 -0.402129 0)
(1.23441 -0.273421 0)
(1.29015 -0.21578 0)
(1.39147 -0.259567 0)
(1.49135 -0.354781 0)
(1.46641 -0.3417 0)
(1.41994 -0.173464 0)
(1.49676 -0.0183708 0)
(1.60214 -0.0294849 0)
(1.65255 -0.147998 0)
(1.6517 -0.202822 0)
(1.6198 -0.177967 0)
(1.64531 -0.121894 0)
(1.71897 -0.147363 0)
(1.7627 -0.241228 0)
(1.82692 -0.341659 0)
(1.85016 -0.331518 0)
(1.82722 -0.28889 0)
(1.53153 -1.38647 0)
(1.71344 -1.42313 0)
(1.83335 -1.74597 0)
(1.81243 -1.7734 0)
(1.77586 -1.63064 0)
(1.85188 -1.68673 0)
(1.84558 -1.7209 0)
(1.74626 -1.63535 0)
(1.63987 -1.2448 0)
(1.75584 -1.02622 0)
(1.9093 -0.932807 0)
(2.0559 -1.08263 0)
(2.06162 -1.18556 0)
(2.01569 -1.15492 0)
(2.02655 -1.09831 0)
(2.11903 -1.1714 0)
(2.22326 -1.36267 0)
(2.26709 -1.3873 0)
(2.27991 -1.34472 0)
(2.30554 -1.21812 0)
(1.55241 -1.33898 0)
(1.84673 -1.2969 0)
(2.12491 -1.85758 0)
(2.09535 -2.25391 0)
(2.01723 -2.35151 0)
(2.06108 -2.30237 0)
(2.03431 -2.25087 0)
(1.99495 -2.20873 0)
(2.01378 -2.16417 0)
(2.08722 -2.08196 0)
(2.18172 -2.01034 0)
(2.30683 -1.97485 0)
(2.41775 -1.89621 0)
(2.47272 -1.85249 0)
(2.50643 -1.83613 0)
(2.5243 -1.79071 0)
(2.48885 -1.80693 0)
(2.49043 -1.69359 0)
(2.50221 -1.68016 0)
(2.56602 -1.56439 0)
(1.64663 -1.37311 0)
(2.02687 -1.257 0)
(2.24251 -1.82557 0)
(2.18868 -2.16862 0)
(2.15958 -2.21608 0)
(2.17654 -2.23561 0)
(2.16753 -2.21893 0)
(2.11048 -2.16122 0)
(2.09207 -2.14182 0)
(2.14904 -2.04988 0)
(2.20912 -1.95544 0)
(2.31981 -1.83357 0)
(2.43531 -1.72734 0)
(2.57193 -1.60792 0)
(2.70769 -1.49719 0)
(2.78659 -1.4304 0)
(2.75407 -1.47896 0)
(2.72606 -1.44802 0)
(2.63413 -1.50359 0)
(2.59606 -1.40325 0)
(1.75798 -1.45188 0)
(2.12114 -1.28752 0)
(2.14539 -1.88968 0)
(2.01284 -2.18735 0)
(2.09009 -2.18539 0)
(2.16487 -2.23196 0)
(2.18534 -2.20056 0)
(2.2184 -2.05427 0)
(2.23488 -2.02862 0)
(2.32768 -1.91307 0)
(2.2928 -1.95648 0)
(2.36572 -1.77407 0)
(2.41747 -1.69668 0)
(2.50108 -1.61619 0)
(2.64058 -1.49338 0)
(2.71467 -1.31863 0)
(2.78571 -1.10297 0)
(2.86002 -0.996868 0)
(2.83541 -0.992158 0)
(2.72156 -1.10404 0)
(1.82715 -1.51016 0)
(2.05557 -1.4273 0)
(1.90305 -2.00325 0)
(1.84035 -2.19541 0)
(2.02012 -2.16602 0)
(2.0681 -2.16398 0)
(2.15306 -2.164 0)
(2.28647 -1.97856 0)
(2.31397 -1.97996 0)
(2.44577 -1.74406 0)
(2.47561 -1.76861 0)
(2.55041 -1.64729 0)
(2.54296 -1.56825 0)
(2.55851 -1.48692 0)
(2.59591 -1.40045 0)
(2.63717 -1.28759 0)
(2.69578 -1.16094 0)
(2.82204 -1.03301 0)
(2.86128 -0.781395 0)
(2.82926 -0.672547 0)
(1.71326 -1.50025 0)
(1.80535 -1.57859 0)
(1.65588 -2.01237 0)
(1.67918 -2.12707 0)
(1.76866 -2.08149 0)
(1.91768 -2.02756 0)
(2.02218 -2.04732 0)
(2.27006 -1.75576 0)
(2.43572 -1.73925 0)
(2.58367 -1.57061 0)
(2.59311 -1.5236 0)
(2.67268 -1.36811 0)
(2.67978 -1.33895 0)
(2.67582 -1.29348 0)
(2.68383 -1.17885 0)
(2.67852 -1.09265 0)
(2.67977 -0.989906 0)
(2.75221 -0.960218 0)
(2.75918 -0.78671 0)
(2.80588 -0.557743 0)
(1.5319 -1.4011 0)
(1.59392 -1.51071 0)
(1.50478 -1.91463 0)
(1.5725 -2.05785 0)
(1.66212 -2.04912 0)
(1.84262 -1.93625 0)
(1.95459 -1.94944 0)
(2.14455 -1.72613 0)
(2.28814 -1.60565 0)
(2.46648 -1.52708 0)
(2.57497 -1.25579 0)
(2.6914 -1.1014 0)
(2.71468 -0.939536 0)
(2.73917 -0.897169 0)
(2.76449 -0.789165 0)
(2.75424 -0.778704 0)
(2.73709 -0.672428 0)
(2.72498 -0.707448 0)
(2.72898 -0.665944 0)
(2.72126 -0.457016 0)
(1.38174 -1.26092 0)
(1.48274 -1.34903 0)
(1.45426 -1.76445 0)
(1.51428 -1.96665 0)
(1.62952 -2.0091 0)
(1.88029 -1.8787 0)
(2.01281 -1.90953 0)
(2.18502 -1.68862 0)
(2.25943 -1.54698 0)
(2.35823 -1.50351 0)
(2.47463 -1.255 0)
(2.60015 -1.12765 0)
(2.64824 -0.83545 0)
(2.7497 -0.727149 0)
(2.74715 -0.479547 0)
(2.75349 -0.405495 0)
(2.74282 -0.28484 0)
(2.71525 -0.291868 0)
(2.70269 -0.385851 0)
(2.66156 -0.263391 0)
(1.34262 -1.12132 0)
(1.42469 -1.18876 0)
(1.45004 -1.6383 0)
(1.52628 -1.91816 0)
(1.67455 -1.93436 0)
(1.98694 -1.78833 0)
(2.20034 -1.7203 0)
(2.39492 -1.46058 0)
(2.45138 -1.4069 0)
(2.46663 -1.36141 0)
(2.51893 -1.15722 0)
(2.57655 -1.01041 0)
(2.60042 -0.797298 0)
(2.69151 -0.707376 0)
(2.68885 -0.466219 0)
(2.72495 -0.328584 0)
(2.70443 -0.122923 0)
(2.67285 -0.00102105 0)
(2.62959 -0.0181806 0)
(2.60954 -0.0374443 0)
(1.33125 -1.05466 0)
(1.43336 -1.14386 0)
(1.55621 -1.62284 0)
(1.57722 -1.93531 0)
(2.0299 -1.81316 0)
(2.40861 -1.75205 0)
(2.58917 -1.50253 0)
(2.6526 -1.12285 0)
(2.72524 -0.957472 0)
(2.71787 -0.876383 0)
(2.71383 -0.767315 0)
(2.70442 -0.593983 0)
(2.67723 -0.482126 0)
(2.68385 -0.397126 0)
(2.65875 -0.276493 0)
(2.65633 -0.210603 0)
(2.64373 -0.0851553 0)
(2.60464 0.0813336 0)
(2.54247 0.21691 0)
(2.56012 0.159093 0)
(1.29202 -1.07971 0)
(1.5097 -1.26194 0)
(1.75001 -1.75554 0)
(1.94883 -2.19915 0)
(2.47524 -1.68171 0)
(2.50355 -1.66384 0)
(2.66483 -1.28788 0)
(2.73565 -0.917635 0)
(2.75355 -0.797505 0)
(2.71916 -0.458515 0)
(2.73346 -0.320809 0)
(2.6919 -0.111966 0)
(2.67728 -0.0276375 0)
(2.64294 0.083851 0)
(2.61274 0.133471 0)
(2.57917 0.143894 0)
(2.554 0.136942 0)
(2.5245 0.185 0)
(2.44734 0.344787 0)
(2.45897 0.333657 0)
(1.28124 -1.18988 0)
(1.64085 -1.47997 0)
(2.16638 -1.97464 0)
(2.15125 -2.12246 0)
(2.32293 -1.60045 0)
(2.32001 -1.47159 0)
(2.41861 -1.132 0)
(2.48898 -0.866458 0)
(2.50866 -0.748132 0)
(2.55221 -0.505752 0)
(2.61833 -0.306557 0)
(2.58827 -0.0357355 0)
(2.58743 0.133204 0)
(2.52895 0.318801 0)
(2.48178 0.436565 0)
(2.44223 0.482047 0)
(2.39571 0.513947 0)
(2.39212 0.459211 0)
(2.32547 0.537736 0)
(2.32386 0.515946 0)
(1.3188 -1.38614 0)
(1.83835 -2.22224 0)
(2.21395 -1.83247 0)
(2.00091 -1.77635 0)
(2.15671 -1.47599 0)
(2.29911 -1.20998 0)
(2.41031 -0.848943 0)
(2.46695 -0.629183 0)
(2.4795 -0.367678 0)
(2.50698 -0.236264 0)
(2.52156 -0.0407242 0)
(2.48404 0.154719 0)
(2.45958 0.295793 0)
(2.40673 0.435583 0)
(2.35037 0.555981 0)
(2.31679 0.61415 0)
(2.23061 0.721769 0)
(2.19115 0.749457 0)
(2.17148 0.771794 0)
(2.15015 0.777852 0)
(1.41709 -1.64508 0)
(1.60808 -2.28717 0)
(2.01205 -1.62907 0)
(1.98462 -1.52612 0)
(2.23256 -1.20119 0)
(2.3995 -0.51488 0)
(2.49906 -0.197114 0)
(2.51759 0.002894 0)
(2.45951 0.205621 0)
(2.45159 0.317407 0)
(2.4044 0.468892 0)
(2.34014 0.591942 0)
(2.28295 0.673219 0)
(2.22491 0.743646 0)
(2.17914 0.770938 0)
(2.14161 0.793634 0)
(2.08515 0.852093 0)
(2.05608 0.894151 0)
(2.02824 0.941089 0)
(2.05769 0.958872 0)
(1.28555 -1.56352 0)
(1.41555 -1.92562 0)
(1.96201 -1.47904 0)
(2.24551 -0.668635 0)
(2.42102 -0.258119 0)
(2.45599 0.0181896 0)
(2.47029 0.138767 0)
(2.39285 0.386249 0)
(2.34121 0.483506 0)
(2.30208 0.626908 0)
(2.2178 0.76966 0)
(2.13067 0.880597 0)
(2.06344 0.944193 0)
(2.00708 0.997726 0)
(1.97502 0.989837 0)
(1.95764 0.991238 0)
(1.95755 1.00896 0)
(1.97232 0.992535 0)
(1.99616 0.99361 0)
(2.06906 0.979822 0)
(1.1074 -0.951509 0)
(1.56021 -1.36517 0)
(2.26193 -0.720005 0)
(2.34464 0.260279 0)
(2.36417 0.331782 0)
(2.3598 0.355177 0)
(2.28409 0.517829 0)
(2.20664 0.639982 0)
(2.14082 0.746442 0)
(2.09258 0.878201 0)
(1.9875 0.98964 0)
(1.92742 1.04862 0)
(1.88414 1.07795 0)
(1.86585 1.09245 0)
(1.86701 1.06135 0)
(1.89505 1.05151 0)
(1.96247 1.02153 0)
(2.16589 0.901007 0)
(2.38302 0.789024 0)
(2.77867 0.440113 0)
(0.926811 -0.00585956 0)
(1.89849 0.428643 0)
(2.22566 0.55501 0)
(2.24208 0.512064 0)
(2.21356 0.593661 0)
(2.15894 0.736212 0)
(2.03127 0.904302 0)
(1.95344 0.977627 0)
(1.90233 1.0372 0)
(1.85112 1.12445 0)
(1.79472 1.15495 0)
(1.79468 1.14679 0)
(1.81112 1.12679 0)
(1.84782 1.08604 0)
(2.03756 0.951836 0)
(2.25698 0.830338 0)
(2.6632 0.50433 0)
(3.03524 0.0919057 0)
(3.05521 -0.0239043 0)
(3.00407 -0.00469625 0)
(1.00543 0.0486412 0)
(1.9309 0.751523 0)
(2.12068 0.779515 0)
(2.00519 0.947689 0)
(1.96802 0.991422 0)
(1.86544 1.09197 0)
(1.78355 1.13954 0)
(1.75358 1.14564 0)
(1.75253 1.16231 0)
(1.73269 1.20516 0)
(1.72107 1.19466 0)
(1.87577 1.06445 0)
(2.10852 0.87859 0)
(2.50702 0.572238 0)
(2.98673 0.134826 0)
(3.07366 -0.0295694 0)
(3.00817 -0.00770939 0)
(3.00293 -0.00384105 0)
(3.00123 -0.00219548 0)
(3.00008 -0.000482064 0)
(1.16175 0.775598 0)
(1.83349 1.13787 0)
(1.83333 1.15614 0)
(1.74889 1.18966 0)
(1.71947 1.20023 0)
(1.66114 1.24198 0)
(1.64863 1.21703 0)
(1.71737 1.1645 0)
(1.74238 1.24278 0)
(1.78054 1.15493 0)
(2.27216 0.748962 0)
(2.8588 0.211577 0)
(3.09505 -0.0269833 0)
(3.02021 -0.0122747 0)
(3.00464 -0.0054922 0)
(3.0019 -0.00306535 0)
(3.00006 -0.000600233 0)
(2.99998 -2.3635e-05 0)
(2.99999 1.43758e-05 0)
(3 5.91248e-06 0)
(1.57739 1.25247 0)
(1.58238 1.25678 0)
(1.59677 1.26326 0)
(1.6089 1.26354 0)
(1.61084 1.25366 0)
(1.59362 1.26507 0)
(1.8678 1.17161 0)
(2.94749 0.413673 0)
(3.39984 -0.690482 0)
(3 5.1288e-11 0)
(3 -6.59742e-11 0)
(3 7.60693e-11 0)
(3 -2.96822e-15 0)
(3 -4.84597e-13 0)
(3 -1.62566e-14 0)
(3 2.02983e-14 0)
(3 -1.23731e-14 0)
(3 6.29669e-16 0)
(3 3.73839e-16 0)
(3 2.14065e-16 0)
(1.57416 1.24064 0)
(1.59078 1.25361 0)
(1.6067 1.26396 0)
(1.61882 1.26924 0)
(1.67296 1.26081 0)
(1.77649 1.19492 0)
(2.28009 0.720586 0)
(3.00076 0.007532 0)
(3 9.50228e-08 0)
(3 -5.94481e-11 0)
(3 7.37312e-14 0)
(3 -5.83674e-15 0)
(3 -9.56846e-16 0)
(3 1.83513e-15 0)
(3 -4.33313e-17 0)
(3 4.94137e-16 0)
(3 2.02915e-15 0)
(3 1.3981e-15 0)
(3 4.52266e-16 0)
(3 1.17404e-15 0)
(1.5796 1.25101 0)
(1.59997 1.25701 0)
(1.61001 1.26285 0)
(1.60067 1.28229 0)
(1.73024 1.20247 0)
(2.24746 0.778462 0)
(3.00509 -0.00876503 0)
(2.99993 -0.000126399 0)
(3 5.2801e-07 0)
(3 5.64574e-11 0)
(3 9.06191e-14 0)
(3 -3.54355e-15 0)
(3 -1.20716e-15 0)
(3 2.80041e-16 0)
(3 4.01686e-16 0)
(3 4.73294e-16 0)
(3 1.65306e-15 0)
(3 5.73225e-16 0)
(3 6.13985e-17 0)
(3 8.05842e-16 0)
(1.58253 1.25634 0)
(1.6004 1.26134 0)
(1.62169 1.26791 0)
(1.59641 1.30491 0)
(1.87793 1.08265 0)
(2.73901 0.238324 0)
(3.00387 0.000848139 0)
(2.99994 3.74243e-05 0)
(3 -7.2748e-07 0)
(3 8.82657e-10 0)
(3 8.78107e-14 0)
(3 -3.53686e-15 0)
(3 -1.29913e-15 0)
(3 1.67432e-15 0)
(3 1.95467e-16 0)
(3 5.08674e-16 0)
(3 1.10508e-15 0)
(3 -3.94641e-17 0)
(3 7.81768e-17 0)
(3 9.57467e-16 0)
(1.58526 1.27185 0)
(1.59852 1.27443 0)
(1.62716 1.26835 0)
(1.61888 1.27883 0)
(2.31413 0.671413 0)
(3.02246 -0.0209949 0)
(2.99969 2.20565e-05 0)
(3 -3.4028e-06 0)
(3 7.35941e-08 0)
(3 -8.82508e-10 0)
(3 4.91934e-13 0)
(3 -2.81326e-15 0)
(3 -1.73234e-15 0)
(3 -2.74482e-16 0)
(3 5.90315e-16 0)
(3 4.11017e-16 0)
(3 -2.41939e-16 0)
(3 4.93694e-16 0)
(3 -5.00932e-16 0)
(3 4.54909e-16 0)
(1.58692 1.28791 0)
(1.59056 1.28931 0)
(1.64773 1.25655 0)
(1.85166 1.09894 0)
(2.70954 0.239799 0)
(3 -6.42714e-10 0)
(3 1.35029e-08 0)
(3 -1.20151e-08 0)
(3 4.93108e-10 0)
(3 1.24127e-12 0)
(3 -1.16581e-13 0)
(3 -1.85615e-15 0)
(3 -1.97374e-15 0)
(3 -1.80446e-15 0)
(3 -3.56163e-16 0)
(3 6.2335e-16 0)
(3 1.32749e-16 0)
(3 -4.83152e-16 0)
(3 -1.12233e-15 0)
(3 -1.68179e-16 0)
(1.58817 1.30049 0)
(1.55439 1.29633 0)
(1.67525 1.2173 0)
(2.1516 0.814925 0)
(3.02339 -0.0206021 0)
(3 -5.2101e-11 0)
(3 1.11378e-11 0)
(3 2.00732e-11 0)
(3 -3.12118e-12 0)
(3 1.30683e-15 0)
(3 -2.68593e-15 0)
(3 -1.3455e-15 0)
(3 -6.73742e-16 0)
(3 -1.15507e-15 0)
(3 -1.13873e-15 0)
(3 -3.94036e-16 0)
(3 -2.00783e-16 0)
(3 -6.60387e-16 0)
(3 -1.77965e-15 0)
(3 -1.1726e-15 0)
(1.59012 1.32517 0)
(1.50229 1.32947 0)
(1.72808 1.19208 0)
(2.38897 0.552417 0)
(3 -1.29306e-06 0)
(3 1.22647e-10 0)
(3 -5.87309e-13 0)
(3 -5.11054e-14 0)
(3 1.36085e-14 0)
(3 -2.21718e-15 0)
(3 -1.14293e-15 0)
(3 1.04652e-15 0)
(3 1.5758e-15 0)
(3 1.9216e-16 0)
(3 -9.86332e-17 0)
(3 -1.91517e-15 0)
(3 -9.29122e-16 0)
(3 -6.55773e-17 0)
(3 -1.63377e-15 0)
(3 -1.92672e-15 0)
(1.58244 1.30023 0)
(1.4736 1.33554 0)
(2.01639 1.02612 0)
(2.90101 0.103302 0)
(3 -1.99904e-09 0)
(3 2.53793e-12 0)
(3 6.24348e-16 0)
(3 -2.96312e-16 0)
(3 -1.02363e-15 0)
(3 -7.78507e-17 0)
(3 9.24229e-16 0)
(3 2.28933e-15 0)
(3 2.81539e-15 0)
(3 2.55902e-15 0)
(3 1.56291e-15 0)
(3 5.87511e-16 0)
(3 -2.36955e-16 0)
(3 -4.46902e-16 0)
(3 -4.90506e-16 0)
(3 -1.44937e-15 0)
(1.59808 1.29354 0)
(1.46795 1.39631 0)
(2.1317 0.858664 0)
(3.01066 -0.00862533 0)
(3 1.02962e-08 0)
(3 -2.36499e-11 0)
(3 3.45324e-14 0)
(3 -6.33417e-16 0)
(3 6.33047e-16 0)
(3 2.60483e-15 0)
(3 2.36279e-15 0)
(3 3.12826e-15 0)
(3 3.69231e-15 0)
(3 3.59882e-15 0)
(3 2.78521e-15 0)
(3 2.03547e-15 0)
(3 6.44234e-16 0)
(3 -2.63544e-16 0)
(3 -8.98562e-16 0)
(3 -1.27365e-15 0)
(1.61828 1.2807 0)
(1.55711 1.32246 0)
(2.40373 0.553294 0)
(3 -5.06615e-13 0)
(3 -6.319e-12 0)
(3 1.377e-13 0)
(3 2.95753e-16 0)
(3 1.49092e-15 0)
(3 1.11417e-15 0)
(3 2.24958e-15 0)
(3 3.06765e-15 0)
(3 3.63685e-15 0)
(3 4.34745e-15 0)
(3 4.18131e-15 0)
(3 3.3956e-15 0)
(3 3.50611e-15 0)
(3 3.33771e-15 0)
(3 2.3805e-15 0)
(3 2.89984e-15 0)
(3 6.39068e-16 0)
(1.63612 1.26588 0)
(1.66581 1.22899 0)
(2.6547 0.285522 0)
(3 7.63322e-13 0)
(3 -1.74679e-14 0)
(3 1.30017e-15 0)
(3 -2.64543e-16 0)
(3 -7.85368e-16 0)
(3 -5.55623e-16 0)
(3 1.06598e-16 0)
(3 8.24208e-16 0)
(3 1.87154e-15 0)
(3 3.10051e-15 0)
(3 3.42197e-15 0)
(3 3.78341e-15 0)
(3 3.97538e-15 0)
(3 5.18215e-15 0)
(3 5.05715e-15 0)
(3 5.30226e-15 0)
(3 4.12244e-15 0)
(1.65238 1.24189 0)
(1.79003 1.10399 0)
(2.86484 0.0953895 0)
(3 -6.86076e-13 0)
(3 -2.5136e-15 0)
(3 -3.37696e-15 0)
(3 -4.00948e-15 0)
(3 -4.22927e-15 0)
(3 -3.72311e-15 0)
(3 -2.93971e-15 0)
(3 -2.34819e-15 0)
(3 -1.31302e-15 0)
(3 -1.09359e-15 0)
(3 1.1334e-16 0)
(3 1.08476e-15 0)
(3 1.52183e-15 0)
(3 2.05221e-15 0)
(3 2.67895e-15 0)
(3 2.97773e-15 0)
(3 3.04445e-15 0)
(1.67654 1.20232 0)
(1.91008 0.967266 0)
(2.99551 0.0021339 0)
(3 9.12194e-15 0)
(3 -3.89537e-15 0)
(3 -4.3678e-15 0)
(3 -4.70167e-15 0)
(3 -5.05503e-15 0)
(3 -4.67137e-15 0)
(3 -4.25949e-15 0)
(3 -3.81074e-15 0)
(3 -3.24805e-15 0)
(3 -2.68506e-15 0)
(3 -2.21714e-15 0)
(3 -1.80694e-15 0)
(3 -1.09767e-15 0)
(3 -5.72916e-16 0)
(3 3.03107e-16 0)
(3 1.21786e-15 0)
(3 9.04418e-16 0)
(1.73405 1.16272 0)
(2.07121 0.820798 0)
(3 -3.60107e-15 0)
(3 -3.851e-15 0)
(3 -3.61519e-15 0)
(3 -4.02913e-15 0)
(3 -4.42565e-15 0)
(3 -4.96075e-15 0)
(3 -4.71099e-15 0)
(3 -4.23536e-15 0)
(3 -4.14256e-15 0)
(3 -4.05862e-15 0)
(3 -3.82906e-15 0)
(3 -3.25063e-15 0)
(3 -2.50705e-15 0)
(3 -1.95722e-15 0)
(3 -1.33499e-15 0)
(3 -8.82978e-16 0)
(3 -6.09811e-16 0)
(3 -1.33389e-16 0)
(1.73512 1.10168 0)
(2.21424 0.658633 0)
(3 -3.13117e-15 0)
(3 -3.40504e-15 0)
(3 -3.47046e-15 0)
(3 -3.81871e-15 0)
(3 -4.05719e-15 0)
(3 -4.74527e-15 0)
(3 -5.21037e-15 0)
(3 -4.79151e-15 0)
(3 -4.49232e-15 0)
(3 -4.64863e-15 0)
(3 -5.22064e-15 0)
(3 -5.24731e-15 0)
(3 -5.31555e-15 0)
(3 -5.28241e-15 0)
(3 -5.07564e-15 0)
(3 -4.40609e-15 0)
(3 -3.88277e-15 0)
(3 -3.52415e-15 0)
(1.81382 1.01424 0)
(2.42224 0.45903 0)
(3 -2.60331e-15 0)
(3 -3.0302e-15 0)
(3 -3.25907e-15 0)
(3 -3.85686e-15 0)
(3 -3.96305e-15 0)
(3 -3.64107e-15 0)
(3 -4.05212e-15 0)
(3 -4.07041e-15 0)
(3 -3.75346e-15 0)
(3 -3.73279e-15 0)
(3 -3.91596e-15 0)
(3 -4.08639e-15 0)
(3 -4.19181e-15 0)
(3 -4.36816e-15 0)
(3 -4.99653e-15 0)
(3 -4.94049e-15 0)
(3 -4.74881e-15 0)
(3 -4.67827e-15 0)
(1.95424 0.882183 0)
(2.71374 0.209561 0)
(3 -2.16517e-15 0)
(3 -1.88454e-15 0)
(3 -1.35632e-15 0)
(3 -1.52724e-15 0)
(3 -1.82308e-15 0)
(3 -1.75644e-15 0)
(3 -1.69536e-15 0)
(3 -1.69934e-15 0)
(3 -1.5935e-15 0)
(3 -1.53083e-15 0)
(3 -1.46136e-15 0)
(3 -1.5256e-15 0)
(3 -1.65252e-15 0)
(3 -1.51226e-15 0)
(3 -1.1078e-15 0)
(3 -7.90081e-16 0)
(3 -5.60598e-16 0)
(3 -2.56465e-16 0)
(2.10139 0.641149 0)
(2.99168 0.000245682 0)
(3 -2.10252e-15 0)
(3 -1.53526e-15 0)
(3 -7.68714e-16 0)
(3 -1.08989e-15 0)
(3 -1.35102e-15 0)
(3 -2.02248e-15 0)
(3 -1.99389e-15 0)
(3 -1.53845e-15 0)
(3 -1.25958e-15 0)
(3 -1.63523e-15 0)
(3 -2.28969e-15 0)
(3 -2.39264e-15 0)
(3 -2.51318e-15 0)
(3 -2.55745e-15 0)
(3 -2.47127e-15 0)
(3 -2.27365e-15 0)
(3 -1.75387e-15 0)
(3 -1.68173e-15 0)
(1.99465 0.37738 0)
(2.99994 -9.00865e-06 0)
(3 -1.98071e-15 0)
(3 -1.79088e-15 0)
(3 -1.36846e-15 0)
(3 -1.0612e-15 0)
(3 -7.725e-16 0)
(3 -7.38726e-16 0)
(3 -8.64106e-16 0)
(3 -4.31357e-16 0)
(3 1.14102e-16 0)
(3 1.25719e-16 0)
(3 -1.47312e-16 0)
(3 -3.97044e-16 0)
(3 -5.37073e-16 0)
(3 -7.02774e-16 0)
(3 -7.9142e-16 0)
(3 -9.78991e-16 0)
(3 -1.30309e-15 0)
(3 -1.44204e-15 0)
(1.99407 -0.377891 0)
(2.99993 9.15413e-06 0)
(3 -9.53717e-16 0)
(3 -5.71308e-16 0)
(3 -9.56971e-16 0)
(3 -1.23368e-15 0)
(3 -1.56019e-15 0)
(3 -1.00233e-15 0)
(3 -1.8498e-16 0)
(3 7.79664e-16 0)
(3 5.89592e-16 0)
(3 4.74148e-16 0)
(3 6.33438e-16 0)
(3 1.03912e-15 0)
(3 1.28751e-15 0)
(3 1.36418e-15 0)
(3 1.31228e-15 0)
(3 1.38348e-15 0)
(3 1.2531e-15 0)
(3 1.38589e-15 0)
(2.09824 -0.639327 0)
(2.99194 -0.000247071 0)
(3 -1.69835e-15 0)
(3 1.3219e-16 0)
(3 3.30631e-16 0)
(3 7.24444e-16 0)
(3 3.03548e-16 0)
(3 6.27306e-16 0)
(3 7.82623e-16 0)
(3 3.38287e-16 0)
(3 -1.77736e-16 0)
(3 6.82632e-18 0)
(3 -2.29529e-17 0)
(3 3.17497e-17 0)
(3 1.38131e-17 0)
(3 1.19424e-16 0)
(3 2.89747e-16 0)
(3 1.93554e-16 0)
(3 3.04623e-16 0)
(3 3.94159e-16 0)
(1.95816 -0.88139 0)
(2.71804 -0.206901 0)
(3 -5.40925e-16 0)
(3 -1.72164e-16 0)
(3 1.13446e-16 0)
(3 1.98274e-16 0)
(3 -4.26424e-16 0)
(3 5.5599e-17 0)
(3 1.09059e-16 0)
(3 1.35058e-17 0)
(3 -3.18309e-16 0)
(3 -6.4205e-16 0)
(3 -9.64842e-16 0)
(3 -1.42695e-15 0)
(3 -1.36533e-15 0)
(3 -1.1693e-15 0)
(3 -1.01568e-15 0)
(3 -7.91601e-16 0)
(3 -4.47057e-16 0)
(3 -2.45364e-16 0)
(1.81713 -1.01496 0)
(2.42399 -0.45803 0)
(3 3.48498e-17 0)
(3 -3.27253e-16 0)
(3 -8.79607e-16 0)
(3 -2.84869e-16 0)
(3 5.3153e-16 0)
(3 1.39821e-15 0)
(3 2.64532e-15 0)
(3 3.03039e-15 0)
(3 2.48805e-15 0)
(3 2.35236e-15 0)
(3 2.36123e-15 0)
(3 2.93732e-15 0)
(3 3.31016e-15 0)
(3 3.41309e-15 0)
(3 3.49548e-15 0)
(3 3.28057e-15 0)
(3 1.90674e-15 0)
(3 1.55503e-15 0)
(1.73212 -1.10353 0)
(2.20952 -0.661033 0)
(3 2.27366e-16 0)
(3 -1.92656e-16 0)
(3 -4.08527e-16 0)
(3 -1.58593e-16 0)
(3 -1.36663e-16 0)
(3 2.79162e-16 0)
(3 4.22848e-16 0)
(3 -1.51719e-16 0)
(3 -6.79477e-16 0)
(3 -1.07735e-15 0)
(3 -7.86387e-16 0)
(3 -4.18037e-16 0)
(3 -3.40562e-16 0)
(3 -2.04007e-16 0)
(3 -2.8493e-16 0)
(3 -8.36728e-16 0)
(3 -1.41434e-15 0)
(3 -2.11814e-15 0)
(1.73153 -1.16178 0)
(2.06772 -0.823431 0)
(3 3.2837e-17 0)
(3 5.22679e-16 0)
(3 4.53343e-16 0)
(3 7.70611e-16 0)
(3 8.86808e-16 0)
(3 1.10429e-15 0)
(3 7.27028e-16 0)
(3 8.64099e-17 0)
(3 -3.31046e-16 0)
(3 -4.57806e-16 0)
(3 -6.48863e-17 0)
(3 1.30939e-16 0)
(3 -2.46084e-16 0)
(3 -4.94604e-16 0)
(3 -2.24816e-15 0)
(3 -2.86787e-15 0)
(3 -3.04045e-15 0)
(3 -3.66796e-15 0)
(1.67795 -1.20215 0)
(1.91456 -0.966024 0)
(2.99682 -0.00139599 0)
(3 -1.02233e-14 0)
(3 4.66734e-17 0)
(3 7.53969e-17 0)
(3 -1.33534e-16 0)
(3 -1.09593e-16 0)
(3 -4.06447e-16 0)
(3 -6.01701e-16 0)
(3 -7.07569e-16 0)
(3 -5.66512e-16 0)
(3 -1.08957e-15 0)
(3 -2.07053e-15 0)
(3 -2.78931e-15 0)
(3 -3.86504e-15 0)
(3 -4.64877e-15 0)
(3 -4.56823e-15 0)
(3 -4.15536e-15 0)
(3 -4.20488e-15 0)
(1.65262 -1.24091 0)
(1.78825 -1.10412 0)
(2.86587 -0.0943584 0)
(3 7.77624e-13 0)
(3 -7.33611e-16 0)
(3 -6.11746e-16 0)
(3 -3.22468e-16 0)
(3 8.20764e-18 0)
(3 1.45234e-16 0)
(3 8.6355e-18 0)
(3 -9.6614e-17 0)
(3 -5.60051e-16 0)
(3 -2.11807e-15 0)
(3 -2.32735e-15 0)
(3 -2.74158e-15 0)
(3 -3.6031e-15 0)
(3 -4.3648e-15 0)
(3 -3.94239e-15 0)
(3 -3.18172e-15 0)
(3 -2.71041e-15 0)
(1.6366 -1.26519 0)
(1.66543 -1.22783 0)
(2.65698 -0.282953 0)
(3 -7.67181e-13 0)
(3 1.07954e-14 0)
(3 -1.25498e-15 0)
(3 -3.77171e-16 0)
(3 -1.30428e-17 0)
(3 8.53233e-17 0)
(3 -2.7953e-16 0)
(3 -1.68063e-15 0)
(3 -2.2725e-15 0)
(3 -3.07653e-15 0)
(3 -3.6747e-15 0)
(3 -4.15065e-15 0)
(3 -4.27809e-15 0)
(3 -3.3376e-15 0)
(3 -2.78655e-15 0)
(3 -2.48454e-15 0)
(3 -8.80696e-16 0)
(1.61911 -1.28139 0)
(1.56259 -1.31889 0)
(2.40782 -0.547286 0)
(3 3.54702e-13 0)
(3 6.01601e-12 0)
(3 -1.29529e-13 0)
(3 1.70871e-15 0)
(3 -8.57004e-17 0)
(3 2.11932e-16 0)
(3 -1.45486e-15 0)
(3 -2.64883e-15 0)
(3 -3.1194e-15 0)
(3 -3.28154e-15 0)
(3 -3.45754e-15 0)
(3 -3.47796e-15 0)
(3 -1.76957e-15 0)
(3 -2.19656e-15 0)
(3 -8.75596e-16 0)
(3 6.20571e-16 0)
(3 3.10435e-15 0)
(1.59878 -1.29468 0)
(1.47005 -1.39817 0)
(2.12279 -0.863721 0)
(3.01081 0.0087867 0)
(3 -9.77279e-09 0)
(3 1.98122e-11 0)
(3 -2.99009e-14 0)
(3 9.16909e-16 0)
(3 1.6189e-16 0)
(3 -5.25492e-16 0)
(3 -1.82615e-15 0)
(3 -2.08409e-15 0)
(3 -2.1598e-15 0)
(3 -1.84432e-15 0)
(3 -1.55877e-15 0)
(3 -4.32078e-16 0)
(3 8.43661e-16 0)
(3 1.8156e-15 0)
(3 2.91807e-15 0)
(3 3.58137e-15 0)
(1.58161 -1.3006 0)
(1.47188 -1.33468 0)
(2.0154 -1.0302 0)
(2.89914 -0.107434 0)
(3 1.85806e-09 0)
(3 -1.72737e-12 0)
(3 -1.20829e-15 0)
(3 -1.91299e-16 0)
(3 4.75922e-16 0)
(3 -9.0874e-16 0)
(3 -1.09962e-15 0)
(3 -1.44206e-15 0)
(3 -1.18502e-15 0)
(3 -6.84384e-17 0)
(3 4.17775e-17 0)
(3 1.4156e-15 0)
(3 1.07667e-15 0)
(3 2.16011e-15 0)
(3 2.59317e-15 0)
(3 3.0147e-15 0)
(1.58875 -1.32528 0)
(1.50127 -1.3285 0)
(1.72934 -1.19324 0)
(2.38917 -0.555407 0)
(3 5.59002e-07 0)
(3 -1.17422e-10 0)
(3 1.10175e-12 0)
(3 2.35983e-15 0)
(3 -1.27112e-14 0)
(3 -7.42336e-16 0)
(3 -7.93825e-16 0)
(3 -1.2814e-15 0)
(3 -7.92686e-16 0)
(3 -6.74409e-16 0)
(3 1.37995e-15 0)
(3 1.92608e-15 0)
(3 7.48273e-16 0)
(3 2.32785e-15 0)
(3 2.7546e-15 0)
(3 2.85521e-15 0)
(1.58745 -1.29932 0)
(1.5533 -1.29411 0)
(1.67334 -1.21843 0)
(2.14059 -0.819534 0)
(3.02348 0.0202483 0)
(3 4.84408e-11 0)
(3 -1.95635e-11 0)
(3 -1.15578e-11 0)
(3 2.85113e-12 0)
(3 -6.6041e-15 0)
(3 -2.16323e-15 0)
(3 -4.95542e-16 0)
(3 -1.20378e-15 0)
(3 3.30352e-17 0)
(3 1.15745e-15 0)
(3 8.86199e-16 0)
(3 1.55876e-15 0)
(3 2.09262e-15 0)
(3 2.27137e-15 0)
(3 1.83839e-15 0)
(1.58648 -1.28691 0)
(1.5902 -1.28806 0)
(1.64854 -1.25435 0)
(1.86612 -1.09139 0)
(2.71908 -0.233417 0)
(3 6.36847e-10 0)
(3 -1.34352e-08 0)
(3 1.19684e-08 0)
(3 -4.93101e-10 0)
(3 -1.4592e-12 0)
(3 1.06836e-13 0)
(3 -4.79848e-15 0)
(3 -2.90198e-16 0)
(3 5.78878e-16 0)
(3 7.7131e-16 0)
(3 4.31324e-16 0)
(3 1.44638e-15 0)
(3 2.06214e-15 0)
(3 1.3333e-15 0)
(3 1.91118e-15 0)
(1.58478 -1.27078 0)
(1.59936 -1.27365 0)
(1.62931 -1.26741 0)
(1.62278 -1.2739 0)
(2.31572 -0.669709 0)
(3.02253 0.0210502 0)
(2.99969 -2.90548e-05 0)
(3 3.45089e-06 0)
(3 -7.36391e-08 0)
(3 8.66226e-10 0)
(3 -6.18264e-12 0)
(3 5.29926e-14 0)
(3 -6.22797e-16 0)
(3 5.69365e-17 0)
(3 1.82854e-16 0)
(3 2.39934e-16 0)
(3 9.06725e-16 0)
(3 3.36466e-15 0)
(3 1.19954e-15 0)
(3 1.76293e-15 0)
(1.58229 -1.25591 0)
(1.60046 -1.26129 0)
(1.62123 -1.26845 0)
(1.58862 -1.31307 0)
(1.8695 -1.08876 0)
(2.73462 -0.241753 0)
(3.00395 -0.000665162 0)
(2.99994 -3.9309e-05 0)
(3 7.13043e-07 0)
(3 -8.58555e-10 0)
(3 1.68384e-12 0)
(3 -3.63468e-14 0)
(3 -3.62144e-16 0)
(3 -6.93243e-16 0)
(3 -7.74332e-16 0)
(3 -3.7678e-16 0)
(3 1.11697e-18 0)
(3 3.38021e-15 0)
(3 1.88602e-15 0)
(3 2.38493e-15 0)
(1.5798 -1.25132 0)
(1.5995 -1.25726 0)
(1.60829 -1.26316 0)
(1.59731 -1.28251 0)
(1.74006 -1.19758 0)
(2.24371 -0.785439 0)
(3.00392 0.00778427 0)
(2.99994 0.00015061 0)
(3 -5.10312e-07 0)
(3 -5.43807e-11 0)
(3 3.41643e-12 0)
(3 -1.83958e-14 0)
(3 -2.50344e-15 0)
(3 -2.69755e-15 0)
(3 -1.47108e-15 0)
(3 -1.13433e-15 0)
(3 3.4812e-16 0)
(3 2.56107e-15 0)
(3 2.60829e-15 0)
(3 2.52087e-15 0)
(1.57462 -1.2412 0)
(1.59046 -1.25405 0)
(1.60613 -1.26431 0)
(1.61812 -1.26852 0)
(1.67245 -1.25683 0)
(1.77525 -1.19539 0)
(2.28248 -0.719871 0)
(3.00103 -0.00742173 0)
(3 -9.12823e-08 0)
(3 7.50854e-11 0)
(3 1.88721e-12 0)
(3 -2.39239e-14 0)
(3 -2.6757e-15 0)
(3 -4.51295e-15 0)
(3 -1.65116e-15 0)
(3 -2.07259e-16 0)
(3 7.27991e-16 0)
(3 1.84834e-15 0)
(3 2.46124e-15 0)
(3 2.32945e-15 0)
(1.57751 -1.2524 0)
(1.5825 -1.25685 0)
(1.5966 -1.26365 0)
(1.60854 -1.26383 0)
(1.61129 -1.25427 0)
(1.5948 -1.26471 0)
(1.86905 -1.1695 0)
(2.94974 -0.40907 0)
(3.39817 0.686164 0)
(3 -7.14139e-11 0)
(3 8.82726e-11 0)
(3 -9.08144e-11 0)
(3 -1.41389e-14 0)
(3 4.94076e-13 0)
(3 1.46595e-14 0)
(3 -2.02497e-14 0)
(3 1.45097e-14 0)
(3 2.01789e-15 0)
(3 3.05075e-15 0)
(3 4.35505e-15 0)
(1.15692 -0.782783 0)
(1.83502 -1.13559 0)
(1.83543 -1.15435 0)
(1.74676 -1.19241 0)
(1.71961 -1.20107 0)
(1.66238 -1.24238 0)
(1.64913 -1.21692 0)
(1.7174 -1.16428 0)
(1.74173 -1.24203 0)
(1.77867 -1.15487 0)
(2.27009 -0.75069 0)
(2.85796 -0.212811 0)
(3.09505 0.0266955 0)
(3.02022 0.012269 0)
(3.00464 0.0054946 0)
(3.0019 0.00306762 0)
(3.00006 0.000601193 0)
(2.99998 2.37264e-05 0)
(2.99999 -1.43581e-05 0)
(3 -5.90826e-06 0)
(1.00691 -0.0408918 0)
(1.92338 -0.778156 0)
(2.11735 -0.78031 0)
(2.01268 -0.931289 0)
(1.96372 -0.995201 0)
(1.86536 -1.09503 0)
(1.78563 -1.1392 0)
(1.75389 -1.14548 0)
(1.75226 -1.16239 0)
(1.73151 -1.20556 0)
(1.71989 -1.19539 0)
(1.87547 -1.06545 0)
(2.10907 -0.879121 0)
(2.50738 -0.572364 0)
(2.98661 -0.134981 0)
(3.07366 0.0295296 0)
(3.00818 0.00771194 0)
(3.00293 0.00383713 0)
(3.00122 0.00219252 0)
(3.00008 0.0004818 0)
(0.966619 0.00288528 0)
(1.92606 -0.255684 0)
(2.22634 -0.543494 0)
(2.23399 -0.543339 0)
(2.2158 -0.574384 0)
(2.15999 -0.73003 0)
(2.03101 -0.905842 0)
(1.95316 -0.97947 0)
(1.90028 -1.03831 0)
(1.85041 -1.12577 0)
(1.79437 -1.15545 0)
(1.79502 -1.14707 0)
(1.81206 -1.12681 0)
(1.84819 -1.08606 0)
(2.03723 -0.95212 0)
(2.25667 -0.830771 0)
(2.66346 -0.504647 0)
(3.03545 -0.0919196 0)
(3.05511 0.0238737 0)
(3.00405 0.00468496 0)
(1.15834 0.878929 0)
(1.62344 1.16666 0)
(2.28238 0.55799 0)
(2.37956 -0.0840867 0)
(2.36701 -0.338793 0)
(2.35742 -0.357014 0)
(2.28347 -0.512144 0)
(2.20807 -0.633199 0)
(2.13812 -0.746092 0)
(2.09258 -0.878577 0)
(1.98675 -0.989141 0)
(1.92825 -1.04728 0)
(1.88575 -1.07628 0)
(1.86657 -1.09179 0)
(1.86712 -1.06128 0)
(1.89484 -1.05174 0)
(1.96228 -1.0219 0)
(2.16602 -0.90131 0)
(2.38364 -0.7889 0)
(2.77936 -0.439508 0)
(1.17719 1.54353 0)
(1.41524 1.93933 0)
(1.99304 1.55399 0)
(2.2377 0.316567 0)
(2.42953 0.196768 0)
(2.46455 0.0145717 0)
(2.47096 -0.13455 0)
(2.39126 -0.385396 0)
(2.34046 -0.474784 0)
(2.30331 -0.618003 0)
(2.21939 -0.762389 0)
(2.1334 -0.87483 0)
(2.06558 -0.940996 0)
(2.0076 -0.997515 0)
(1.97381 -0.991895 0)
(1.95637 -0.99317 0)
(1.95737 -1.00986 0)
(1.97245 -0.992315 0)
(1.9964 -0.993232 0)
(2.06931 -0.979397 0)
(1.33244 1.72409 0)
(1.55809 2.24469 0)
(1.92735 1.7312 0)
(2.04118 1.41059 0)
(2.25722 1.22426 0)
(2.3825 0.411764 0)
(2.49833 0.175016 0)
(2.51882 -0.0279789 0)
(2.46203 -0.219248 0)
(2.44992 -0.334046 0)
(2.40333 -0.481712 0)
(2.33883 -0.603708 0)
(2.28075 -0.683969 0)
(2.22256 -0.752743 0)
(2.17753 -0.775896 0)
(2.14098 -0.795053 0)
(2.08691 -0.849633 0)
(2.05858 -0.89025 0)
(2.02837 -0.939866 0)
(2.05719 -0.959064 0)
(1.32078 1.57228 0)
(1.83953 2.49178 0)
(2.08128 1.87256 0)
(1.94696 1.71704 0)
(2.13745 1.49616 0)
(2.29965 1.17749 0)
(2.40695 0.857729 0)
(2.47112 0.626771 0)
(2.4827 0.340776 0)
(2.50993 0.22146 0)
(2.52082 0.0262105 0)
(2.48514 -0.159136 0)
(2.45866 -0.294688 0)
(2.40775 -0.427245 0)
(2.35149 -0.545167 0)
(2.32085 -0.602366 0)
(2.23408 -0.712846 0)
(2.18994 -0.751393 0)
(2.16776 -0.777076 0)
(2.14858 -0.780732 0)
(1.20958 1.1909 0)
(1.7329 1.90591 0)
(2.20611 2.20949 0)
(2.13054 2.05462 0)
(2.27476 1.61253 0)
(2.28313 1.47739 0)
(2.39317 1.13759 0)
(2.46658 0.887106 0)
(2.48974 0.758213 0)
(2.53505 0.525811 0)
(2.60496 0.331826 0)
(2.58223 0.0645134 0)
(2.5858 -0.109209 0)
(2.53057 -0.299472 0)
(2.48231 -0.429436 0)
(2.44353 -0.481692 0)
(2.39196 -0.528605 0)
(2.38705 -0.471323 0)
(2.32481 -0.540253 0)
(2.32545 -0.513031 0)
(1.21021 1.05863 0)
(1.55416 1.50475 0)
(1.93017 2.08899 0)
(2.16428 2.34877 0)
(2.5386 1.68447 0)
(2.45929 1.71593 0)
(2.61862 1.27002 0)
(2.69823 0.947412 0)
(2.72204 0.852182 0)
(2.70032 0.490029 0)
(2.72937 0.343114 0)
(2.68938 0.114794 0)
(2.67744 0.0182839 0)
(2.64082 -0.102426 0)
(2.61133 -0.154248 0)
(2.57749 -0.16623 0)
(2.55167 -0.15243 0)
(2.527 -0.180121 0)
(2.44816 -0.336597 0)
(2.46041 -0.326507 0)
(1.23477 1.00817 0)
(1.41741 1.32998 0)
(1.6846 1.91856 0)
(1.74762 2.12398 0)
(2.26835 1.82089 0)
(2.46147 1.87469 0)
(2.62171 1.45762 0)
(2.69528 1.10825 0)
(2.75494 0.941211 0)
(2.74108 0.821286 0)
(2.73708 0.72147 0)
(2.72173 0.551211 0)
(2.69114 0.455313 0)
(2.68945 0.371486 0)
(2.66244 0.26682 0)
(2.65322 0.20932 0)
(2.64348 0.104012 0)
(2.60616 -0.0577058 0)
(2.54542 -0.208131 0)
(2.56081 -0.162648 0)
(1.29158 1.07485 0)
(1.36146 1.27732 0)
(1.51339 1.79493 0)
(1.59651 2.00188 0)
(1.76453 1.92247 0)
(2.03261 1.83977 0)
(2.21931 1.69036 0)
(2.40157 1.42496 0)
(2.48611 1.36786 0)
(2.49463 1.3503 0)
(2.53675 1.15508 0)
(2.58557 1.00615 0)
(2.60022 0.806834 0)
(2.68129 0.720237 0)
(2.68143 0.490788 0)
(2.72051 0.355998 0)
(2.70511 0.150371 0)
(2.67612 0.00333967 0)
(2.63009 -0.000593093 0)
(2.61104 0.0257669 0)
(1.34001 1.21643 0)
(1.38074 1.34867 0)
(1.45245 1.8333 0)
(1.58537 2.01774 0)
(1.67841 2.03577 0)
(1.87965 1.92908 0)
(2.02219 1.90713 0)
(2.19474 1.66541 0)
(2.25987 1.55395 0)
(2.34813 1.51337 0)
(2.46048 1.2757 0)
(2.57997 1.15594 0)
(2.63063 0.869935 0)
(2.74312 0.763659 0)
(2.74108 0.498826 0)
(2.75476 0.404799 0)
(2.74384 0.274333 0)
(2.71733 0.259345 0)
(2.70125 0.367475 0)
(2.6601 0.262114 0)
(1.46097 1.38477 0)
(1.49782 1.50097 0)
(1.4789 1.92472 0)
(1.58941 2.06045 0)
(1.65878 2.08285 0)
(1.84482 1.94544 0)
(1.94463 1.94952 0)
(2.13462 1.70104 0)
(2.25453 1.60862 0)
(2.42933 1.53856 0)
(2.54358 1.26737 0)
(2.67163 1.12646 0)
(2.7025 0.919816 0)
(2.73544 0.870744 0)
(2.76445 0.754899 0)
(2.75926 0.755053 0)
(2.74438 0.652245 0)
(2.72483 0.683477 0)
(2.72752 0.671613 0)
(2.71622 0.468355 0)
(1.65993 1.50956 0)
(1.709 1.59982 0)
(1.59502 1.95747 0)
(1.67014 2.11722 0)
(1.71287 2.1312 0)
(1.91308 1.99284 0)
(1.9821 2.03465 0)
(2.22058 1.73576 0)
(2.38981 1.7281 0)