/*--------------------------------*- C++ -*----------------------------------*\
  =========                 |
  \\      /  F ield         | OpenFOAM: The Open Source CFD Toolbox
   \\    /   O peration     | Website:  https://openfoam.org
    \\  /    A nd           | Version:  7
     \\/     M anipulation  |
\*---------------------------------------------------------------------------*/
FoamFile
{
    version     2.0;
    format      ascii;
    class       volScalarField;
    location    "9.9";
    object      p;
}
// * * * * * * * * * * * * * * * * * * * * * * * * * * * * * * * * * * * * * //

dimensions      [1 -1 -2 0 0 0 0];

internalField   nonuniform List<scalar> 
3700
(
0.113593
0.194493
0.245283
0.296986
0.341536
0.389876
0.3997
0.413752
0.425117
0.428657
0.458045
0.470548
0.472802
0.464416
0.481001
0.499244
0.512722
0.524551
0.516607
0.519332
0.0650848
0.085976
0.116335
0.140246
0.144559
0.145715
0.139901
0.141882
0.12946
0.119686
0.138109
0.159185
0.174108
0.180194
0.185868
0.196968
0.211427
0.209129
0.196012
0.186798
0.0549662
0.0690262
0.0818592
0.0795758
0.0680074
0.0533919
0.046213
0.0483081
0.0516962
0.0587145
0.0704524
0.0801895
0.091446
0.101929
0.107536
0.110566
0.112866
0.113742
0.114823
0.121775
0.0571852
0.0727899
0.0767006
0.0698276
0.0590339
0.0545198
0.0560618
0.0543977
0.0542475
0.0616351
0.0713661
0.0841613
0.0999283
0.119334
0.135002
0.14958
0.160709
0.163924
0.16145
0.164786
0.0607329
0.0698594
0.0661032
0.0610311
0.0601931
0.0658514
0.0743433
0.0769761
0.0824431
0.0985167
0.0906558
0.0930097
0.101477
0.122856
0.145348
0.167916
0.188852
0.206703
0.219891
0.225933
0.0619895
0.0649014
0.0610936
0.058398
0.0598403
0.0678619
0.0786062
0.0929936
0.115265
0.136939
0.135662
0.143226
0.137805
0.143053
0.155645
0.179212
0.209464
0.244439
0.275196
0.317585
0.0622686
0.0621674
0.0576023
0.054098
0.0551497
0.0646147
0.0747785
0.0942819
0.132205
0.158057
0.179546
0.195107
0.204846
0.217716
0.221651
0.232912
0.248803
0.284083
0.329456
0.412566
0.0699556
0.0577003
0.0487536
0.0493161
0.055118
0.0640947
0.0708933
0.0891377
0.130944
0.168858
0.206653
0.231732
0.266905
0.296448
0.322631
0.347333
0.368793
0.392398
0.428314
0.539236
0.0802712
0.0500007
0.0441651
0.0517804
0.0655473
0.0776113
0.0824548
0.0982516
0.128297
0.167381
0.219034
0.258286
0.315366
0.362803
0.413311
0.464264
0.510938
0.554223
0.594689
0.730062
0.0816986
0.0465116
0.045062
0.0637793
0.0856453
0.101824
0.12308
0.159965
0.185754
0.214889
0.253494
0.304395
0.371594
0.434889
0.504854
0.588219
0.673375
0.753336
0.830141
0.955015
0.0798432
0.0455609
0.0466888
0.0690987
0.0921491
0.113875
0.16525
0.232604
0.285283
0.350246
0.408555
0.470565
0.531376
0.595153
0.657714
0.746298
0.870325
0.988863
1.17488
1.14215
0.073524
0.0395296
0.0410555
0.0584165
0.0800419
0.10693
0.181404
0.264434
0.354477
0.473872
0.570813
0.669502
0.765396
0.856633
0.941008
1.04549
1.17665
1.31536
1.55221
1.5209
0.0542824
0.0278239
0.0275588
0.0462492
0.0711497
0.102163
0.17798
0.268613
0.405243
0.587287
0.745239
0.895258
1.04231
1.17385
1.32731
1.49364
1.65951
1.82912
2.08987
2.08169
0.0332873
0.0199296
0.0200534
0.0424801
0.0689053
0.145077
0.289549
0.445839
0.677109
0.899771
1.10475
1.28201
1.46208
1.63533
1.86243
2.10357
2.34491
2.5847
2.7974
3.00823
0.0206442
0.0166784
0.0179528
0.0432052
0.128465
0.392733
0.649118
0.933094
1.25872
1.54865
1.77433
1.97514
2.18312
2.4061
2.6987
2.98424
3.26368
3.5029
3.64997
3.77686
0.0123006
0.0163973
0.0243451
0.13341
0.419492
0.783569
1.11483
1.5211
1.96675
2.35367
2.62684
2.88094
3.13878
3.42902
3.75909
3.98597
4.11046
4.13972
4.04447
3.91266
0.00716478
0.0183051
0.13939
0.443089
0.940918
1.44855
1.97145
2.52176
3.12262
3.52886
3.77567
4.00063
4.19321
4.35296
4.4658
4.39668
4.18426
3.65565
2.8004
1.89547
0.0238089
0.143962
0.55251
1.2088
2.0756
2.86547
3.5454
4.23812
4.77632
4.85472
4.77571
4.74304
4.69235
4.52453
4.02115
3.0662
2.09164
1.33366
1.01891
0.992875
0.311808
0.882315
1.96241
3.16186
4.21057
4.86901
5.4294
5.87895
5.73994
5.29788
4.87012
4.33377
3.41092
2.3339
1.42819
1.03006
0.989432
0.994935
0.997317
0.999434
2.30996
3.6288
4.86918
5.69696
6.27097
6.43665
6.57078
6.23467
4.53274
3.19761
2.3617
1.55894
1.07992
0.987286
0.992874
0.996328
0.999189
0.999976
1.00002
1.00001
6.94917
6.89542
6.8526
6.91586
7.03425
6.77572
5.99556
2.31301
0.654371
1
1
1
1
1
1
1
1
1
1
1
6.95151
6.88206
6.7891
6.73425
6.72659
5.76117
2.70369
1.03214
1
1
1
1
1
1
1
1
1
1
1
1
6.79789
6.8448
6.83119
6.70378
6.28097
3.39845
1.04082
0.99906
1
1
1
1
1
1
1
1
1
1
1
1
6.65684
6.79028
6.82317
6.6756
4.69944
1.38488
0.993978
1.00012
0.999999
1
1
1
1
1
1
1
1
1
1
1
6.55305
6.77446
6.79215
6.05023
2.67449
0.97621
1.00035
0.999994
1
1
1
1
1
1
1
1
1
1
1
1
6.47505
6.81197
6.76632
4.93516
1.49844
1
1
1
1
1
1
1
1
1
1
1
1
1
1
1
6.42246
6.7667
6.74526
3.56089
0.973208
1
1
1
1
1
1
1
1
1
1
1
1
1
1
1
6.47383
6.62874
6.01319
2.03636
0.999998
1
1
1
1
1
1
1
1
1
1
1
1
1
1
1
6.96813
6.62337
4.87094
1.21874
1
1
1
1
1
1
1
1
1
1
1
1
1
1
1
1
7.29379
6.4247
3.41181
0.987877
1
1
1
1
1
1
1
1
1
1
1
1
1
1
1
1
7.44651
5.95977
2.30027
1
1
1
1
1
1
1
1
1
1
1
1
1
1
1
1
1
7.50553
5.38495
1.60492
1
1
1
1
1
1
1
1
1
1
1
1
1
1
1
1
1
7.52539
4.76548
1.17743
1
1
1
1
1
1
1
1
1
1
1
1
1
1
1
1
1
7.34229
4.03688
1.02127
1
1
1
1
1
1
1
1
1
1
1
1
1
1
1
1
1
7.2272
3.21301
1
1
1
1
1
1
1
1
1
1
1
1
1
1
1
1
1
1
6.97844
2.46974
1
1
1
1
1
1
1
1
1
1
1
1
1
1
1
1
1
1
6.6102
1.88596
1
1
1
1
1
1
1
1
1
1
1
1
1
1
1
1
1
1
6.35048
1.38101
1
1
1
1
1
1
1
1
1
1
1
1
1
1
1
1
1
1
5.72072
1.00634
1
1
1
1
1
1
1
1
1
1
1
1
1
1
1
1
1
1
4.63549
1.00007
1
1
1
1
1
1
1
1
1
1
1
1
1
1
1
1
1
1
4.63661
1.00006
1
1
1
1
1
1
1
1
1
1
1
1
1
1
1
1
1
1
5.70156
1.00632
1
1
1
1
1
1
1
1
1
1
1
1
1
1
1
1
1
1
6.36426
1.38368
1
1
1
1
1
1
1
1
1
1
1
1
1
1
1
1
1
1
6.61771
1.90426
1
1
1
1
1
1
1
1
1
1
1
1
1
1
1
1
1
1
6.9421
2.47088
1
1
1
1
1
1
1
1
1
1
1
1
1
1
1
1
1
1
7.25197
3.18945
1
1
1
1
1
1
1
1
1
1
1
1
1
1
1
1
1
1
7.34707
4.03271
1.02111
1
1
1
1
1
1
1
1
1
1
1
1
1
1
1
1
1
7.51426
4.76615
1.1814
1
1
1
1
1
1
1
1
1
1
1
1
1
1
1
1
1
7.4982
5.39855
1.6082
1
1
1
1
1
1
1
1
1
1
1
1
1
1
1
1
1
7.43956
5.95539
2.3111
1
1
1
1
1
1
1
1
1
1
1
1
1
1
1
1
1
7.29135
6.41945
3.41313
0.98797
1
1
1
1
1
1
1
1
1
1
1
1
1
1
1
1
6.98032
6.64392
4.87454
1.20873
1
1
1
1
1
1
1
1
1
1
1
1
1
1
1
1
6.45995
6.61852
6.0069
2.04865
0.999999
1
1
1
1
1
1
1
1
1
1
1
1
1
1
1
6.40856
6.72591
6.74354
3.55676
0.973055
1
1
1
1
1
1
1
1
1
1
1
1
1
1
1
6.47294
6.83143
6.78024
4.94979
1.49185
1
1
1
1
1
1
1
1
1
1
1
1
1
1
1
6.56531
6.79453
6.79446
6.02222
2.69774
0.975932
1.00035
0.999994
1
1
1
1
1
1
1
1
1
1
1
1
6.66611
6.79877
6.82604
6.66471
4.69434
1.37626
0.994291
1.00011
0.999999
1
1
1
1
1
1
1
1
1
1
1
6.7941
6.83921
6.83544
6.71599
6.31364
3.37526
1.0347
0.999228
1
1
1
1
1
1
1
1
1
1
1
1
6.95201
6.88642
6.80284
6.73908
6.69385
5.75936
2.70354
1.03336
1
1
1
1
1
1
1
1
1
1
1
1
6.95278
6.90003
6.86055
6.90514
7.00789
6.77073
6.00266
2.34361
0.647794
1
1
1
1
1
1
1
1
1
1
1
2.31348
3.62949
4.86795
5.68974
6.24842
6.43544
6.57284
6.24394
4.53826
3.19786
2.35869
1.55465
1.07797
0.987156
0.99283
0.996302
0.999185
0.999977
1.00002
1.00001
0.312102
0.892419
1.98609
3.18003
4.21647
4.86243
5.42055
5.87811
5.73829
5.29406
4.86661
4.33133
3.40932
2.33341
1.42794
1.03008
0.989452
0.994948
0.997324
0.999435
0.021907
0.13068
0.534992
1.20418
2.07284
2.87222
3.55523
4.23714
4.76323
4.85316
4.78047
4.75127
4.69881
4.52399
4.01584
3.06202
2.08954
1.33292
1.01882
0.992881
0.0103231
0.0214407
0.131855
0.433498
0.939366
1.45516
1.97025
2.52231
3.12315
3.52763
3.77931
4.00671
4.19907
4.35473
4.46493
4.39539
4.18269
3.6538
2.79926
1.89501
0.0150236
0.0177672
0.0248776
0.12873
0.420531
0.782187
1.12591
1.52872
1.97127
2.35563
2.62996
2.88638
3.14471
3.43443
3.7633
3.98563
4.10827
4.13861
4.04349
3.91271
0.0220942
0.0176235
0.0190062
0.0426
0.131286
0.385821
0.643897
0.923579
1.24956
1.54039
1.76858
1.97104
2.18029
2.40516
2.69975
2.98361
3.26061
3.50064
3.64997
3.77853
0.0327451
0.0204361
0.021542
0.0425484
0.0683888
0.142649
0.273748
0.433725
0.66671
0.891527
1.09808
1.27816
1.46145
1.63754
1.86635
2.10553
2.34348
2.58173
2.79727
3.01029
0.0476561
0.0267843
0.0280044
0.047244
0.0708328
0.110786
0.185933
0.278481
0.412151
0.593314
0.750471
0.900349
1.04661
1.17734
1.32817
1.49235
1.65652
1.82622
2.0892
2.08343
0.0608519
0.0339529
0.0408649
0.0589064
0.0807635
0.119219
0.188754
0.266463
0.357346
0.475951
0.572662
0.670616
0.765421
0.85578
0.938327
1.0418
1.1749
1.31588
1.55418
1.52243
0.0693257
0.0382811
0.0502394
0.0675603
0.0893035
0.12176
0.169044
0.227589
0.281909
0.345925
0.403238
0.464538
0.525949
0.591036
0.656367
0.74827
0.873517
0.991826
1.17556
1.14078
0.0766212
0.0444681
0.0483137
0.0619094
0.0820695
0.105473
0.12354
0.153899
0.182486
0.210564
0.249339
0.301696
0.372602
0.437802
0.508786
0.591772
0.675092
0.752948
0.828898
0.954707
0.0814308
0.0553991
0.0493435
0.0513612
0.0629109
0.0787029
0.0835428
0.0987921
0.128412
0.167853
0.219769
0.260184
0.318454
0.365796
0.415165
0.464389
0.50969
0.551306
0.592544
0.729619
0.0763672
0.0635214
0.0572086
0.0518821
0.0544118
0.0666331
0.0741522
0.0933224
0.131288
0.168386
0.206768
0.232732
0.267675
0.296495
0.320532
0.343692
0.364148
0.388609
0.426515
0.539513
0.0656014
0.0683354
0.0638593
0.0566394
0.0554981
0.0690963
0.0774048
0.0968494
0.13067
0.156325
0.178255
0.194989
0.202598
0.21394
0.217271
0.228226
0.245824
0.285244
0.331731
0.414146
0.0618429
0.069872
0.0653145
0.0587036
0.0581073
0.0689362
0.0782214
0.0926023
0.112595
0.133749
0.132935
0.14066
0.135455
0.140675
0.154664
0.180198
0.211572
0.246564
0.276941
0.317971
0.0615961
0.0722189
0.0676158
0.0600804
0.0554453
0.0621199
0.0682971
0.0731194
0.0799439
0.0955649
0.0894253
0.0925105
0.101465
0.123091
0.146052
0.169241
0.190195
0.207612
0.219042
0.224285
0.058552
0.0752896
0.0805818
0.0730374
0.0568867
0.0508817
0.0517641
0.0509987
0.054546
0.0621469
0.0730639
0.085007
0.100245
0.119678
0.135637
0.150066
0.160178
0.162733
0.160193
0.164097
0.0586944
0.0711491
0.0847594
0.0835796
0.0721147
0.0555829
0.048521
0.0487367
0.053728
0.0602819
0.0713049
0.0805958
0.091811
0.102138
0.107377
0.109827
0.111591
0.112444
0.114142
0.12233
0.0706679
0.088826
0.112131
0.131169
0.145011
0.140026
0.123275
0.104699
0.115068
0.126652
0.130351
0.135424
0.154928
0.184541
0.208889
0.201706
0.189857
0.191423
0.205426
0.20822
0.117142
0.197309
0.242011
0.287511
0.336709
0.381075
0.388553
0.393839
0.414816
0.435423
0.449041
0.459997
0.470905
0.473893
0.493213
0.497808
0.501489
0.521556
0.532032
0.533321
0.56093
0.650766
0.707887
0.771208
0.821552
0.882992
0.889817
0.886682
0.874247
0.868728
0.888836
0.943121
0.977855
0.969521
0.93905
0.931941
0.941225
0.960279
0.965802
0.958124
0.283969
0.411073
0.543147
0.665346
0.755466
0.839418
0.866773
0.890167
0.887865
0.886328
0.897606
0.929313
0.958743
0.959331
0.948473
0.940248
0.945071
0.954972
0.957391
0.955693
0.138923
0.156738
0.229929
0.356753
0.525829
0.683485
0.778961
0.865426
0.900736
0.90491
0.908496
0.918816
0.936706
0.950955
0.958004
0.958795
0.957919
0.957398
0.9532
0.953996
0.186904
0.216405
0.238813
0.237628
0.252569
0.318402
0.504656
0.731097
0.840383
0.911018
0.921484
0.903383
0.908581
0.930975
0.960769
0.971705
0.970619
0.962804
0.951892
0.954837
0.230996
0.262055
0.288155
0.288811
0.278452
0.278098
0.293713
0.389198
0.627161
0.841108
0.889407
0.882245
0.887099
0.915061
0.957427
0.978135
0.975686
0.962231
0.952482
0.958316
0.306638
0.323494
0.345987
0.336703
0.315815
0.312375
0.31558
0.325462
0.373888
0.54041
0.761713
0.866808
0.867535
0.892972
0.945757
0.978368
0.978755
0.964459
0.955934
0.963579
0.396418
0.399354
0.413844
0.403685
0.376207
0.364673
0.364408
0.369939
0.375583
0.387035
0.476172
0.702773
0.859424
0.880827
0.923891
0.967189
0.963986
0.945951
0.953788
0.96719
0.507846
0.495342
0.490542
0.472012
0.432003
0.402916
0.393563
0.392733
0.394256
0.391066
0.397123
0.454666
0.662447
0.847781
0.895805
0.934888
0.924825
0.93011
0.957643
0.967916
0.667205
0.598309
0.569293
0.548908
0.507466
0.463853
0.441945
0.430597
0.424428
0.418287
0.409253
0.41579
0.456958
0.640642
0.8265
0.915096
0.896153
0.918649
0.969056
0.966676
0.872691
0.728593
0.654635
0.638632
0.593038
0.535356
0.494928
0.458559
0.445846
0.450517
0.443065
0.43547
0.441727
0.464141
0.606798
0.834204
0.873039
0.932422
0.975468
0.963306
1.28352
0.95924
0.731067
0.670588
0.669149
0.662085
0.617022
0.550376
0.519176
0.49616
0.487626
0.481254
0.477863
0.470854
0.47932
0.561912
0.748946
0.889923
0.938743
0.951393
2.02932
1.53938
1.16278
0.869713
0.796022
0.804888
0.767609
0.666622
0.598713
0.564659
0.536568
0.537895
0.532264
0.519413
0.501669
0.497457
0.534828
0.643998
0.782901
0.905786
2.50318
2.16637
1.73695
1.36267
1.04538
0.919186
0.857925
0.760676
0.699792
0.673512
0.651526
0.634223
0.610972
0.578733
0.55727
0.536517
0.536696
0.539372
0.570982
0.739877
2.36543
2.34885
2.23478
1.93977
1.57378
1.23959
1.07496
0.960996
0.893115
0.827421
0.759706
0.706575
0.657234
0.610305
0.591883
0.584222
0.567423
0.551284
0.54451
0.580676
1.68182
2.14598
2.22338
2.19264
2.07044
1.77547
1.47441
1.24936
1.08025
0.961853
0.852312
0.792204
0.759751
0.704853
0.673197
0.666311
0.650003
0.618855
0.571776
0.575249
1.10934
1.43855
1.84857
2.1131
2.11335
2.07337
1.9294
1.6957
1.42076
1.23286
1.08642
0.976652
0.927308
0.862076
0.789559
0.74372
0.699424
0.65617
0.627529
0.607959
1.00453
1.04483
1.20449
1.54695
1.86145
2.0206
2.0144
1.97302
1.83409
1.61996
1.41386
1.20909
1.06756
0.981776
0.886286
0.817758
0.775912
0.734552
0.727246
0.698787
1.00009
1.00114
1.01026
1.07847
1.26942
1.57381
1.81931
1.93545
1.92954
1.88679
1.7728
1.58793
1.3749
1.21851
1.09344
0.98864
0.93737
0.888942
0.833439
0.756742
1
1.00001
1.00014
1.00255
1.01901
1.10049
1.28939
1.56178
1.76479
1.85532
1.85101
1.81738
1.7144
1.55113
1.38494
1.22173
1.09673
1.00417
0.928309
0.833129
1
1
1
1.00003
1.00032
1.00389
1.02508
1.10725
1.28576
1.52383
1.70803
1.78644
1.78203
1.75333
1.67618
1.53931
1.37885
1.22726
1.12553
1.00155
1
1
1
1
1
1.00005
1.00052
1.00443
1.02789
1.10412
1.26525
1.47143
1.64715
1.72586
1.72263
1.70185
1.64256
1.52519
1.39362
1.19553
1
1
1
1
1
1
1
1.00006
1.00064
1.00454
1.02559
1.09599
1.23441
1.41893
1.57578
1.67098
1.66867
1.65403
1.61725
1.46494
1
1
1
1
1
1
1
1
1.00001
1.00006
1.00059
1.00448
1.0208
1.083
1.19801
1.37036
1.50414
1.61072
1.6155
1.5923
1
1
1
1
1
1
1
1
1
1
1.00001
1.00006
1.00046
1.00379
1.01691
1.06473
1.1648
1.31547
1.44287
1.54929
1
1
1
1
1
1
1
1
1
1
1
1
1
1.00005
1.00039
1.00262
1.0141
1.05159
1.13672
1.38859
1.61308
2.46504
2.58362
2.08509
1.30974
1.03684
1.00187
1.00005
1
1
1
1
1
1
1
2.34778
2.81484
2.52721
1.54063
1.04824
1.00081
1
1
1
1
1
1
1
1
1
2.92972
2.86863
1.98022
1.15273
1.00523
1.00005
1
1
1
1
1
1
1
1
1
3.25313
2.55788
1.36607
1.01948
1.00019
1
1
1
1
1
1
1
1
1
1
3.31842
1.68469
1.04722
1.00049
1
1
1
1
1
1
1
1
1
1
1
2.06604
1.0731
1.0005
0.999999
1
1
1
1
1
1
1
1
1
1
1
1.1024
1.00055
0.999997
0.999999
1
1
1
1
1
1
1
1
1
1
1
0.99814
0.999864
0.999996
1
1
1
1
1
1
1
1
1
1
1
1
0.999966
1
1
1
1
1
1
1
1
1
1
1
1
1
1
1
1
1
1
1
1
1
1
1
1
1
1
1
1
1
1
1
1
1
1
1
1
1
1
1
1
1
1
1
1
1
1
1
1
1
1
1
1
1
1
1
1
1
1
1
1
1
1
1
1
1
1
1
1
1
1
1
1
1
1
1
1
1
1
1
1
1
1
1
1
1
1
1
1
1
1
1
1
1
1
1
1
1
1
1
1
1
1
1
1
1
1
1
1
1
1
1
1
1
1
1
1
1
1
1
1
1
1
1
1
1
1
1
1
1
1
1
1
1
1
1
1
1
1
1
1
1
1
1
1
1
1
1
1
1
1
1
1
1
1
1
1
1
1
1
1
1
1
1
1
1
1
1
1
1
1
1
1
1
1
1
1
1
1
1
1
1
1
1
1
1
1
1
1
1
1
1
1
1
1
1
1
1
1
1
1
1
1
1
1
1
1
1
1
1
1
1
1
1
1
1
1
1
1
1
1
1
1
1
1
1
1
1
1
1
1
1
1
1
1
1
1
1
1
1
1
1
1
1
1
1
1
1
1
1
1
1
1
1
1
1
1
1
1
1
1
1
1
1
1
1
1
1
1
1
1
1
1
1
1
1
1
1
1
1
1
1
1
1
1
1
1
1
1
1
1
1
1
1
1
1
1
1
1
1
1
1
1
1
1
1
1
1
1
1
1
1
1
1
1
1
1
1
1
1
1
1
1
1
1
1
1
1
1
1
1
1
1
1
1
1
1
1
1
1
1
1
1
1
1
1
1
1
1
1
1
1
1
1
1
1
1
1
1
1
1
1
1
1
1
1
1
1
1
1
1
1
1
1
1
1
1
1
1
1
1
1
1
1
1
1
1
1
1
1
1
1
1
1
1
1
1
1
1
1
1
1
1
1
1
1
1
1
1
1
1
1
1
1
1
1
1
1
1
1
1
1
1
1
1
1
1
1
1
1
1
1
1
1
1
1
1
1
1
1
1
1
1
1
1
1
1
1
1
1
1
1
1
1
1
1
1
1
1
1
1
1
1
1
1
1
1
1
1
1
1
1
1
1
1
1
1
1
1
1
1
1
1
1
1
1
1
1
1
1
1
1
1
1
1
1
1
1
1
1
1
1
1
1
1
1
1
1
1
1
1
1
1
1
1
1
1
1
1
1
1
1
1
1
1
1
1
1
1
1
1
1
1
1
1
1
1
1
1
1
1
1
1
1
1
1
1
1
1
1
1
1
1
1
1
1
1
1
1
1
1
1
1
1
1
1
1
1
1
1
1
1
1
1
1
1
1
1
1
1
1
1
1
1
1
1
1
1
1
1
1
1
1
1
1
1
1
1
1
1
1
1
1
1
1
1
1
1
1
1
1
1
1
1
1
1
1
1
1
1
1
1
1
1
1
1
1
1
1
1
1
1
1
1
1
1
1
1
1
1
1
1
1
1
1
1
1
1
1
1
1
1
1
1
1
1
1
1
1
1
1
1
1
1
1
1
1
1
1
1
1
1
1
1
1
1
1
1
1
1
1
1
1
1
1
1
1
1
1
1
1
1
1
1
1
1
1
1
1
1
1
1
1
1
1
1
1
1
1
1
1
1
1
1
1
1
1
1
1
1
1
1
1
1
1
1
1
1
1
1
1
1
1
1
1
1
1
1
1
1
1
1
1
1
1
1
1
1
1
1
1
1
1
1
1
1
1
1
1
1
1
1
1
1
1
1
1
1
1
1
1
1
1
1
1
1
1
1
1
1
1
1
1
1
1
1
1
1
1
1
1
1
1
1
1
1
1
1
1
1
1
1
1
1
1
1
1
1
1
1
1
1
1
1
1
1
1
1
1
1
1
1
1
1
1
1
1
1
1
1
1
1
1
1
1
1
1
1
1
1
1
1
1
1
1
0.999966
1
1
1
1
1
1
1
1
1
1
1
1
1
1
0.998144
0.999864
0.999996
1
1
1
1
1
1
1
1
1
1
1
1
1.10231
1.00055
0.999997
0.999999
1
1
1
1
1
1
1
1
1
1
1
2.06596
1.07305
1.0005
0.999999
1
1
1
1
1
1
1
1
1
1
1
3.31964
1.68434
1.04711
1.00049
1
1
1
1
1
1
1
1
1
1
1
3.25435
2.55844
1.36587
1.01945
1.00019
1
1
1
1
1
1
1
1
1
1
2.93058
2.86923
1.98
1.15266
1.00523
1.00005
1
1
1
1
1
1
1
1
1
2.34897
2.81495
2.52738
1.54067
1.04826
1.00081
1
1
1
1
1
1
1
1
1
1.61293
2.46509
2.58361
2.08536
1.30989
1.03686
1.00187
1.00005
1
1
1
1
1
1
1
1.28436
2.02809
2.50343
2.36557
1.68264
1.10937
1.00453
1.00009
1
1
1
1
1
1
1
0.965731
1.53738
2.16793
2.34911
2.14372
1.43811
1.04479
1.00113
1.00001
1
1
1
1
1
1
0.73078
1.17046
1.73847
2.23465
2.22284
1.84711
1.20414
1.0103
1.00014
1
1
1
1
1
1
0.663062
0.871985
1.35086
1.94145
2.19499
2.11403
1.547
1.07828
1.00253
1.00003
1
1
1
1
1
0.672359
0.802886
1.04853
1.56619
2.06838
2.11426
1.86224
1.26974
1.01913
1.00033
1
1
1
1
1
0.662987
0.805152
0.937776
1.25158
1.77003
2.07415
2.02082
1.57366
1.10052
1.0039
1.00005
1
1
1
1
0.617738
0.753249
0.850233
1.08254
1.48768
1.93076
2.01433
1.82119
1.28995
1.0249
1.00051
1
1
1
1
0.564265
0.667241
0.757065
0.953038
1.24636
1.69267
1.97264
1.93522
1.56088
1.1079
1.0045
1.00006
1
1
1
0.533687
0.597964
0.698746
0.891966
1.07432
1.42273
1.83315
1.92857
1.76445
1.28533
1.02772
1.00064
1.00001
1
1
0.50354
0.560253
0.664136
0.825007
0.960275
1.23721
1.61991
1.8862
1.85623
1.52413
1.10379
1.0045
1.00006
1
1
0.490147
0.539302
0.652802
0.760241
0.852263
1.08168
1.40964
1.77388
1.8518
1.70647
1.26495
1.02567
1.00059
1.00001
1
0.486559
0.541918
0.638127
0.707879
0.78927
0.981494
1.21388
1.58453
1.81728
1.78652
1.47185
1.09567
1.00444
1.00006
1
0.482969
0.535197
0.6121
0.657463
0.745333
0.927247
1.07959
1.37456
1.71503
1.78249
1.64687
1.23419
1.0208
1.00046
1
0.469589
0.519449
0.575693
0.610004
0.695681
0.850395
0.98283
1.22697
1.55433
1.7543
1.72558
1.41876
1.08289
1.00378
1.00005
0.476118
0.493928
0.551787
0.597257
0.68647
0.786379
0.880806
1.09665
1.38638
1.6773
1.7225
1.5762
1.19796
1.0169
1.00039
0.556275
0.492784
0.530603
0.589619
0.680193
0.742591
0.814649
0.995972
1.22018
1.53955
1.70192
1.67105
1.37034
1.06477
1.00262
0.743363
0.530306
0.532995
0.572703
0.658516
0.69622
0.770599
0.941731
1.09606
1.37807
1.64285
1.66872
1.50454
1.16481
1.0141
0.888814
0.641982
0.537089
0.556393
0.623554
0.65191
0.728703
0.887029
1.0038
1.22672
1.52559
1.65404
1.61111
1.31568
1.05165
0.941026
0.786148
0.57237
0.54689
0.578127
0.625382
0.722461
0.82895
0.927189
1.12645
1.39389
1.61722
1.61547
1.44305
1.13683
0.954135
0.908216
0.741707
0.581758
0.578939
0.608455
0.696504
0.754975
0.831854
1.00232
1.19542
1.46468
1.59219
1.54939
1.38867
0.874158
0.725854
0.637603
0.630939
0.597171
0.536742
0.491991
0.464376
0.458508
0.449916
0.442145
0.438815
0.440772
0.463589
0.603668
0.813995
0.862416
0.931014
0.9756
0.963014
0.663304
0.59415
0.559005
0.547758
0.503833
0.45338
0.431727
0.427326
0.431175
0.428236
0.418022
0.416621
0.453623
0.634527
0.844681
0.936206
0.902545
0.922569
0.968415
0.966537
0.505362
0.491236
0.49132
0.47706
0.432709
0.401086
0.396158
0.398535
0.402919
0.396166
0.398408
0.442942
0.64483
0.832129
0.903751
0.949005
0.935885
0.934817
0.957902
0.967339
0.395898
0.399995
0.415566
0.404745
0.372878
0.359663
0.362383
0.369628
0.377235
0.385194
0.462642
0.664823
0.841271
0.898243
0.929367
0.962369
0.961062
0.945237
0.952312
0.966564
0.306083
0.324533
0.348173
0.336758
0.31235
0.309174
0.315109
0.325235
0.371727
0.526668
0.735942
0.864539
0.876699
0.904969
0.945097
0.974181
0.974242
0.960843
0.955318
0.964081
0.231036
0.261193
0.293136
0.292749
0.280457
0.276904
0.2975
0.394477
0.619925
0.831336
0.888516
0.894197
0.898336
0.916266
0.952487
0.978195
0.97735
0.96457
0.953988
0.96003
0.187313
0.217315
0.235148
0.237897
0.250162
0.320955
0.52254
0.729058
0.826989
0.902036
0.928023
0.920409
0.917744
0.928943
0.950434
0.966658
0.968347
0.966414
0.955879
0.957413
0.139112
0.159691
0.237661
0.353293
0.514031
0.686988
0.782142
0.853902
0.889691
0.904705
0.91517
0.933176
0.938835
0.942747
0.948282
0.956519
0.962685
0.964788
0.959481
0.956712
0.285743
0.418886
0.554479
0.662263
0.743984
0.839141
0.863826
0.885198
0.880348
0.886825
0.905489
0.947459
0.964448
0.95871
0.943117
0.940811
0.949794
0.96675
0.966079
0.958091
0.560813
0.65333
0.709349
0.770391
0.817833
0.87154
0.881879
0.875913
0.863634
0.872409
0.900302
0.954476
0.974938
0.964146
0.937075
0.931742
0.943264
0.966143
0.965948
0.957934
)
;

boundaryField
{
    inlet
    {
        type            fixedValue;
        value           uniform 1;
    }
    outlet
    {
        type            zeroGradient;
    }
    airfoil
    {
        type            zeroGradient;
    }
    top
    {
        type            symmetryPlane;
    }
    bottom
    {
        type            symmetryPlane;
    }
    defaultFaces
    {
        type            empty;
    }
}


// ************************************************************************* //
