/*--------------------------------*- C++ -*----------------------------------*\
  =========                 |
  \\      /  F ield         | OpenFOAM: The Open Source CFD Toolbox
   \\    /   O peration     | Website:  https://openfoam.org
    \\  /    A nd           | Version:  7
     \\/     M anipulation  |
\*---------------------------------------------------------------------------*/
FoamFile
{
    version     2.0;
    format      ascii;
    class       volScalarField;
    location    "9.9";
    object      rho;
}
// * * * * * * * * * * * * * * * * * * * * * * * * * * * * * * * * * * * * * //

dimensions      [1 -3 0 0 0 0 0];

internalField   nonuniform List<scalar> 
3700
(
0.1582
0.270371
0.34066
0.412117
0.473625
0.540184
0.553522
0.572939
0.588721
0.593741
0.634305
0.651344
0.654477
0.642994
0.665964
0.691201
0.709885
0.726326
0.715532
0.719603
0.0909541
0.120022
0.162174
0.1954
0.201395
0.202812
0.194532
0.197286
0.180189
0.166832
0.192417
0.221598
0.242384
0.250987
0.258936
0.274326
0.294333
0.291164
0.273102
0.260523
0.0769046
0.0965184
0.114442
0.111294
0.0951937
0.074813
0.064791
0.0677238
0.0724693
0.0822812
0.098681
0.112272
0.127997
0.142644
0.15049
0.154744
0.157974
0.159221
0.160741
0.170451
0.0800277
0.101808
0.107292
0.0977241
0.0826744
0.0763902
0.0785616
0.0762536
0.0760515
0.0863826
0.0999795
0.117854
0.139871
0.166972
0.188861
0.209234
0.224796
0.229309
0.225912
0.230604
0.0849908
0.0977317
0.0925036
0.0854295
0.0842491
0.0921579
0.104041
0.107759
0.115442
0.137931
0.12697
0.130253
0.142063
0.171915
0.203324
0.234846
0.26408
0.289011
0.307443
0.315894
0.0867319
0.0908028
0.0854952
0.0817212
0.083721
0.0949255
0.109952
0.130058
0.161184
0.191497
0.189766
0.20037
0.192836
0.200169
0.217748
0.250655
0.292881
0.341677
0.384602
0.443718
0.0870944
0.0869635
0.0806023
0.0757086
0.0771775
0.0903884
0.1046
0.131836
0.184775
0.220892
0.250917
0.272693
0.286333
0.304327
0.309853
0.325605
0.347818
0.39704
0.460293
0.576121
0.0977512
0.0807087
0.0682558
0.069058
0.0771577
0.0896951
0.0992077
0.124684
0.183019
0.235942
0.288689
0.323725
0.372811
0.414055
0.450592
0.485061
0.515023
0.547967
0.598067
0.752585
0.112086
0.069981
0.0618776
0.0725195
0.091772
0.108632
0.1154
0.137445
0.179373
0.233911
0.305981
0.360756
0.440351
0.506512
0.57692
0.647933
0.713001
0.773329
0.829709
1.01815
0.114086
0.0651434
0.0631494
0.0893184
0.119869
0.142477
0.172169
0.223632
0.259632
0.300247
0.354112
0.425088
0.518758
0.606986
0.704462
0.820553
0.93911
1.05045
1.15733
1.33099
0.111576
0.0638406
0.065435
0.0967473
0.128945
0.15927
0.230951
0.324867
0.398315
0.48882
0.57008
0.656466
0.74122
0.830113
0.917287
1.04063
1.21316
1.37802
1.63655
1.59111
0.102849
0.0554334
0.0575643
0.0818181
0.112043
0.14956
0.253425
0.369181
0.494614
0.660846
0.795851
0.93326
1.06678
1.19383
1.31126
1.45661
1.63896
1.83175
2.16066
2.11719
0.0760281
0.0390731
0.0386944
0.0648164
0.0996157
0.142867
0.248566
0.374963
0.565272
0.818642
1.03846
1.2472
1.45179
1.63478
1.84812
2.07922
2.3095
2.54492
2.90681
2.89549
0.0466996
0.0280178
0.02818
0.0595451
0.0964248
0.202496
0.40379
0.621478
0.943296
1.25309
1.53821
1.78473
2.03508
2.27584
2.59118
2.9258
3.26049
3.59299
3.88808
4.18078
0.0290135
0.0234596
0.0252286
0.0605072
0.17938
0.547179
0.903956
1.29878
1.75133
2.15429
2.46796
2.74693
3.03574
3.34516
3.75104
4.14693
4.53428
4.86596
5.07043
5.24697
0.0173167
0.0230569
0.0341275
0.1863
0.584363
1.09062
1.55108
2.1154
2.73427
3.2716
3.65083
4.00328
4.36064
4.76273
5.22026
5.53478
5.70774
5.74875
5.61786
5.43722
0.0101024
0.0257158
0.194717
0.617284
1.30898
2.01415
2.74014
3.50385
4.3376
4.90117
5.24324
5.55467
5.82102
6.04246
6.19918
6.10391
5.81202
5.08343
3.90032
2.64623
0.0334976
0.201292
0.769661
1.68111
2.88392
3.9795
4.92221
5.88262
6.6289
6.73734
6.62759
6.58218
6.5119
6.28043
5.58648
4.2662
2.91788
1.86525
1.4264
1.39006
0.436037
1.22876
2.72742
4.39005
5.84299
6.7553
7.53161
8.1553
7.96291
7.35042
6.75783
6.0167
4.74073
3.25205
1.9965
1.44194
1.38526
1.39293
1.39626
1.39922
3.21165
5.03827
6.75535
7.90097
8.69559
8.92591
9.11208
8.64808
6.29291
4.44293
3.28757
2.17747
1.51144
1.38226
1.39006
1.39488
1.39887
1.39997
1.40003
1.40002
9.63291
9.55869
9.49964
9.5875
9.75211
9.39629
8.3201
3.22356
0.91753
1.40001
1.40001
1.40001
1.40001
1.40001
1.40001
1.40001
1.40001
1.40001
1.40001
1.40001
9.63634
9.54032
9.41206
9.33712
9.32838
7.99651
3.7658
1.44468
1.40001
1.40001
1.40001
1.40001
1.40001
1.40001
1.40001
1.40001
1.40001
1.40001
1.40001
1.40001
9.42377
9.48874
9.47034
9.29558
8.71421
4.72822
1.45664
1.3987
1.40001
1.40001
1.40001
1.40001
1.40001
1.40001
1.40001
1.40001
1.40001
1.40001
1.40001
1.40001
9.2286
9.41323
9.45922
9.25741
6.52821
1.93465
1.39162
1.40017
1.4
1.40001
1.40001
1.40001
1.40001
1.40001
1.40001
1.40001
1.40001
1.40001
1.40001
1.40001
9.08503
9.3913
9.4162
8.39304
3.72335
1.36681
1.40049
1.4
1.40001
1.40001
1.40001
1.40001
1.40001
1.40001
1.40001
1.40001
1.40001
1.40001
1.40001
1.40001
8.97719
9.44313
9.38058
6.85204
2.09183
1.40001
1.40001
1.40001
1.40001
1.40001
1.40001
1.40001
1.40001
1.40001
1.40001
1.40001
1.40001
1.40001
1.40001
1.40001
8.90451
9.38074
9.35213
4.9507
1.3626
1.40001
1.40001
1.40001
1.40001
1.40001
1.40001
1.40001
1.40001
1.40001
1.40001
1.40001
1.40001
1.40001
1.40001
1.40001
8.97563
9.19089
8.34215
2.83771
1.4
1.40001
1.40001
1.40001
1.40001
1.40001
1.40001
1.40001
1.40001
1.40001
1.40001
1.40001
1.40001
1.40001
1.40001
1.40001
9.65878
9.18421
6.764
1.7036
1.4
1.40001
1.40001
1.40001
1.40001
1.40001
1.40001
1.40001
1.40001
1.40001
1.40001
1.40001
1.40001
1.40001
1.40001
1.40001
10.1087
8.91064
4.74467
1.38308
1.40001
1.40001
1.40001
1.40001
1.40001
1.40001
1.40001
1.40001
1.40001
1.40001
1.40001
1.40001
1.40001
1.40001
1.40001
1.40001
10.3194
8.2692
3.20427
1.40001
1.40001
1.40001
1.40001
1.40001
1.40001
1.40001
1.40001
1.40001
1.40001
1.40001
1.40001
1.40001
1.40001
1.40001
1.40001
1.40001
10.4005
7.47512
2.23977
1.40001
1.40001
1.40001
1.40001
1.40001
1.40001
1.40001
1.40001
1.40001
1.40001
1.40001
1.40001
1.40001
1.40001
1.40001
1.40001
1.40001
10.4276
6.61856
1.64642
1.40001
1.40001
1.40001
1.40001
1.40001
1.40001
1.40001
1.40001
1.40001
1.40001
1.40001
1.40001
1.40001
1.40001
1.40001
1.40001
1.40001
10.1746
5.60986
1.42957
1.40001
1.40001
1.40001
1.40001
1.40001
1.40001
1.40001
1.40001
1.40001
1.40001
1.40001
1.40001
1.40001
1.40001
1.40001
1.40001
1.40001
10.0172
4.46843
1.40001
1.40001
1.40001
1.40001
1.40001
1.40001
1.40001
1.40001
1.40001
1.40001
1.40001
1.40001
1.40001
1.40001
1.40001
1.40001
1.40001
1.40001
9.67471
3.43849
1.40001
1.40001
1.40001
1.40001
1.40001
1.40001
1.40001
1.40001
1.40001
1.40001
1.40001
1.40001
1.40001
1.40001
1.40001
1.40001
1.40001
1.40001
9.16713
2.62895
1.40001
1.40001
1.40001
1.40001
1.40001
1.40001
1.40001
1.40001
1.40001
1.40001
1.40001
1.40001
1.40001
1.40001
1.40001
1.40001
1.40001
1.40001
8.80986
1.92868
1.40001
1.40001
1.40001
1.40001
1.40001
1.40001
1.40001
1.40001
1.40001
1.40001
1.40001
1.40001
1.40001
1.40001
1.40001
1.40001
1.40001
1.40001
7.9406
1.40881
1.40001
1.40001
1.40001
1.40001
1.40001
1.40001
1.40001
1.40001
1.40001
1.40001
1.40001
1.40001
1.40001
1.40001
1.40001
1.40001
1.40001
1.40001
6.43772
1.4001
1.40001
1.40001
1.40001
1.40001
1.40001
1.40001
1.40001
1.40001
1.40001
1.40001
1.40001
1.40001
1.40001
1.40001
1.40001
1.40001
1.40001
1.40001
6.43929
1.40009
1.40001
1.40001
1.40001
1.40001
1.40001
1.40001
1.40001
1.40001
1.40001
1.40001
1.40001
1.40001
1.40001
1.40001
1.40001
1.40001
1.40001
1.40001
7.91422
1.40878
1.40001
1.40001
1.40001
1.40001
1.40001
1.40001
1.40001
1.40001
1.40001
1.40001
1.40001
1.40001
1.40001
1.40001
1.40001
1.40001
1.40001
1.40001
8.82889
1.93238
1.40001
1.40001
1.40001
1.40001
1.40001
1.40001
1.40001
1.40001
1.40001
1.40001
1.40001
1.40001
1.40001
1.40001
1.40001
1.40001
1.40001
1.40001
9.17726
2.65427
1.40001
1.40001
1.40001
1.40001
1.40001
1.40001
1.40001
1.40001
1.40001
1.40001
1.40001
1.40001
1.40001
1.40001
1.40001
1.40001
1.40001
1.40001
9.62433
3.44008
1.40001
1.40001
1.40001
1.40001
1.40001
1.40001
1.40001
1.40001
1.40001
1.40001
1.40001
1.40001
1.40001
1.40001
1.40001
1.40001
1.40001
1.40001
10.0516
4.4359
1.40001
1.40001
1.40001
1.40001
1.40001
1.40001
1.40001
1.40001
1.40001
1.40001
1.40001
1.40001
1.40001
1.40001
1.40001
1.40001
1.40001
1.40001
10.1815
5.60414
1.42937
1.40001
1.40001
1.40001
1.40001
1.40001
1.40001
1.40001
1.40001
1.40001
1.40001
1.40001
1.40001
1.40001
1.40001
1.40001
1.40001
1.40001
10.4122
6.61944
1.65194
1.40001
1.40001
1.40001
1.40001
1.40001
1.40001
1.40001
1.40001
1.40001
1.40001
1.40001
1.40001
1.40001
1.40001
1.40001
1.40001
1.40001
10.3903
7.49384
2.24433
1.40001
1.40001
1.40001
1.40001
1.40001
1.40001
1.40001
1.40001
1.40001
1.40001
1.40001
1.40001
1.40001
1.40001
1.40001
1.40001
1.40001
10.3097
8.26305
3.21927
1.40001
1.40001
1.40001
1.40001
1.40001
1.40001
1.40001
1.40001
1.40001
1.40001
1.40001
1.40001
1.40001
1.40001
1.40001
1.40001
1.40001
10.1053
8.90336
4.74647
1.38321
1.40001
1.40001
1.40001
1.40001
1.40001
1.40001
1.40001
1.40001
1.40001
1.40001
1.40001
1.40001
1.40001
1.40001
1.40001
1.40001
9.67559
9.21262
6.76903
1.68972
1.40001
1.40001
1.40001
1.40001
1.40001
1.40001
1.40001
1.40001
1.40001
1.40001
1.40001
1.40001
1.40001
1.40001
1.40001
1.40001
8.95651
9.17684
8.3335
2.85474
1.4
1.40001
1.40001
1.40001
1.40001
1.40001
1.40001
1.40001
1.40001
1.40001
1.40001
1.40001
1.40001
1.40001
1.40001
1.40001
8.88534
9.32449
9.3499
4.94492
1.36238
1.40001
1.40001
1.40001
1.40001
1.40001
1.40001
1.40001
1.40001
1.40001
1.40001
1.40001
1.40001
1.40001
1.40001
1.40001
8.97431
9.47002
9.39981
6.87235
2.08272
1.40001
1.40001
1.40001
1.40001
1.40001
1.40001
1.40001
1.40001
1.40001
1.40001
1.40001
1.40001
1.40001
1.40001
1.40001
9.102
9.41901
9.41934
8.35425
3.75553
1.36642
1.40049
1.4
1.40001
1.40001
1.40001
1.40001
1.40001
1.40001
1.40001
1.40001
1.40001
1.40001
1.40001
1.40001
9.24138
9.42493
9.4631
9.24219
6.52105
1.92266
1.39206
1.40016
1.4
1.40001
1.40001
1.40001
1.40001
1.40001
1.40001
1.40001
1.40001
1.40001
1.40001
1.40001
9.41845
9.48094
9.47615
9.31243
8.75954
4.69618
1.44813
1.39893
1.40001
1.40001
1.40001
1.40001
1.40001
1.40001
1.40001
1.40001
1.40001
1.40001
1.40001
1.40001
9.637
9.54633
9.43106
9.34384
9.28327
7.99424
3.76565
1.44639
1.40001
1.40001
1.40001
1.40001
1.40001
1.40001
1.40001
1.40001
1.40001
1.40001
1.40001
1.40001
9.63793
9.5651
9.51066
9.57275
9.71574
9.38939
8.32975
3.26597
0.908348
1.40001
1.40001
1.40001
1.40001
1.40001
1.40001
1.40001
1.40001
1.40001
1.40001
1.40001
3.21656
5.03926
6.75368
7.89106
8.66444
8.92428
9.11489
8.66081
6.30055
4.44332
3.28346
2.17154
1.50872
1.38208
1.39
1.39484
1.39887
1.39997
1.40003
1.40002
0.436449
1.24282
2.76025
4.41524
5.85116
6.7462
7.51932
8.15406
7.96056
7.34511
6.753
6.01338
4.73853
3.25137
1.99615
1.44197
1.38528
1.39295
1.39627
1.39922
0.0308149
0.182737
0.745291
1.67469
2.8801
3.98886
4.9358
5.88121
6.61072
6.7352
6.6342
6.59359
6.52085
6.27968
5.57911
4.26039
2.91497
1.86423
1.42628
1.39007
0.0145454
0.0301
0.184185
0.603927
1.30678
2.02329
2.73848
3.50461
4.33832
4.89947
5.2483
5.56311
5.82915
6.04492
6.19796
6.10213
5.80986
5.08088
3.89874
2.64559
0.0211471
0.0249818
0.0348789
0.179777
0.585818
1.08868
1.56644
2.12595
2.74051
3.2743
3.65515
4.01084
4.36888
4.77023
5.22607
5.53431
5.70471
5.74723
5.61653
5.43729
0.0310577
0.0247943
0.0267099
0.0596669
0.183298
0.537547
0.896684
1.28554
1.73859
2.14282
2.46
2.74127
3.03184
3.34386
3.75247
4.14605
4.53003
4.86282
5.07044
5.24929
0.0459683
0.0287383
0.0302672
0.0596385
0.0956812
0.199112
0.381804
0.604656
0.928858
1.24164
1.52895
1.7794
2.0342
2.27889
2.59659
2.9285
3.25851
3.58887
3.88792
4.18363
0.0668223
0.0376304
0.039319
0.0662071
0.0991561
0.154898
0.259679
0.388715
0.574874
0.827003
1.04572
1.25426
1.45774
1.6396
1.84929
2.07742
2.30536
2.54092
2.90589
2.8979
0.0852441
0.0476478
0.0573013
0.0825066
0.113038
0.166696
0.263674
0.371997
0.49859
0.663719
0.798411
0.934795
1.06679
1.19263
1.30752
1.45149
1.63656
1.83248
2.16339
2.11931
0.0970308
0.0536778
0.0703983
0.0946045
0.12497
0.17026
0.236235
0.317863
0.393595
0.48278
0.562659
0.64806
0.733656
0.824379
0.915414
1.04337
1.2176
1.38214
1.63749
1.5892
0.10712
0.0622986
0.0676945
0.0867128
0.114876
0.147561
0.172796
0.21515
0.255051
0.294195
0.348299
0.421311
0.520149
0.611032
0.70993
0.825496
0.941501
1.04991
1.15559
1.33055
0.113742
0.0775181
0.0691112
0.0719399
0.0880822
0.110145
0.116909
0.138192
0.179529
0.234562
0.306997
0.363395
0.44465
0.51068
0.579504
0.648111
0.711264
0.769262
0.826717
1.01753
0.106676
0.0888192
0.0800539
0.0726446
0.0761705
0.093241
0.10376
0.130529
0.183506
0.235287
0.28885
0.325122
0.373888
0.414124
0.447671
0.479992
0.508552
0.54269
0.59556
0.752963
0.0917009
0.0955483
0.0893392
0.079267
0.0776725
0.0966598
0.108283
0.135438
0.18265
0.218488
0.249129
0.272538
0.283203
0.299063
0.303748
0.319073
0.343664
0.398647
0.463453
0.578315
0.0864982
0.0977146
0.0913906
0.082166
0.0813243
0.0964478
0.109436
0.129537
0.157484
0.187065
0.185977
0.196796
0.189554
0.196844
0.216374
0.252025
0.295814
0.344632
0.387029
0.444252
0.0861714
0.100998
0.0946151
0.0841213
0.0776513
0.0869804
0.0956284
0.102396
0.111967
0.13382
0.125251
0.12955
0.142042
0.172241
0.204305
0.236692
0.265947
0.290275
0.306254
0.313596
0.0819192
0.105277
0.112696
0.102206
0.0796797
0.0713169
0.072564
0.0715008
0.0764659
0.0870938
0.102347
0.119031
0.140313
0.167455
0.189748
0.209911
0.224051
0.227643
0.224159
0.22964
0.082103
0.0994758
0.118474
0.116866
0.100928
0.0778821
0.0680243
0.0683276
0.0753099
0.0844679
0.0998658
0.112838
0.12851
0.142939
0.15027
0.153711
0.156195
0.157406
0.159787
0.171221
0.0987572
0.124024
0.156426
0.182881
0.202038
0.195044
0.171745
0.14598
0.16036
0.176402
0.181699
0.188874
0.215988
0.25698
0.290674
0.280752
0.26449
0.266766
0.286199
0.290149
0.163179
0.274359
0.33629
0.3992
0.466988
0.528056
0.538325
0.545685
0.574622
0.603063
0.621978
0.637236
0.652208
0.656081
0.682759
0.689179
0.694428
0.722342
0.736935
0.738794
0.777237
0.901816
0.981195
1.06914
1.13916
1.22461
1.23433
1.23023
1.21321
1.20574
1.23369
1.30904
1.35728
1.3459
1.30382
1.29407
1.30702
1.33351
1.34122
1.33068
0.395306
0.571911
0.755151
0.924597
1.04943
1.16591
1.20392
1.23635
1.23303
1.23088
1.24654
1.2906
1.33152
1.33246
1.31747
1.30604
1.31273
1.3265
1.3299
1.3276
0.194437
0.219338
0.321367
0.497902
0.732957
0.952022
1.0845
1.20427
1.25282
1.25834
1.26325
1.27761
1.30248
1.32227
1.33197
1.3329
1.33157
1.33084
1.32501
1.32606
0.26147
0.302689
0.333992
0.332361
0.353183
0.444919
0.704198
1.01912
1.17064
1.26841
1.28286
1.25772
1.26492
1.29596
1.3372
1.3522
1.35055
1.33964
1.32442
1.32839
0.323006
0.366381
0.402841
0.403777
0.389384
0.388886
0.410644
0.543662
0.874773
1.17208
1.23919
1.22922
1.23596
1.27474
1.33349
1.36215
1.35867
1.33992
1.32631
1.33429
0.428519
0.45207
0.483479
0.470561
0.441452
0.436672
0.441152
0.454934
0.522414
0.754192
1.06198
1.20812
1.20916
1.24449
1.31776
1.36304
1.36355
1.34367
1.33178
1.34234
0.553667
0.557822
0.578046
0.563907
0.525609
0.509537
0.509195
0.516936
0.524817
0.540793
0.664907
0.980208
1.19806
1.22783
1.28766
1.34783
1.34338
1.31831
1.32919
1.34779
0.708909
0.691542
0.684872
0.659075
0.603329
0.562796
0.549813
0.548717
0.550883
0.546465
0.554917
0.635097
0.9243
1.18207
1.24888
1.3032
1.2892
1.29654
1.33479
1.34906
0.930749
0.834877
0.794485
0.76612
0.708425
0.647681
0.617209
0.60148
0.592948
0.584433
0.571882
0.581012
0.638415
0.894147
1.15275
1.27591
1.24955
1.28081
1.35085
1.34754
1.2165
1.01609
0.913234
0.891014
0.827595
0.747288
0.691014
0.640435
0.622818
0.629378
0.619034
0.608488
0.617249
0.648543
0.847213
1.16363
1.21761
1.30013
1.35998
1.34308
1.78732
1.33684
1.01966
0.935592
0.933634
0.923814
0.861095
0.76836
0.725013
0.693039
0.681196
0.672361
0.667685
0.657999
0.669837
0.784919
1.04527
1.24139
1.30937
1.32694
2.82365
2.14333
1.62006
1.21267
1.11035
1.12275
1.07092
0.930386
0.835905
0.788573
0.749504
0.751403
0.743626
0.725811
0.701158
0.695338
0.747451
0.89958
1.09307
1.26408
3.48328
3.01526
2.41861
1.89852
1.45749
1.2821
1.19692
1.06156
0.976828
0.940324
0.909807
0.885789
0.85348
0.808646
0.778828
0.749956
0.750287
0.754134
0.798245
1.03356
3.29554
3.2705
3.11186
2.7017
2.19291
1.72829
1.49934
1.34078
1.24635
1.15498
1.06079
0.986871
0.918191
0.852851
0.827268
0.816686
0.793351
0.770927
0.761564
0.812082
2.34867
2.9931
3.09894
3.05497
2.88491
2.47459
2.05582
1.74276
1.50744
1.34268
1.19019
1.10652
1.06135
0.984898
0.940881
0.931389
0.908744
0.865394
0.799758
0.804761
1.55242
2.01104
2.58146
2.94846
2.94723
2.89075
2.69029
2.36498
1.98231
1.72076
1.51687
1.36403
1.29534
1.2045
1.1035
1.03969
0.978003
0.917721
0.87781
0.850624
1.40632
1.46255
1.68519
2.1624
2.59998
2.82065
2.81091
2.75263
2.55906
2.26083
1.9738
1.68858
1.49143
1.37191
1.23883
1.14334
1.08504
1.02737
1.01724
0.977643
1.40013
1.40159
1.41432
1.50949
1.7758
2.20005
2.54176
2.70291
2.69385
2.63386
2.47494
2.21732
1.9205
1.70257
1.52824
1.38215
1.31068
1.24318
1.1658
1.05886
1.40001
1.40002
1.4002
1.40356
1.42653
1.54021
1.8037
2.18344
2.46612
2.59187
2.58519
2.53815
2.39454
2.16694
1.9353
1.70774
1.53346
1.40439
1.29859
1.16581
1.40001
1.40001
1.40001
1.40004
1.40046
1.40543
1.435
1.54966
1.79866
2.13062
2.38717
2.49623
2.48963
2.44956
2.34195
2.1511
1.9274
1.71603
1.57416
1.40121
1.40001
1.40001
1.40001
1.40001
1.40001
1.40007
1.40073
1.40619
1.43892
1.54529
1.77007
2.05759
2.30243
2.41201
2.40722
2.37822
2.29553
2.13186
1.94842
1.67213
1.40001
1.40001
1.40001
1.40001
1.40001
1.40001
1.40001
1.40008
1.4009
1.40634
1.43572
1.53395
1.72706
1.9844
2.203
2.33563
2.33222
2.3118
2.26049
2.04808
1.40001
1.40001
1.40001
1.40001
1.40001
1.40001
1.40001
1.40001
1.40001
1.40009
1.40083
1.40626
1.42903
1.51583
1.67627
1.91667
2.10315
2.25172
2.2582
2.22585
1.40001
1.40001
1.40001
1.40001
1.40001
1.40001
1.40001
1.40001
1.40001
1.40001
1.40001
1.40009
1.40065
1.4053
1.42361
1.49034
1.62994
1.84011
2.01775
2.16604
1.40001
1.40001
1.40001
1.40001
1.40001
1.40001
1.40001
1.40001
1.40001
1.40001
1.40001
1.40001
1.40001
1.40007
1.40055
1.40366
1.41968
1.47199
1.59077
1.94198
2.24491
3.42864
3.59515
2.90705
1.83105
1.45133
1.40261
1.40007
1.40001
1.40001
1.40001
1.40001
1.40001
1.40001
1.40001
3.26496
3.91482
3.51987
2.15222
1.46722
1.40114
1.40001
1.4
1.40001
1.40001
1.40001
1.40001
1.40001
1.40001
1.40001
4.07297
3.99076
2.76201
1.61263
1.40729
1.40007
1.40001
1.40001
1.40001
1.40001
1.40001
1.40001
1.40001
1.40001
1.40001
4.52187
3.56258
1.9093
1.42715
1.40027
1.40001
1.40001
1.40001
1.40001
1.40001
1.40001
1.40001
1.40001
1.40001
1.40001
4.61577
2.35189
1.46575
1.40069
1.40001
1.40001
1.40001
1.40001
1.40001
1.40001
1.40001
1.40001
1.40001
1.40001
1.40001
2.88114
1.50178
1.40071
1.4
1.4
1.40001
1.40001
1.40001
1.40001
1.40001
1.40001
1.40001
1.40001
1.40001
1.40001
1.5427
1.40077
1.4
1.4
1.40001
1.40001
1.40001
1.40001
1.40001
1.40001
1.40001
1.40001
1.40001
1.40001
1.40001
1.39741
1.39982
1.4
1.40001
1.40001
1.40001
1.40001
1.40001
1.40001
1.40001
1.40001
1.40001
1.40001
1.40001
1.40001
1.39996
1.40001
1.40001
1.40001
1.40001
1.40001
1.40001
1.40001
1.40001
1.40001
1.40001
1.40001
1.40001
1.40001
1.40001
1.40001
1.40001
1.40001
1.40001
1.40001
1.40001
1.40001
1.40001
1.40001
1.40001
1.40001
1.40001
1.40001
1.40001
1.40001
1.40001
1.40001
1.40001
1.40001
1.40001
1.40001
1.40001
1.40001
1.40001
1.40001
1.40001
1.40001
1.40001
1.40001
1.40001
1.40001
1.40001
1.40001
1.40001
1.40001
1.40001
1.40001
1.40001
1.40001
1.40001
1.40001
1.40001
1.40001
1.40001
1.40001
1.40001
1.40001
1.40001
1.40001
1.40001
1.40001
1.40001
1.40001
1.40001
1.40001
1.40001
1.40001
1.40001
1.40001
1.40001
1.40001
1.40001
1.40001
1.40001
1.40001
1.40001
1.40001
1.40001
1.40001
1.40001
1.40001
1.40001
1.40001
1.40001
1.40001
1.40001
1.40001
1.40001
1.40001
1.40001
1.40001
1.40001
1.40001
1.40001
1.40001
1.40001
1.40001
1.40001
1.40001
1.40001
1.40001
1.40001
1.40001
1.40001
1.40001
1.40001
1.40001
1.40001
1.40001
1.40001
1.40001
1.40001
1.40001
1.40001
1.40001
1.40001
1.40001
1.40001
1.40001
1.40001
1.40001
1.40001
1.40001
1.40001
1.40001
1.40001
1.40001
1.40001
1.40001
1.40001
1.40001
1.40001
1.40001
1.40001
1.40001
1.40001
1.40001
1.40001
1.40001
1.40001
1.40001
1.40001
1.40001
1.40001
1.40001
1.40001
1.40001
1.40001
1.40001
1.40001
1.40001
1.40001
1.40001
1.40001
1.40001
1.40001
1.40001
1.40001
1.40001
1.40001
1.40001
1.40001
1.40001
1.40001
1.40001
1.40001
1.40001
1.40001
1.40001
1.40001
1.40001
1.40001
1.40001
1.40001
1.40001
1.40001
1.40001
1.40001
1.40001
1.40001
1.40001
1.40001
1.40001
1.40001
1.40001
1.40001
1.40001
1.40001
1.40001
1.40001
1.40001
1.40001
1.40001
1.40001
1.40001
1.40001
1.40001
1.40001
1.40001
1.40001
1.40001
1.40001
1.40001
1.40001
1.40001
1.40001
1.40001
1.40001
1.40001
1.40001
1.40001
1.40001
1.40001
1.40001
1.40001
1.40001
1.40001
1.40001
1.40001
1.40001
1.40001
1.40001
1.40001
1.40001
1.40001
1.40001
1.40001
1.40001
1.40001
1.40001
1.40001
1.40001
1.40001
1.40001
1.40001
1.40001
1.40001
1.40001
1.40001
1.40001
1.40001
1.40001
1.40001
1.40001
1.40001
1.40001
1.40001
1.40001
1.40001
1.40001
1.40001
1.40001
1.40001
1.40001
1.40001
1.40001
1.40001
1.40001
1.40001
1.40001
1.40001
1.40001
1.40001
1.40001
1.40001
1.40001
1.40001
1.40001
1.40001
1.40001
1.40001
1.40001
1.40001
1.40001
1.40001
1.40001
1.40001
1.40001
1.40001
1.40001
1.40001
1.40001
1.40001
1.40001
1.40001
1.40001
1.40001
1.40001
1.40001
1.40001
1.40001
1.40001
1.40001
1.40001
1.40001
1.40001
1.40001
1.40001
1.40001
1.40001
1.40001
1.40001
1.40001
1.40001
1.40001
1.40001
1.40001
1.40001
1.40001
1.40001
1.40001
1.40001
1.40001
1.40001
1.40001
1.40001
1.40001
1.40001
1.40001
1.40001
1.40001
1.40001
1.40001
1.40001
1.40001
1.40001
1.40001
1.40001
1.40001
1.40001
1.40001
1.40001
1.40001
1.40001
1.40001
1.40001
1.40001
1.40001
1.40001
1.40001
1.40001
1.40001
1.40001
1.40001
1.40001
1.40001
1.40001
1.40001
1.40001
1.40001
1.40001
1.40001
1.40001
1.40001
1.40001
1.40001
1.40001
1.40001
1.40001
1.40001
1.40001
1.40001
1.40001
1.40001
1.40001
1.40001
1.40001
1.40001
1.40001
1.40001
1.40001
1.40001
1.40001
1.40001
1.40001
1.40001
1.40001
1.40001
1.40001
1.40001
1.40001
1.40001
1.40001
1.40001
1.40001
1.40001
1.40001
1.40001
1.40001
1.40001
1.40001
1.40001
1.40001
1.40001
1.40001
1.40001
1.40001
1.40001
1.40001
1.40001
1.40001
1.40001
1.40001
1.40001
1.40001
1.40001
1.40001
1.40001
1.40001
1.40001
1.40001
1.40001
1.40001
1.40001
1.40001
1.40001
1.40001
1.40001
1.40001
1.40001
1.40001
1.40001
1.40001
1.40001
1.40001
1.40001
1.40001
1.40001
1.40001
1.40001
1.40001
1.40001
1.40001
1.40001
1.40001
1.40001
1.40001
1.40001
1.40001
1.40001
1.40001
1.40001
1.40001
1.40001
1.40001
1.40001
1.40001
1.40001
1.40001
1.40001
1.40001
1.40001
1.40001
1.40001
1.40001
1.40001
1.40001
1.40001
1.40001
1.40001
1.40001
1.40001
1.40001
1.40001
1.40001
1.40001
1.40001
1.40001
1.40001
1.40001
1.40001
1.40001
1.40001
1.40001
1.40001
1.40001
1.40001
1.40001
1.40001
1.40001
1.40001
1.40001
1.40001
1.40001
1.40001
1.40001
1.40001
1.40001
1.40001
1.40001
1.40001
1.40001
1.40001
1.40001
1.40001
1.40001
1.40001
1.40001
1.40001
1.40001
1.40001
1.40001
1.40001
1.40001
1.40001
1.40001
1.40001
1.40001
1.40001
1.40001
1.40001
1.40001
1.40001
1.40001
1.40001
1.40001
1.40001
1.40001
1.40001
1.40001
1.40001
1.40001
1.40001
1.40001
1.40001
1.40001
1.40001
1.40001
1.40001
1.40001
1.40001
1.40001
1.40001
1.40001
1.40001
1.40001
1.40001
1.40001
1.40001
1.40001
1.40001
1.40001
1.40001
1.40001
1.40001
1.40001
1.40001
1.40001
1.40001
1.40001
1.40001
1.40001
1.40001
1.40001
1.40001
1.40001
1.40001
1.40001
1.40001
1.40001
1.40001
1.40001
1.40001
1.40001
1.40001
1.40001
1.40001
1.40001
1.40001
1.40001
1.40001
1.40001
1.40001
1.40001
1.40001
1.40001
1.40001
1.40001
1.40001
1.40001
1.40001
1.40001
1.40001
1.40001
1.40001
1.40001
1.40001
1.40001
1.40001
1.40001
1.40001
1.40001
1.40001
1.40001
1.40001
1.40001
1.40001
1.40001
1.40001
1.40001
1.40001
1.40001
1.40001
1.40001
1.40001
1.40001
1.40001
1.40001
1.40001
1.40001
1.40001
1.40001
1.40001
1.40001
1.40001
1.40001
1.40001
1.40001
1.40001
1.40001
1.40001
1.40001
1.40001
1.40001
1.40001
1.40001
1.40001
1.40001
1.40001
1.40001
1.40001
1.40001
1.40001
1.40001
1.40001
1.40001
1.40001
1.40001
1.40001
1.40001
1.40001
1.40001
1.40001
1.40001
1.40001
1.40001
1.40001
1.40001
1.40001
1.40001
1.40001
1.40001
1.40001
1.40001
1.40001
1.40001
1.40001
1.40001
1.40001
1.40001
1.40001
1.40001
1.40001
1.40001
1.40001
1.40001
1.40001
1.40001
1.40001
1.40001
1.40001
1.40001
1.40001
1.40001
1.40001
1.40001
1.40001
1.40001
1.40001
1.40001
1.40001
1.40001
1.40001
1.40001
1.40001
1.40001
1.40001
1.40001
1.40001
1.40001
1.40001
1.40001
1.40001
1.40001
1.40001
1.40001
1.40001
1.40001
1.40001
1.40001
1.40001
1.40001
1.40001
1.40001
1.40001
1.40001
1.40001
1.40001
1.40001
1.40001
1.40001
1.40001
1.40001
1.40001
1.40001
1.40001
1.40001
1.40001
1.40001
1.40001
1.40001
1.40001
1.40001
1.40001
1.40001
1.40001
1.40001
1.40001
1.40001
1.40001
1.40001
1.40001
1.40001
1.40001
1.40001
1.40001
1.40001
1.40001
1.40001
1.40001
1.40001
1.40001
1.40001
1.40001
1.40001
1.40001
1.40001
1.40001
1.40001
1.40001
1.40001
1.40001
1.40001
1.40001
1.40001
1.40001
1.40001
1.40001
1.40001
1.40001
1.40001
1.40001
1.40001
1.40001
1.40001
1.40001
1.40001
1.40001
1.40001
1.40001
1.40001
1.40001
1.40001
1.40001
1.40001
1.40001
1.40001
1.40001
1.40001
1.40001
1.40001
1.40001
1.40001
1.40001
1.40001
1.40001
1.40001
1.40001
1.40001
1.40001
1.40001
1.40001
1.40001
1.40001
1.40001
1.40001
1.40001
1.40001
1.40001
1.40001
1.40001
1.40001
1.40001
1.40001
1.40001
1.40001
1.40001
1.40001
1.40001
1.40001
1.40001
1.40001
1.40001
1.40001
1.40001
1.40001
1.40001
1.40001
1.40001
1.40001
1.40001
1.40001
1.40001
1.40001
1.40001
1.40001
1.40001
1.40001
1.40001
1.40001
1.40001
1.40001
1.40001
1.40001
1.40001
1.40001
1.40001
1.40001
1.40001
1.40001
1.39996
1.40001
1.40001
1.40001
1.40001
1.40001
1.40001
1.40001
1.40001
1.40001
1.40001
1.40001
1.40001
1.40001
1.40001
1.39741
1.39982
1.4
1.40001
1.40001
1.40001
1.40001
1.40001
1.40001
1.40001
1.40001
1.40001
1.40001
1.40001
1.40001
1.54258
1.40077
1.4
1.4
1.40001
1.40001
1.40001
1.40001
1.40001
1.40001
1.40001
1.40001
1.40001
1.40001
1.40001
2.88103
1.50171
1.40071
1.4
1.4
1.40001
1.40001
1.40001
1.40001
1.40001
1.40001
1.40001
1.40001
1.40001
1.40001
4.61744
2.35139
1.4656
1.40068
1.40001
1.40001
1.40001
1.40001
1.40001
1.40001
1.40001
1.40001
1.40001
1.40001
1.40001
4.52356
3.56336
1.90902
1.4271
1.40027
1.40001
1.40001
1.40001
1.40001
1.40001
1.40001
1.40001
1.40001
1.40001
1.40001
4.07416
3.9916
2.76171
1.61254
1.40729
1.40007
1.40001
1.40001
1.40001
1.40001
1.40001
1.40001
1.40001
1.40001
1.40001
3.26662
3.91497
3.52011
2.15226
1.46724
1.40114
1.40001
1.4
1.40001
1.40001
1.40001
1.40001
1.40001
1.40001
1.40001
2.2447
3.42871
3.59514
2.90742
1.83125
1.45136
1.40261
1.40007
1.40001
1.40001
1.40001
1.40001
1.40001
1.40001
1.40001
1.78849
2.82194
3.48362
3.29573
2.34983
1.55245
1.40632
1.40013
1.40001
1.40001
1.40001
1.40001
1.40001
1.40001
1.40001
1.34586
2.14055
3.01742
3.27087
2.98995
2.01044
1.46249
1.40159
1.40002
1.40001
1.40001
1.40001
1.40001
1.40001
1.40001
1.01925
1.63074
2.42071
3.11168
3.09819
2.57942
1.68471
1.41437
1.4002
1.40001
1.40001
1.40001
1.40001
1.40001
1.40001
0.925119
1.21584
1.8821
2.70404
3.05822
2.94976
2.16247
1.50923
1.40353
1.40004
1.40001
1.40001
1.40001
1.40001
1.40001
0.938091
1.11989
1.46187
2.18237
2.88205
2.9485
2.60108
1.77624
1.4267
1.40046
1.40001
1.40001
1.40001
1.40001
1.40001
0.925067
1.12311
1.30795
1.74497
2.46703
2.89184
2.82095
2.19984
1.54027
1.40545
1.40007
1.40001
1.40001
1.40001
1.40001
0.862099
1.05094
1.1862
1.50988
2.07428
2.69217
2.81081
2.54437
1.80448
1.43476
1.40071
1.40001
1.40001
1.40001
1.40001
0.787715
0.931264
1.05654
1.3297
1.73857
2.36075
2.75211
2.70257
2.18219
1.55057
1.40628
1.40008
1.40001
1.40001
1.40001
0.745231
0.83488
0.97539
1.24476
1.49919
1.98506
2.55775
2.6925
2.46565
1.79806
1.43868
1.4009
1.40001
1.40001
1.40001
0.703319
0.782444
0.927269
1.15163
1.34048
1.72683
2.26076
2.63304
2.59313
2.13104
1.54483
1.40629
1.40009
1.40001
1.40001
0.684705
0.753312
0.911584
1.06154
1.19012
1.51027
1.96792
2.47645
2.58628
2.38502
1.76964
1.43583
1.40083
1.40001
1.40001
0.679747
0.757005
0.891226
0.988691
1.10243
1.37076
1.69526
2.2126
2.53801
2.49635
2.05818
1.5335
1.4062
1.40009
1.40001
0.674796
0.747709
0.855053
0.918513
1.04127
1.29524
1.50819
1.92004
2.39542
2.49027
2.30205
1.72674
1.42904
1.40065
1.40001
0.656226
0.725858
0.80441
0.85243
0.972121
1.18822
1.37338
1.71437
2.17139
2.45091
2.41163
1.98416
1.51567
1.40528
1.40007
0.665373
0.690351
0.771178
0.834758
0.959394
1.09908
1.2312
1.53272
1.93729
2.3435
2.40704
2.20359
1.6762
1.42359
1.40055
0.777068
0.688814
0.741695
0.824207
0.950741
1.03813
1.13901
1.39237
1.70559
2.15143
2.37832
2.33573
1.91663
1.49039
1.40366
1.03751
0.741144
0.745111
0.800713
0.920612
0.973534
1.07762
1.31676
1.53252
1.92631
2.29593
2.33229
2.10371
1.62996
1.41968
1.23985
0.896774
0.750937
0.778055
0.871947
0.911777
1.01921
1.24051
1.40387
1.71527
2.13242
2.3118
2.25225
1.8404
1.47208
1.31253
1.09759
0.800176
0.764881
0.80862
0.874822
1.01057
1.15954
1.29702
1.57544
1.94879
2.26044
2.25816
2.018
1.59093
1.33075
1.26747
1.03612
0.813587
0.809911
0.851319
0.974462
1.0564
1.16403
1.40227
1.67197
2.04772
2.2257
2.16617
1.9421
1.21853
1.01228
0.889532
0.880306
0.833339
0.749211
0.686916
0.648545
0.640454
0.62854
0.617749
0.61314
0.615915
0.647767
0.842847
1.13554
1.20285
1.29817
1.36015
1.34267
0.92532
0.82909
0.780166
0.764518
0.703359
0.633082
0.602974
0.596932
0.602344
0.598288
0.584087
0.582172
0.633762
0.885646
1.178
1.30524
1.25842
1.28624
1.34995
1.34735
0.705445
0.685824
0.685951
0.666103
0.604307
0.560244
0.553434
0.556804
0.562946
0.553566
0.556709
0.618773
0.899794
1.16032
1.25993
1.3228
1.30456
1.30306
1.33513
1.34825
0.55294
0.558709
0.580441
0.565382
0.520967
0.502559
0.506373
0.516502
0.527125
0.538217
0.646074
0.927457
1.17282
1.25201
1.29529
1.34116
1.33933
1.31731
1.32713
1.34691
0.427744
0.453515
0.486526
0.470637