/*--------------------------------*- C++ -*----------------------------------*\
  =========                 |
  \\      /  F ield         | OpenFOAM: The Open Source CFD Toolbox
   \\    /   O peration     | Website:  https://openfoam.org
    \\  /    A nd           | Version:  7
     \\/     M anipulation  |
\*---------------------------------------------------------------------------*/
FoamFile
{
    version     2.0;
    format      ascii;
    class       volScalarField;
    location    "5";
    object      p;
}
// * * * * * * * * * * * * * * * * * * * * * * * * * * * * * * * * * * * * * //

dimensions      [0 2 -2 0 0 0 0];

internalField   nonuniform List<scalar> 
12000
(
-0.343884
-0.326941
-0.311269
-0.29906
-0.288911
-0.280112
-0.272326
-0.265278
-0.258764
-0.252646
-0.246839
-0.241285
-0.235946
-0.230796
-0.225817
-0.220995
-0.216319
-0.211784
-0.207382
-0.203109
-0.198962
-0.194939
-0.191038
-0.187256
-0.183594
-0.180052
-0.176628
-0.173323
-0.170137
-0.16707
-0.164122
-0.161293
-0.158582
-0.155989
-0.153513
-0.151154
-0.148907
-0.146727
-0.144604
-0.14302
-0.300565
-0.302921
-0.297259
-0.290038
-0.282494
-0.27508
-0.268067
-0.26152
-0.255397
-0.249633
-0.244164
-0.238937
-0.233911
-0.229057
-0.224354
-0.219785
-0.215341
-0.211014
-0.206799
-0.202693
-0.198694
-0.1948
-0.191012
-0.187329
-0.183752
-0.180281
-0.176919
-0.173665
-0.170522
-0.16749
-0.16457
-0.161764
-0.159071
-0.156491
-0.154024
-0.151672
-0.149431
-0.147243
-0.145098
-0.143588
-0.287867
-0.292213
-0.291246
-0.287771
-0.282783
-0.276961
-0.270834
-0.264709
-0.258734
-0.252964
-0.24741
-0.242062
-0.236902
-0.231909
-0.227069
-0.222368
-0.217795
-0.213344
-0.20901
-0.204788
-0.200676
-0.196672
-0.192777
-0.18899
-0.185311
-0.181742
-0.178283
-0.174936
-0.171702
-0.168583
-0.165579
-0.162691
-0.159921
-0.157269
-0.154735
-0.152325
-0.150032
-0.147784
-0.145561
-0.144187
-0.277234
-0.281726
-0.282646
-0.281554
-0.27882
-0.274854
-0.270118
-0.264968
-0.259642
-0.254287
-0.248987
-0.243786
-0.238703
-0.233743
-0.228905
-0.224187
-0.219583
-0.215091
-0.210707
-0.20643
-0.202258
-0.19819
-0.194228
-0.19037
-0.186619
-0.182976
-0.179442
-0.176018
-0.172707
-0.169511
-0.166431
-0.163469
-0.160627
-0.157905
-0.155306
-0.152839
-0.150499
-0.148185
-0.145857
-0.144682
-0.268898
-0.272949
-0.274638
-0.274873
-0.273683
-0.27123
-0.267819
-0.263745
-0.259248
-0.254507
-0.249651
-0.244763
-0.239896
-0.235082
-0.23034
-0.225679
-0.221105
-0.216621
-0.212229
-0.20793
-0.203726
-0.199617
-0.195605
-0.191691
-0.187878
-0.184168
-0.180562
-0.177064
-0.173676
-0.170401
-0.167241
-0.164199
-0.161279
-0.158481
-0.155811
-0.153281
-0.150889
-0.148495
-0.14603
-0.145102
-0.26237
-0.265921
-0.26786
-0.268746
-0.2685
-0.26713
-0.264798
-0.261703
-0.258042
-0.253983
-0.249665
-0.24519
-0.240634
-0.23605
-0.231475
-0.226931
-0.222436
-0.218001
-0.213634
-0.20934
-0.205124
-0.200989
-0.19694
-0.192979
-0.189109
-0.185335
-0.181659
-0.178085
-0.174617
-0.171258
-0.168013
-0.164885
-0.161878
-0.158997
-0.156247
-0.153647
-0.151198
-0.148714
-0.146081
-0.14544
-0.256607
-0.259874
-0.261893
-0.263112
-0.263444
-0.262827
-0.261323
-0.259055
-0.256161
-0.252779
-0.249034
-0.245032
-0.240856
-0.236573
-0.23223
-0.227864
-0.223501
-0.21916
-0.214856
-0.210599
-0.206398
-0.20226
-0.198191
-0.194197
-0.190282
-0.186451
-0.182709
-0.179061
-0.175513
-0.172068
-0.168733
-0.165514
-0.162416
-0.159445
-0.156608
-0.153932
-0.151422
-0.14884
-0.146009
-0.145681
-0.251168
-0.254348
-0.256437
-0.257867
-0.258583
-0.258496
-0.257622
-0.256027
-0.2538
-0.251044
-0.247863
-0.244353
-0.240595
-0.236659
-0.2326
-0.228461
-0.224276
-0.220072
-0.215869
-0.211682
-0.207525
-0.203408
-0.19934
-0.195328
-0.19138
-0.187502
-0.1837
-0.179982
-0.176354
-0.172823
-0.169396
-0.166081
-0.162886
-0.159818
-0.156888
-0.154131
-0.151556
-0.148868
-0.145809
-0.145807
-0.245781
-0.249034
-0.251234
-0.252848
-0.253857
-0.254174
-0.253792
-0.252744
-0.251088
-0.248895
-0.246246
-0.24322
-0.239893
-0.23633
-0.232589
-0.228715
-0.224748
-0.220719
-0.216653
-0.212569
-0.208485
-0.204414
-0.200368
-0.196356
-0.192389
-0.188475
-0.184622
-0.180838
-0.177133
-0.173514
-0.169992
-0.166577
-0.163279
-0.160106
-0.157075
-0.154229
-0.151585
-0.148784
-0.14547
-0.145793
-0.240238
-0.243701
-0.246071
-0.247883
-0.249159
-0.249816
-0.249841
-0.249254
-0.248091
-0.2464
-0.244243
-0.241683
-0.238784
-0.235606
-0.232204
-0.228624
-0.224906
-0.221084
-0.217187
-0.213237
-0.209255
-0.205256
-0.201255
-0.197264
-0.193295
-0.189357
-0.185462
-0.181619
-0.177839
-0.174133
-0.170512
-0.16699
-0.163581
-0.160295
-0.157152
-0.154207
-0.151486
-0.148563
-0.14496
-0.145589
-0.234396
-0.238193
-0.240789
-0.242832
-0.244378
-0.245351
-0.245738
-0.245557
-0.244831
-0.243593
-0.24189
-0.239772
-0.237292
-0.234501
-0.23145
-0.228183
-0.224739
-0.221152
-0.217453
-0.213667
-0.209815
-0.205915
-0.201984
-0.198035
-0.194082
-0.190137
-0.186211
-0.182316
-0.178464
-0.17467
-0.170947
-0.167311
-0.163779
-0.160367
-0.157097
-0.154037
-0.151226
-0.148168
-0.144244
-0.145138
-0.228168
-0.232408
-0.235282
-0.237591
-0.239424
-0.240708
-0.241437
-0.241629
-0.241301
-0.24048
-0.239201
-0.237502
-0.235427
-0.233021
-0.230326
-0.227385
-0.224233
-0.220906
-0.217431
-0.213836
-0.210142
-0.206369
-0.202534
-0.198652
-0.194737
-0.190801
-0.186859
-0.182922
-0.179005
-0.175123
-0.171292
-0.167532
-0.163863
-0.160304
-0.156885
-0.153687
-0.150764
-0.147551
-0.143264
-0.144363
-0.221517
-0.226294
-0.229487
-0.232091
-0.234232
-0.235831
-0.236893
-0.237439
-0.237485
-0.237054
-0.236172
-0.234872
-0.233189
-0.231161
-0.228825
-0.226218
-0.223374
-0.220324
-0.217097
-0.213718
-0.21021
-0.206592
-0.202881
-0.199093
-0.195242
-0.19134
-0.187401
-0.183437
-0.179463
-0.175496
-0.171553
-0.167656
-0.16383
-0.160098
-0.156496
-0.15312
-0.150047
-0.146645
-0.141942
-0.143159
-0.214466
-0.21986
-0.223393
-0.226312
-0.228771
-0.23069
-0.232079
-0.232964
-0.233366
-0.233302
-0.232797
-0.231878
-0.230573
-0.228915
-0.226935
-0.224666
-0.222139
-0.219383
-0.216424
-0.213286
-0.20999
-0.206556
-0.203001
-0.199338
-0.19558
-0.19174
-0.18783
-0.183862
-0.179848
-0.175805
-0.171749
-0.167704
-0.163698
-0.159757
-0.155924
-0.152313
-0.149029
-0.145375
-0.140172
-0.141381
-0.20711
-0.213178
-0.217048
-0.220281
-0.223056
-0.225286
-0.22699
-0.2282
-0.228936
-0.229219
-0.22907
-0.228511
-0.227569
-0.226269
-0.224641
-0.222711
-0.220507
-0.218056
-0.215381
-0.212505
-0.209448
-0.206227
-0.202859
-0.199355
-0.195727
-0.191987
-0.188142
-0.184202
-0.180176
-0.176078
-0.171921
-0.167726
-0.163519
-0.15933
-0.155204
-0.151275
-0.147681
-0.143671
-0.137831
-0.138844
-0.199634
-0.206396
-0.210555
-0.214065
-0.217121
-0.219631
-0.221623
-0.22313
-0.224176
-0.224779
-0.224961
-0.224743
-0.224144
-0.22319
-0.221904
-0.22031
-0.218432
-0.216293
-0.213916
-0.211321
-0.208526
-0.205547
-0.202398
-0.199091
-0.195636
-0.192039
-0.188306
-0.184443
-0.180453
-0.176343
-0.172118
-0.167792
-0.163384
-0.158917
-0.154433
-0.15008
-0.146033
-0.14149
-0.134789
-0.135317
-0.192403
-0.199816
-0.204173
-0.207876
-0.211121
-0.213837
-0.216064
-0.217822
-0.219133
-0.220019
-0.2205
-0.220592
-0.220313
-0.219685
-0.218726
-0.217458
-0.215902
-0.214078
-0.212006
-0.209704
-0.207189
-0.204476
-0.201578
-0.198504
-0.195263
-0.19186
-0.188297
-0.184574
-0.180688
-0.176636
-0.172413
-0.168017
-0.16345
-0.158715
-0.153835
-0.148953
-0.14427
-0.13894
-0.131006
-0.130507
-0.186385
-0.19401
-0.19845
-0.20235
-0.205637
-0.20845
-0.210825
-0.212746
-0.214237
-0.215331
-0.216044
-0.216388
-0.216378
-0.21603
-0.215361
-0.214388
-0.213129
-0.211602
-0.209822
-0.207808
-0.205575
-0.203135
-0.200502
-0.197684
-0.194689
-0.191521
-0.18818
-0.184663
-0.180961
-0.177063
-0.17295
-0.168601
-0.163991
-0.159085
-0.15386
-0.148417
-0.142963
-0.13657
-0.126781
-0.124238
-0.183081
-0.188695
-0.192208
-0.196539
-0.199525
-0.202173
-0.204613
-0.20662
-0.208223
-0.209478
-0.210392
-0.210968
-0.211216
-0.211146
-0.210771
-0.210102
-0.209153
-0.20794
-0.206476
-0.204776
-0.202854
-0.200722
-0.198394
-0.195878
-0.193182
-0.190311
-0.187267
-0.184047
-0.180642
-0.177036
-0.173204
-0.169109
-0.164698
-0.159889
-0.154577
-0.148784
-0.142636
-0.134837
-0.12188
-0.115318
-0.18633
-0.186336
-0.187025
-0.189029
-0.191358
-0.192769
-0.195309
-0.197398
-0.199144
-0.200621
-0.201812
-0.202706
-0.203301
-0.203601
-0.203611
-0.203339
-0.202793
-0.201985
-0.200927
-0.199629
-0.198106
-0.19637
-0.194431
-0.192302
-0.189992
-0.187509
-0.184858
-0.182043
-0.179061
-0.175904
-0.172555
-0.168983
-0.165133
-0.160899
-0.156132
-0.150744
-0.144537
-0.135362
-0.118452
-0.105233
-0.227921
-0.219704
-0.215982
-0.214495
-0.214003
-0.213978
-0.214366
-0.214822
-0.215279
-0.215656
-0.215889
-0.215943
-0.215797
-0.21544
-0.214864
-0.214068
-0.213052
-0.211822
-0.210382
-0.208741
-0.206905
-0.204885
-0.202689
-0.200327
-0.197808
-0.195141
-0.192334
-0.189396
-0.186334
-0.183155
-0.179866
-0.176472
-0.172977
-0.169378
-0.165683
-0.161968
-0.158236
-0.153813
-0.147938
-0.144634
-0.226859
-0.221308
-0.217487
-0.215194
-0.213798
-0.21304
-0.212724
-0.212688
-0.21279
-0.212919
-0.213
-0.21298
-0.212823
-0.212502
-0.212002
-0.211312
-0.210427
-0.209346
-0.208071
-0.206605
-0.204954
-0.203125
-0.201126
-0.198966
-0.196654
-0.194201
-0.191615
-0.18891
-0.186094
-0.183183
-0.18019
-0.177132
-0.174031
-0.170916
-0.167835
-0.164869
-0.162084
-0.159561
-0.157815
-0.157239
-0.224926
-0.2218
-0.219107
-0.21701
-0.215389
-0.214222
-0.213443
-0.21295
-0.212639
-0.21242
-0.212225
-0.211994
-0.211686
-0.211266
-0.21071
-0.210003
-0.209133
-0.208093
-0.20688
-0.205495
-0.203941
-0.202221
-0.200341
-0.19831
-0.196135
-0.193827
-0.191397
-0.188856
-0.186217
-0.183498
-0.180714
-0.177889
-0.175049
-0.172228
-0.169477
-0.166846
-0.164401
-0.162402
-0.161381
-0.160128
-0.224746
-0.222555
-0.220465
-0.218635
-0.21704
-0.215717
-0.214667
-0.213848
-0.213201
-0.212667
-0.212189
-0.211717
-0.211211
-0.210635
-0.209964
-0.209176
-0.208257
-0.207195
-0.205985
-0.204623
-0.203109
-0.201445
-0.199634
-0.197682
-0.195597
-0.193387
-0.191064
-0.188639
-0.186126
-0.183541
-0.180904
-0.178237
-0.175567
-0.172929
-0.170364
-0.167908
-0.165616
-0.163762
-0.162727
-0.160672
-0.224496
-0.222634
-0.220841
-0.219231
-0.217742
-0.216405
-0.215245
-0.214251
-0.213395
-0.212641
-0.211949
-0.211281
-0.210603
-0.209883
-0.209095
-0.208219
-0.207237
-0.206137
-0.20491
-0.203551
-0.202056
-0.200425
-0.19866
-0.196765
-0.194746
-0.192611
-0.190369
-0.188031
-0.18561
-0.183123
-0.180586
-0.17802
-0.17545
-0.172905
-0.170418
-0.168009
-0.16572
-0.163807
-0.162554
-0.159915
-0.224253
-0.22251
-0.220864
-0.219387
-0.217981
-0.216662
-0.215457
-0.214367
-0.213378
-0.21247
-0.211617
-0.210791
-0.209965
-0.209113
-0.208211
-0.207241
-0.206186
-0.205031
-0.203769
-0.20239
-0.20089
-0.199269
-0.197525
-0.195661
-0.193681
-0.191593
-0.189403
-0.187121
-0.18476
-0.182332
-0.179853
-0.177342
-0.174817
-0.172304
-0.169825
-0.167389
-0.165028
-0.162973
-0.161451
-0.158384
-0.22402
-0.222295
-0.220699
-0.21928
-0.217913
-0.216604
-0.215372
-0.214221
-0.213143
-0.212124
-0.211149
-0.210196
-0.209245
-0.208276
-0.207268
-0.206205
-0.20507
-0.203852
-0.202539
-0.201124
-0.199602
-0.197968
-0.196223
-0.194367
-0.192402
-0.190335
-0.18817
-0.185917
-0.183584
-0.181184
-0.17873
-0.176235
-0.173717
-0.171193
-0.168681
-0.16618
-0.163715
-0.161496
-0.159713
-0.156343
-0.223732
-0.221978
-0.220378
-0.218967
-0.217607
-0.216289
-0.21503
-0.21383
-0.212683
-0.21158
-0.210508
-0.209452
-0.208397
-0.207325
-0.20622
-0.205067
-0.203853
-0.202566
-0.201195
-0.199732
-0.198172
-0.19651
-0.194745
-0.192877
-0.190906
-0.188837
-0.186674
-0.184424
-0.182095
-0.179696
-0.177237
-0.174731
-0.17219
-0.169628
-0.167056
-0.164472
-0.161892
-0.159511
-0.157488
-0.153907
-0.223363
-0.221554
-0.219921
-0.218489
-0.217109
-0.215766
-0.214471
-0.213223
-0.212016
-0.21084
-0.209687
-0.208543
-0.207397
-0.206233
-0.20504
-0.203802
-0.202509
-0.201149
-0.199714
-0.198195
-0.196586
-0.194882
-0.193082
-0.191184
-0.189189
-0.187099
-0.184917
-0.182649
-0.180301
-0.17788
-0.175396
-0.172856
-0.170271
-0.167652
-0.165007
-0.16233
-0.159635
-0.157099
-0.154862
-0.151137
-0.222898
-0.221021
-0.219336
-0.217864
-0.216445
-0.215062
-0.213722
-0.212422
-0.211155
-0.209912
-0.208684
-0.207461
-0.206232
-0.204984
-0.203706
-0.202387
-0.201015
-0.199581
-0.198077
-0.196494
-0.194826
-0.19307
-0.191222
-0.18928
-0.187245
-0.185117
-0.182899
-0.180595
-0.17821
-0.175749
-0.17322
-0.17063
-0.167986
-0.165298
-0.162571
-0.159798
-0.156992
-0.154314
-0.151884
-0.148063
-0.22233
-0.220373
-0.218625
-0.217098
-0.215628
-0.214193
-0.212798
-0.211441
-0.210111
-0.2088
-0.2075
-0.2062
-0.204892
-0.203563
-0.202203
-0.200803
-0.199353
-0.197843
-0.196265
-0.194612
-0.192878
-0.19106
-0.189152
-0.187154
-0.185065
-0.182885
-0.180616
-0.178261
-0.175824
-0.173309
-0.170722
-0.168068
-0.165355
-0.162589
-0.159775
-0.156907
-0.153995
-0.151186
-0.148582
-0.144704
-0.221653
-0.219608
-0.217787
-0.216197
-0.214664
-0.213167
-0.21171
-0.210287
-0.208889
-0.207508
-0.206134
-0.204758
-0.20337
-0.20196
-0.20052
-0.199038
-0.197506
-0.195917
-0.194261
-0.192533
-0.190726
-0.188836
-0.18686
-0.184795
-0.182641
-0.180397
-0.178064
-0.175646
-0.173143
-0.170562
-0.167905
-0.165179
-0.162389
-0.15954
-0.156637
-0.153675
-0.150664
-0.147734
-0.144974
-0.141064
-0.220864
-0.218725
-0.216824
-0.215161
-0.213557
-0.211989
-0.210461
-0.208966
-0.207495
-0.206038
-0.204586
-0.20313
-0.201661
-0.200169
-0.198644
-0.197079
-0.195463
-0.19379
-0.192051
-0.190242
-0.188355
-0.186386
-0.184333
-0.182192
-0.179962
-0.177644
-0.175237
-0.172743
-0.170166
-0.167508
-0.164774
-0.161968
-0.159094
-0.15616
-0.153167
-0.150113
-0.147008
-0.143967
-0.141065
-0.137144
-0.21996
-0.217722
-0.215735
-0.213993
-0.21231
-0.210663
-0.209056
-0.207481
-0.20593
-0.204391
-0.202856
-0.201316
-0.199761
-0.198182
-0.196569
-0.194915
-0.193211
-0.19145
-0.189623
-0.187725
-0.185751
-0.183697
-0.181558
-0.179332
-0.177018
-0.174616
-0.172125
-0.169548
-0.166888
-0.164146
-0.161326
-0.158434
-0.155474
-0.152451
-0.149369
-0.146226
-0.143032
-0.139887
-0.136855
-0.132939
-0.218941
-0.216599
-0.214523
-0.212695
-0.210926
-0.209192
-0.207498
-0.205836
-0.204196
-0.202568
-0.200943
-0.199312
-0.197665
-0.195993
-0.194287
-0.192539
-0.190741
-0.188885
-0.186964
-0.184972
-0.182904
-0.180755
-0.178523
-0.176204
-0.173798
-0.171303
-0.168721
-0.166053
-0.163301
-0.160468
-0.157559
-0.154576
-0.151526
-0.148413
-0.145242
-0.142013
-0.138734
-0.135493
-0.132342
-0.128443
-0.217804
-0.215359
-0.213191
-0.211272
-0.209408
-0.207579
-0.205788
-0.204029
-0.202291
-0.200565
-0.198842
-0.197112
-0.195366
-0.193594
-0.191788
-0.189939
-0.188039
-0.186082
-0.184059
-0.181966
-0.179796
-0.177546
-0.175213
-0.172794
-0.170287
-0.167694
-0.165013
-0.162246
-0.159397
-0.156468
-0.153463
-0.150387
-0.147244
-0.144041
-0.140782
-0.137469
-0.134111
-0.13078
-0.127518
-0.123645
-0.216557
-0.214015
-0.211755
-0.209737
-0.20777
-0.205833
-0.203935
-0.202067
-0.200221
-0.198387
-0.196555
-0.194717
-0.192862
-0.190981
-0.189067
-0.187109
-0.1851
-0.183033
-0.180902
-0.178699
-0.17642
-0.174061
-0.171619
-0.169092
-0.166478
-0.163778
-0.160991
-0.15812
-0.155168
-0.152138
-0.149034
-0.145861
-0.142624
-0.13933
-0.135984
-0.132589
-0.129155
-0.125739
-0.122375
-0.118536
-0.215214
-0.212601
-0.210258
-0.208135
-0.206053
-0.203998
-0.201978
-0.19999
-0.198023
-0.196069
-0.194118
-0.19216
-0.190187
-0.188188
-0.186155
-0.184079
-0.181953
-0.179767
-0.177517
-0.175196
-0.172799
-0.170323
-0.167763
-0.165119
-0.162389
-0.159573
-0.156673
-0.153691
-0.150629
-0.147492
-0.144283
-0.141009
-0.137676
-0.134289
-0.130855
-0.127379
-0.12387
-0.120373
-0.11691
-0.113108
-0.213706
-0.211033
-0.208596
-0.206343
-0.204117
-0.201917
-0.199753
-0.197623
-0.195517
-0.193427
-0.191342
-0.189253
-0.187149
-0.185022
-0.182862
-0.18066
-0.178407
-0.176097
-0.173722
-0.171277
-0.168757
-0.166158
-0.163478
-0.160713
-0.157865
-0.154933
-0.151918
-0.148824
-0.145653
-0.14241
-0.1391
-0.135729
-0.132303
-0.128829
-0.125314
-0.121765
-0.11819
-0.11462
-0.111069
-0.107311
-0.212439
-0.209472
-0.20677
-0.204279
-0.201835
-0.199431
-0.197079
-0.194771
-0.192498
-0.190247
-0.188007
-0.185769
-0.183521
-0.181253
-0.178955
-0.176618
-0.174233
-0.171793
-0.169291
-0.166721
-0.164078
-0.161359
-0.15856
-0.155681
-0.15272
-0.149678
-0.146557
-0.14336
-0.140091
-0.136754
-0.133354
-0.129899
-0.126395
-0.122849
-0.11927
-0.115664
-0.112042
-0.108419
-0.104806
-0.101134
-0.214868
-0.211108
-0.208019
-0.205322
-0.202721
-0.200184
-0.197709
-0.195282
-0.192886
-0.190506
-0.188131
-0.185747
-0.183343
-0.180909
-0.178435
-0.175912
-0.173331
-0.170685
-0.167967
-0.165174
-0.1623
-0.159344
-0.156302
-0.153175
-0.149964
-0.14667
-0.143297
-0.139848
-0.13633
-0.132747
-0.129107
-0.125418
-0.121687
-0.117923
-0.114135
-0.110332
-0.106523
-0.10271
-0.0988825
-0.0951148
-0.213408
-0.209309
-0.205929
-0.202968
-0.200119
-0.197348
-0.194654
-0.19202
-0.189424
-0.186852
-0.18429
-0.181725
-0.179143
-0.176535
-0.17389
-0.171198
-0.168452
-0.165643
-0.162766
-0.159815
-0.156787
-0.15368
-0.150491
-0.147222
-0.143873
-0.140446
-0.136945
-0.133376
-0.129744
-0.126055
-0.122317
-0.118538
-0.114726
-0.110891
-0.107043
-0.103192
-0.0993471
-0.0954948
-0.0916226
-0.0879704
-0.211481
-0.207239
-0.203734
-0.200606
-0.197573
-0.194616
-0.191738
-0.18892
-0.186144
-0.183395
-0.180656
-0.177916
-0.175162
-0.172381
-0.169564
-0.166701
-0.163784
-0.160805
-0.157758
-0.154639
-0.151444
-0.14817
-0.144818
-0.141388
-0.137881
-0.1343
-0.130652
-0.12694
-0.123171
-0.119353
-0.115494
-0.111603
-0.10769
-0.103762
-0.0998319
-0.0959114
-0.092009
-0.0880962
-0.08415
-0.0805547
-0.209468
-0.205035
-0.201406
-0.19812
-0.194908
-0.191768
-0.188704
-0.185699
-0.182735
-0.179797
-0.17687
-0.173941
-0.170998
-0.168028
-0.165021
-0.161968
-0.158861
-0.155692
-0.152457
-0.14915
-0.145768
-0.142311
-0.138778
-0.135171
-0.131492
-0.127745
-0.123936
-0.120071
-0.116158
-0.112205
-0.108221
-0.104216
-0.100199
-0.0961805
-0.0921717
-0.0881871
-0.0842347
-0.0802719
-0.0762659
-0.0727467
-0.207306
-0.20261
-0.198841
-0.195388
-0.19199
-0.18866
-0.185405
-0.182206
-0.179047
-0.175911
-0.172786
-0.169658
-0.166513
-0.163342
-0.160133
-0.156877
-0.153567
-0.150196
-0.146759
-0.143252
-0.139673
-0.136021
-0.132297
-0.128504
-0.124645
-0.120725
-0.11675
-0.112729
-0.108669
-0.10458
-0.100471
-0.0963537
-0.0922376
-0.0881333
-0.0840524
-0.0800111
-0.0760172
-0.072014
-0.0679578
-0.0645235
-0.205016
-0.199991
-0.196081
-0.192453
-0.188859
-0.185332
-0.181877
-0.178477
-0.175112
-0.17177
-0.168435
-0.165094
-0.161736
-0.158349
-0.154923
-0.151449
-0.147921
-0.144332
-0.140678
-0.136956
-0.133165
-0.129304
-0.125377
-0.121386
-0.117337
-0.113235
-0.109088
-0.104905
-0.100694
-0.0964674
-0.0922343
-0.0880062
-0.0837942
-0.0796088
-0.0754622
-0.071372
-0.0673459
-0.0633129
-0.0592163
-0.0558744
-0.202616
-0.197183
-0.193136
-0.189327
-0.185526
-0.18179
-0.178126
-0.174513
-0.170932
-0.167369
-0.16381
-0.160243
-0.156654
-0.153035
-0.149374
-0.145665
-0.1419
-0.138075
-0.134186
-0.130232
-0.126212
-0.122128
-0.117983
-0.113783
-0.109532
-0.10524
-0.100914
-0.0965638
-0.0922007
-0.0878355
-0.0834796
-0.0791447
-0.0748423
-0.0705833
-0.0663796
-0.0622503
-0.0582035
-0.0541548
-0.0500306
-0.0467867
-0.200067
-0.194205
-0.19001
-0.18601
-0.18199
-0.178036
-0.174152
-0.170314
-0.166503
-0.162705
-0.158907
-0.155095
-0.151257
-0.147385
-0.143469
-0.139503
-0.13548
-0.131398
-0.127254
-0.123048
-0.118781
-0.114457
-0.11008
-0.105657
-0.101195
-0.0967028
-0.0921916
-0.0876717
-0.0831548
-0.0786528
-0.0741777
-0.0697415
-0.0653564
-0.0610328
-0.0567815
-0.0526222
-0.0485674
-0.044526
-0.0403993
-0.0372418
-0.197276
-0.191107
-0.186714
-0.182501
-0.178257
-0.174076
-0.16996
-0.165885
-0.16183
-0.15778
-0.153723
-0.149645
-0.145536
-0.141387
-0.137191
-0.132942
-0.128637
-0.124273
-0.11985
-0.115369
-0.110835
-0.106252
-0.101626
-0.0969664
-0.0922818
-0.0875831
-0.0828819
-0.07819
-0.0735197
-0.0688845
-0.0642962
-0.0597662
-0.0553081
-0.050933
-0.0466468
-0.0424645
-0.0384237
-0.0344476
-0.0302656
-0.0271353
-0.194256
-0.18789
-0.183254
-0.178803
-0.174332
-0.169919
-0.165561
-0.161234
-0.156918
-0.152596
-0.148257
-0.143888
-0.139479
-0.135024
-0.130517
-0.125955
-0.121337
-0.116661
-0.111932
-0.107152
-0.102327
-0.0974642
-0.0925728
-0.0876629
-0.0827454
-0.0778326
-0.0729381
-0.0680743
-0.0632532
-0.0584921
-0.0538051
-0.0492023
-0.0446952
-0.0403004
-0.0360032
-0.0318377
-0.0279161
-0.0243094
-0.0192643
-0.0164573
-0.191052
-0.184539
-0.179636
-0.174921
-0.170221
-0.165578
-0.160971
-0.156378
-0.15178
-0.147162
-0.142511
-0.137817
-0.133074
-0.128275
-0.12342
-0.118507
-0.113538
-0.108517
-0.103449
-0.09834
-0.0931988
-0.0880351
-0.0828599
-0.0776861
-0.0725262
-0.0673928
-0.0623048
-0.0572769
-0.0523202
-0.0474554
-0.0427065
-0.038024
-0.0335254
-0.0291669
-0.024731
-0.0205722
-0.0166572
-0.012779
-0.00863652
-0.00589566
-0.187719
-0.180999
-0.175864
-0.170919
-0.165933
-0.16107
-0.156205
-0.151339
-0.146437
-0.14149
-0.136489
-0.131426
-0.1263
-0.12111
-0.115859
-0.110549
-0.105186
-0.0997787
-0.0943347
-0.0888641
-0.0833787
-0.0778911
-0.0724141
-0.0669657
-0.0615611
-0.0562133
-0.0509523
-0.0458041
-0.0406904
-0.0358096
-0.0311376
-0.0259523
-0.0215405
-0.0172095
-0.0129735
-0.00892816
-0.00507364
-0.00123806
0.00273775
0.00525051
-0.184216
-0.177279
-0.171869
-0.166768
-0.161642
-0.156512
-0.151269
-0.146138
-0.140904
-0.135585
-0.130188
-0.124702
-0.119132
-0.113485
-0.107775
-0.102012
-0.0962031
-0.0903617
-0.0845008
-0.0786336
-0.0727775
-0.0669496
-0.0611651
-0.0554528
-0.0498359
-0.0442544
-0.0388983
-0.0338132
-0.0279508
-0.0231252
-0.0183434
-0.013613
-0.00911896
-0.00480343
-0.000662996
0.00327201
0.00700032
0.0106979
0.0145366
0.0168116
-0.180519
-0.173393
-0.167779
-0.162513
-0.157194
-0.151842
-0.146433
-0.140968
-0.135238
-0.129424
-0.123594
-0.117573
-0.11151
-0.105336
-0.0990898
-0.0927998
-0.086483
-0.080157
-0.0738418
-0.0675537
-0.0613186
-0.0551623
-0.0490511
-0.0431119
-0.0374128
-0.0311229
-0.0256239
-0.0202801
-0.0149822
-0.00995216
-0.00510891
-0.000457412
0.00397764
0.00819332
0.0121927
0.0159614
0.0195048
0.023011
0.0266645
0.0286879
-0.176582
-0.169354
-0.16365
-0.158316
-0.152869
-0.147294
-0.141562
-0.13564
-0.129506
-0.123234
-0.116907
-0.109834
-0.103323
-0.0964828
-0.0896715
-0.0827883
-0.0759023
-0.0690516
-0.0622696
-0.0555351
-0.0489113
-0.042505
-0.035738
-0.0293874
-0.0233798
-0.0174402
-0.0117456
-0.00625483
-0.000976065
0.00406505
0.00885986
0.0134068
0.0177009
0.0217437
0.0255391
0.029078
0.032372
0.0356204
0.0390231
0.0407693
-0.172262
-0.165178
-0.159582
-0.154331
-0.148828
-0.143017
-0.13688
-0.130408
-0.123629
-0.116594
-0.109374
-0.102019
-0.0949012
-0.0865147
-0.0792752
-0.071793
-0.064288
-0.0568949
-0.0496707
-0.0422527
-0.0349109
-0.0281322
-0.0214255
-0.0149281
-0.00866295
-0.00262497
0.0031615
0.00868118
0.013925
0.0188823
0.0235477
0.0279204
0.0320011
0.035795
0.0393088
0.0425382
0.0454991
0.0483966
0.051449
0.0528792
-0.167586
-0.161209
-0.156026
-0.151025
-0.145481
-0.139309
-0.132558
-0.125295
-0.117614
-0.109618
-0.1014
-0.0930613
-0.0847271
-0.0762767
-0.0680294
-0.0596525
-0.0512069
-0.0431045
-0.0352416
-0.0275537
-0.0200825
-0.012882
-0.00591928
0.000777543
0.00718464
0.0132886
0.0190766
0.0245392
0.0296699
0.0344637
0.0389193
0.0430374
0.0468214
0.0502794
0.0534209
0.0562465
0.0587744
0.0611993
0.0637519
0.0648067
-0.162913
-0.158639
-0.154535
-0.149849
-0.144021
-0.137078
-0.129237
-0.120716
-0.111713
-0.102403
-0.0929244
-0.0833859
-0.0738774
-0.0644596
-0.0551434
-0.0459239
-0.0369065
-0.0281973
-0.019771
-0.0116287
-0.00379475
0.00371603
0.0108921
0.017719
0.0241807
0.0302675
0.0359748
0.0412997
0.0462363
0.0507828
0.054943
0.0587215
0.0621236
0.0651582
0.0678367
0.0701645
0.0721535
0.07394
0.0757059
0.0761905
-0.154237
-0.155519
-0.153671
-0.14902
-0.142232
-0.133819
-0.124284
-0.11404
-0.103392
-0.0925602
-0.0816979
-0.0709119
-0.0602943
-0.0498783
-0.0395793
-0.0295905
-0.0199868
-0.0107887
-0.0019731
0.0064708
0.0145201
0.0221603
0.0293863
0.0361934
0.042564
0.048484
0.05396
0.059006
0.0636267
0.0678104
0.0715586
0.0748793
0.0777769
0.0802523
0.0823065
0.0839345
0.0850998
0.0857511
0.0858845
0.0851031
-0.147818
-0.154334
-0.152234
-0.145294
-0.13583
-0.124869
-0.113065
-0.100876
-0.0885928
-0.0763959
-0.0643925
-0.0526585
-0.0413823
-0.030526
-0.0195278
-0.00927589
0.000500823
0.00983035
0.0187033
0.027144
0.0351204
0.0425932
0.0495793
0.0561022
0.0621512
0.0676749
0.0727195
0.0773396
0.0814397
0.0851112
0.0883147
0.0910412
0.0932893
0.0950396
0.0962612
0.0969078
0.0968089
0.0955214
0.0929012
0.09043
-0.24248
-0.227736
-0.214076
-0.198173
-0.180877
-0.163151
-0.14538
-0.127796
-0.11057
-0.0938165
-0.0776065
-0.0619818
-0.0469798
-0.0326519
-0.0189723
-0.00601895
0.00622573
0.0177195
0.0284522
0.0385083
0.0479119
0.0565299
0.0644061
0.0717271
0.0782225
0.084023
0.0894525
0.0948242
0.0986561
0.102081
0.105043
0.107478
0.1094
0.110825
0.111777
0.112317
0.112387
0.111439
0.109899
0.115074
-0.245735
-0.21729
-0.194372
-0.173049
-0.151823
-0.131246
-0.11147
-0.0924996
-0.0743531
-0.0570443
-0.0406037
-0.0250336
-0.0102848
0.00360954
0.0166094
0.0287856
0.0401899
0.0506264
0.0600477
0.0693138
0.0772481
0.0845718
0.0913132
0.0986819
0.103592
0.108181
0.112318
0.11592
0.118892
0.121384
0.123434
0.125045
0.126249
0.127089
0.127631
0.12798
0.128151
0.127849
0.127893
0.133984
-0.233864
-0.199239
-0.173255
-0.149453
-0.126229
-0.104062
-0.0830357
-0.0631091
-0.0442503
-0.0264327
-0.00972204
0.00587827
0.0205108
0.0341745
0.0467445
0.0584427
0.0692576
0.0787528
0.0860023
0.0988183
0.104464
0.110663
0.116514
0.121725
0.126091
0.129894
0.133171
0.13589
0.138092
0.139831
0.141156
0.142107
0.142732
0.143085
0.14324
0.143296
0.143244
0.142834
0.142923
0.148135
-0.214382
-0.175875
-0.148828
-0.12338
-0.0986673
-0.0752856
-0.0532618
-0.032596
-0.0132305
0.00494777
0.0217384
0.0370344
0.0518784
0.0648546
0.0767575
0.0888884
0.0995899
0.108418
0.116289
0.123949
0.130114
0.135632
0.140569
0.144769
0.148279
0.151182
0.153536
0.155372
0.156736
0.157683
0.158265
0.158532
0.158536
0.15833
0.157983
0.157575
0.157068
0.156226
0.15587
0.159937
-0.18871
-0.146838
-0.119239
-0.092429
-0.0666304
-0.0424491
-0.0198142
0.00115529
0.020575
0.0389177
0.0552372
0.0688066
0.0876447
0.0986996
0.109767
0.120126
0.129274
0.137326
0.144504
0.150746
0.15608
0.160619
0.164447
0.167577
0.170055
0.171951
0.173323
0.174223
0.174704
0.174819
0.174621
0.17416
0.173486
0.172647
0.171701
0.170707
0.169613
0.168208
0.167291
0.170245
-0.157716
-0.114143
-0.0859648
-0.0580065
-0.0316787
-0.00679624
0.0160735
0.0369813
0.0565643
0.0768028
0.0923016
0.10656
0.120179
0.131653
0.142018
0.15132
0.159419
0.16641
0.172419
0.177488
0.181665
0.185041
0.187694
0.189681
0.191062
0.191904
0.192267
0.192208
0.191782
0.191043
0.19004
0.188822
0.187433
0.185916
0.184318
0.182686
0.180957
0.178954
0.177454
0.17936
-0.122888
-0.0786195
-0.0496592
-0.0204187
0.00578998
0.0331633
0.0564795
0.0772444
0.0962401
0.113605
0.128878
0.142651
0.154858
0.165507
0.17479
0.182818
0.18963
0.195315
0.199981
0.203715
0.206591
0.208696
0.210111
0.210904
0.211145
0.210898
0.210227
0.20919
0.207842
0.206233
0.204413
0.202423
0.200305
0.198094
0.19583
0.193549
0.191189
0.188602
0.18653
0.187443
-0.0844697
-0.0395487
-0.00889075
0.0221437
0.0493719
0.0746324
0.0972679
0.117726
0.13618
0.152554
0.166955
0.179577
0.190503
0.199809
0.207658
0.214179
0.219478
0.223666
0.226854
0.22914
0.230617
0.231375
0.231496
0.231055
0.230124
0.228771
0.227055
0.225036
0.222766
0.220292
0.217658
0.214904
0.212064
0.209169
0.206253
0.203343
0.200378
0.197243
0.194627
0.194606
-0.0421034
0.00470537
0.0360307
0.0661755
0.0936021
0.11837
0.140579
0.160358
0.177811
0.193001
0.206048
0.217132
0.226414
0.234041
0.240181
0.244987
0.248594
0.251132
0.25272
0.253467
0.253473
0.252831
0.251624
0.249931
0.247822
0.245363
0.242614
0.239628
0.236455
0.233138
0.229716
0.226225
0.222692
0.219143
0.215608
0.212105
0.20858
0.20494
0.201816
0.200925
0.00379234
0.0519961
0.0832601
0.113174
0.140432
0.1647
0.186115
0.204774
0.220796
0.234338
0.245591
0.254769
0.262085
0.26774
0.271926
0.27482
0.276578
0.277342
0.277238
0.276382
0.274876
0.272811
0.270272
0.267335
0.264067
0.26053
0.256779
0.252864
0.248828
0.24471
0.240544
0.236358
0.232177
0.228021
0.223913
0.219867
0.215832
0.211738
0.208148
0.206457
0.0530218
0.102267
0.133408
0.163132
0.189966
0.21336
0.233497
0.250525
0.264627
0.276045
0.285055
0.291937
0.296958
0.300364
0.302377
0.303192
0.302979
0.301886
0.300041
0.297559
0.294538
0.291067
0.287226
0.283084
0.278703
0.27414
0.269444
0.264657
0.259818
0.254958
0.250106
0.245285
0.240514
0.235808
0.231185
0.226653
0.222165
0.217671
0.213661
0.211245
0.105648
0.155783
0.186762
0.216078
0.242093
0.264107
0.282375
0.297148
0.308726
0.31747
0.323755
0.32794
0.33035
0.331269
0.330938
0.329563
0.327315
0.324338
0.320756
0.316673
0.312182
0.307362
0.302283
0.297009
0.291592
0.286081
0.280517
0.274937
0.26937
0.263844
0.258379
0.252994
0.247701
0.242511
0.237437
0.232482
0.227604
0.222766
0.218387
0.215325
0.161935
0.21288
0.243566
0.272113
0.296718
0.316617
0.332208
0.343933
0.352267
0.357723
0.360794
0.361916
0.361458
0.359725
0.356961
0.353363
0.349091
0.344274
0.339019
0.333418
0.327549
0.321479
0.315266
0.308963
0.302613
0.296256
0.289924
0.283645
0.277444
0.27134
0.265346
0.259476
0.253738
0.248138
0.242683
0.237371
0.232167
0.227044
0.222349
0.218723
0.222364
0.274051
0.304201
0.331332
0.353581
0.370278
0.382106
0.389802
0.394082
0.395636
0.395063
0.392851
0.389383
0.38495
0.379774
0.374024
0.36783
0.361294
0.354501
0.347522
0.340416
0.333236
0.326027
0.318829
0.311674
0.304593
0.29761
0.290744
0.284013
0.277428
0.270999
0.264732
0.258631
0.252698
0.246934
0.241336
0.235872
0.230523
0.225568
0.221463
0.287725
0.339937
0.369065
0.393605
0.411973
0.423905
0.430575
0.433131
0.432566
0.429717
0.425238
0.419607
0.413166
0.406151