/*--------------------------------*- C++ -*----------------------------------*\
  =========                 |
  \\      /  F ield         | OpenFOAM: The Open Source CFD Toolbox
   \\    /   O peration     | Website:  https://openfoam.org
    \\  /    A nd           | Version:  7
     \\/     M anipulation  |
\*---------------------------------------------------------------------------*/
FoamFile
{
    version     2.0;
    format      ascii;
    class       surfaceScalarField;
    location    "5";
    object      phi;
}
// * * * * * * * * * * * * * * * * * * * * * * * * * * * * * * * * * * * * * //

dimensions      [0 3 -1 0 0 0 0];

internalField   nonuniform List<scalar> 
23750
(
1.56687e-06
-1.56687e-06
-5.85513e-15
5.5975e-06
-4.03063e-06
-2.99734e-14
1.13229e-05
-5.72541e-06
-2.58179e-14
1.83506e-05
-7.02767e-06
-4.05596e-14
2.64784e-05
-8.12781e-06
-2.50606e-14
3.56132e-05
-9.13475e-06
-1.67873e-14
4.57103e-05
-1.00972e-05
-1.2116e-14
5.67485e-05
-1.10382e-05
1.01167e-15
6.87186e-05
-1.19701e-05
2.07255e-14
8.16186e-05
-1.28999e-05
3.43539e-14
9.54502e-05
-1.38317e-05
4.61295e-14
0.000110218
-1.47681e-05
6.15649e-14
0.000125929
-1.5711e-05
8.01508e-14
0.000142591
-1.6662e-05
9.80431e-14
0.000160213
-1.76221e-05
1.14489e-13
0.000178806
-1.85923e-05
1.32633e-13
0.000198379
-1.9573e-05
1.54478e-13
0.000218943
-2.05646e-05
1.78185e-13
0.00024051
-2.1567e-05
2.00298e-13
0.00026309
-2.25799e-05
2.19687e-13
0.000286693
-2.36024e-05
2.37954e-13
0.000311326
-2.46332e-05
2.57839e-13
0.000336997
-2.56707e-05
2.80716e-13
0.000363709
-2.67124e-05
3.05459e-13
0.000391464
-2.77555e-05
3.29878e-13
0.00042026
-2.8796e-05
3.52804e-13
0.00045009
-2.98297e-05
3.74576e-13
0.000480941
-3.08508e-05
3.95921e-13
0.000512794
-3.18531e-05
4.16596e-13
0.000545623
-3.28289e-05
4.35638e-13
0.000579393
-3.37696e-05
4.53545e-13
0.000614058
-3.46651e-05
4.72811e-13
0.000649562
-3.55043e-05
4.94782e-13
0.000685836
-3.62743e-05
5.16591e-13
0.000722798
-3.69614e-05
5.33932e-13
0.000760348
-3.75504e-05
5.47496e-13
0.000798373
-3.80245e-05
5.6281e-13
0.000836737
-3.83649e-05
5.81151e-13
0.000875293
-3.85552e-05
5.97596e-13
-3.85825e-05
6.10773e-13
0.000913875
2.7927e-07
-1.84614e-06
2.56046e-06
-6.31183e-06
6.67494e-06
-9.83989e-06
1.23954e-05
-1.27481e-05
1.95096e-05
-1.5242e-05
2.78578e-05
-1.7483e-05
3.73331e-05
-1.95724e-05
4.78681e-05
-2.15732e-05
5.94229e-05
-2.35249e-05
7.19748e-05
-2.54519e-05
8.5513e-05
-2.73699e-05
0.000100034
-2.92889e-05
0.000115539
-3.12158e-05
0.000132032
-3.31555e-05
0.000149521
-3.51114e-05
0.000168015
-3.7086e-05
0.000187523
-3.90812e-05
0.000208057
-4.1098e-05
0.000229626
-4.31367e-05
0.000252243
-4.51968e-05
0.000275918
-4.7277e-05
0.00030066
-4.93751e-05
0.000326477
-5.14879e-05
0.000353376
-5.36109e-05
0.000381359
-5.57384e-05
0.000410425
-5.78629e-05
0.000440571
-5.99757e-05
0.000471786
-6.20658e-05
0.000504054
-6.41205e-05
0.000537349
-6.61245e-05
0.00057164
-6.80604e-05
0.000606883
-6.99078e-05
0.000643023
-7.1644e-05
0.000679991
-7.32429e-05
0.000717706
-7.46759e-05
0.000756067
-7.59116e-05
0.000794958
-7.69155e-05
0.000834242
-7.76486e-05
0.000873761
-7.80743e-05
-7.81729e-05
0.000913351
3.08926e-07
-2.15507e-06
1.85666e-06
-7.85956e-06
4.89799e-06
-1.28812e-05
9.47919e-06
-1.73293e-05
1.55347e-05
-2.12974e-05
2.29627e-05
-2.4911e-05
3.16649e-05
-2.82746e-05
4.15609e-05
-3.14693e-05
5.25912e-05
-3.45552e-05
6.47148e-05
-3.75755e-05
7.79054e-05
-4.05605e-05
9.21479e-05
-4.35314e-05
0.000107435
-4.65033e-05
0.000123767
-4.94869e-05
0.000141146
-5.24901e-05
0.000159578
-5.55185e-05
0.000179073
-5.85761e-05
0.00019964
-6.16655e-05
0.000221292
-6.4788e-05
0.000244039
-6.79436e-05
0.000267893
-7.11312e-05
0.000292865
-7.43477e-05
0.000318966
-7.7589e-05
0.000346204
-8.08487e-05
0.000374584
-8.41187e-05
0.00040411
-8.73882e-05
0.000434778
-9.06443e-05
0.000466584
-9.3871e-05
0.000499512
-9.70489e-05
0.000533543
-0.000100156
0.000568647
-0.000103164
0.000604783
-0.000106044
0.0006419
-0.000108761
0.00067993
-0.000111273
0.000718793
-0.000113538
0.000758387
-0.000115506
0.000798595
-0.000117123
0.000839272
-0.000118326
0.000880252
-0.000119055
-0.000119284
0.000921364
2.76363e-07
-2.43143e-06
1.55423e-06
-9.13742e-06
4.05831e-06
-1.53853e-05
7.92049e-06
-2.11915e-05
1.31846e-05
-2.65615e-05
1.98333e-05
-3.15597e-05
2.78194e-05
-3.62608e-05
3.70872e-05
-4.07371e-05
4.75843e-05
-4.50523e-05
5.92675e-05
-4.92586e-05
7.21042e-05
-5.33972e-05
8.60723e-05
-5.74994e-05
0.000101158
-6.15891e-05
0.000117355
-6.5684e-05
0.000134663
-6.97978e-05
0.000153085
-7.39405e-05
0.000172628
-7.81194e-05
0.000193302
-8.23396e-05
0.000215119
-8.66044e-05
0.00023809
-9.09148e-05
0.000262229
-9.52701e-05
0.000287549
-9.96677e-05
0.000314062
-0.000104102
0.00034178
-0.000108567
0.000370712
-0.00011305
0.000400864
-0.00011754
0.000432238
-0.000122019
0.000464832
-0.000126465
0.000498637
-0.000130854
0.000533638
-0.000135156
0.000569808
-0.000139335
0.000607113
-0.000143349
0.000645503
-0.00014715
0.000684915
-0.000150685
0.000725268
-0.000153892
0.000766464
-0.000156702
0.00080838
-0.000159039
0.000850868
-0.000160814
0.000893752
-0.000161939
-0.00016239
0.000936858
2.80112e-07
-2.71154e-06
1.45949e-06
-1.03168e-05
3.70815e-06
-1.76339e-05
7.16091e-06
-2.46443e-05
1.19068e-05
-3.13074e-05
1.79853e-05
-3.76382e-05
2.53994e-05
-4.36749e-05
3.41302e-05
-4.94679e-05
4.41486e-05
-5.50706e-05
5.54237e-05
-6.05337e-05
6.79279e-05
-6.59015e-05
8.16397e-05
-7.12112e-05
9.65438e-05
-7.64932e-05
0.000112632
-8.17718e-05
0.0001299
-8.70661e-05
0.00014835
-9.23911e-05
0.000167989
-9.77581e-05
0.000188825
-0.000103176
0.00021087
-0.000108649
0.000234137
-0.000114182
0.000258641
-0.000119774
0.000284397
-0.000125424
0.000311421
-0.000131126
0.000339726
-0.000136872
0.000369327
-0.000142651
0.000400234
-0.000148447
0.000432454
-0.000154238
0.00046599
-0.000160001
0.000500838
-0.000165703
0.00053699
-0.000171308
0.000574425
-0.000176769
0.000613112
-0.000182036
0.000653009
-0.000187047
0.000694057
-0.000191733
0.000736177
-0.000196013
0.000779273
-0.000199798
0.000823221
-0.000202987
0.000867867
-0.00020546
0.000913028
-0.0002071
-0.000207896
0.000958533
2.98309e-07
-3.00985e-06
1.46485e-06
-1.14833e-05
3.61736e-06
-1.97865e-05
6.86952e-06
-2.78964e-05
1.13176e-05
-3.57555e-05
1.70278e-05
-4.33484e-05
2.40374e-05
-5.06845e-05
3.23601e-05
-5.77906e-05
4.19936e-05
-6.47041e-05
5.29266e-05
-7.14667e-05
6.51447e-05
-7.81196e-05
7.8634e-05
-8.47004e-05
9.33834e-05
-9.12426e-05
0.000109386
-9.77745e-05
0.00012664
-0.00010432
0.000145146
-0.000110897
0.000164911
-0.000117523
0.000185944
-0.000124209
0.000208258
-0.000130963
0.000231866
-0.00013779
0.000256786
-0.000144694
0.000283035
-0.000151673
0.000310632
-0.000158723
0.000339594
-0.000165835
0.00036994
-0.000172997
0.000401685
-0.000180191
0.000434841
-0.000187395
0.000469418
-0.000194578
0.00050542
-0.000201705
0.000542843
-0.000208731
0.000581675
-0.000215601
0.000621893
-0.000222254
0.00066346
-0.000228614
0.000706322
-0.000234595
0.000750408
-0.000240099
0.000795623
-0.000245012
0.000841843
-0.000249207
0.000888911
-0.000252528
0.000936638
-0.000254827
-0.000256118
0.00098486
3.15122e-07
-3.32497e-06
1.50237e-06
-1.26706e-05
3.64029e-06
-2.19244e-05
6.81738e-06
-3.10735e-05
1.11202e-05
-4.00583e-05
1.66218e-05
-4.885e-05
2.3377e-05
-5.74397e-05
3.14219e-05
-6.58355e-05
4.07769e-05
-7.40591e-05
5.14508e-05
-8.21406e-05
6.34451e-05
-9.01139e-05
7.6758e-05
-9.80133e-05
9.13869e-05
-0.000105872
0.000107331
-0.000113718
0.000124591
-0.00012158
0.000143171
-0.000129478
0.00016308
-0.000137432
0.000184329
-0.000145457
0.00020693
-0.000153564
0.0002309
-0.000161761
0.000256258
-0.000170052
0.000283025
-0.00017844
0.000311221
-0.000186919
0.00034087
-0.000195483
0.000371992
-0.000204119
0.000404609
-0.000212808
0.00043874
-0.000221526
0.000474402
-0.00023024
0.000511604
-0.000238908
0.000550353
-0.000247479
0.000590645
-0.000255893
0.000632464
-0.000264074
0.000675784
-0.000271934
0.000720558
-0.00027937
0.000766721
-0.000286262
0.000814184
-0.000292474
0.000862825
-0.000297848
0.000912484
-0.000302188
0.000962967
-0.00030531
-0.000307269
0.00101412
3.3072e-07
-3.65569e-06
1.54881e-06
-1.38887e-05
3.70773e-06
-2.40833e-05
6.87532e-06
-3.42411e-05
1.11244e-05
-4.43074e-05
1.65248e-05
-5.42504e-05
2.31374e-05
-6.40523e-05
3.10109e-05
-7.3709e-05
4.01818e-05
-8.323e-05
5.06753e-05
-9.26341e-05
6.25082e-05
-0.000101947
7.56919e-05
-0.000111197
9.02343e-05
-0.000120414
0.000106142
-0.000129626
0.000123424
-0.000138861
0.000142087
-0.000148141
0.000162143
-0.000157489
0.000183607
-0.00016692
0.000206493
-0.00017645
0.00023082
-0.000186088
0.00025661
-0.000195842
0.000283886
-0.000205715
0.000312671
-0.000215705
0.000342993
-0.000225805
0.000374878
-0.000236004
0.000408352
-0.000246283
0.000443442
-0.000256615
0.000480169
-0.000266967
0.000518555
-0.000277293
0.000558613
-0.000287538
0.00060035
-0.00029763
0.000643762
-0.000307486
0.000688832
-0.000317003
0.000735523
-0.000326061
0.000783781
-0.000334519
0.000833522
-0.000342215
0.00088463
-0.000348957
0.000936947
-0.000354504
0.00099027
-0.000358633
-0.000361455
0.00104446
3.43899e-07
-3.99959e-06
1.59118e-06
-1.5136e-05
3.77995e-06
-2.62721e-05
6.9638e-06
-3.7425e-05
1.12035e-05
-4.85471e-05
1.65624e-05
-5.96093e-05
2.31015e-05
-7.05914e-05
3.08753e-05
-8.14828e-05
3.99298e-05
-9.22845e-05
5.03024e-05
-0.000103007
6.20227e-05
-0.000113667
7.51138e-05
-0.000124288
8.95944e-05
-0.000134895
0.00010548
-0.000145512
0.000122787
-0.000156167
0.000141528
-0.000166883
0.000161719
-0.00017768
0.000183379
-0.000188579
0.000206525
-0.000199596
0.000231179
-0.000210742
0.000257364
-0.000222028
0.000285107
-0.000233458
0.000314435
-0.000245032
0.000345377
-0.000256747
0.000377965
-0.000268592
0.00041223
-0.000280548
0.000448204
-0.00029259
0.000485919
-0.000304682
0.000525403
-0.000316777
0.000566681
-0.000328815
0.00060977
-0.000340719
0.000654679
-0.000352395
0.000701404
-0.000363728
0.000749923
-0.00037458
0.000800191
-0.000384787
0.000852136
-0.000394161
0.000905652
-0.000402473
0.000960581
-0.000409433
0.00101672
-0.00041477
-0.00041867
0.00107393
3.529e-07
-4.35249e-06
1.61948e-06
-1.64025e-05
3.82937e-06
-2.84819e-05
7.02782e-06
-4.06234e-05
1.12671e-05
-5.27864e-05
1.66047e-05
-6.4947e-05
2.30995e-05
-7.70861e-05
3.08079e-05
-8.91911e-05
3.97813e-05
-0.000101258
5.00652e-05
-0.000113291
6.16984e-05
-0.0001253
7.47141e-05
-0.000137304
8.91404e-05
-0.000149321
0.000105002
-0.000161374
0.00012232
-0.000173486
0.000141117
-0.000185679
0.000161413
-0.000197976
0.000183228
-0.000210395
0.000206586
-0.000222954
0.00023151
-0.000235666
0.000258027
-0.000248544
0.000286163
-0.000261594
0.00031595
-0.000274819
0.00034742
-0.000288217
0.000380607
-0.000301779
0.000415548
-0.000315489
0.00045228
-0.000329323
0.000490843
-0.000343245
0.000531274
-0.000357208
0.000573608
-0.000371149
0.000617875
-0.000384987
0.0006641
-0.00039862
0.000712293
-0.00041192
0.000762448
-0.000424735
0.000814537
-0.000436877
0.000868505
-0.000448128
0.000924254
-0.000458222
0.000981634
-0.000466813
0.00104044
-0.000473576
-0.000478786
0.00110056
3.56084e-07
-4.70857e-06
1.62535e-06
-1.76718e-05
3.83453e-06
-3.06911e-05
7.02565e-06
-4.38145e-05
1.12465e-05
-5.70073e-05
1.6551e-05
-7.02514e-05
2.29959e-05
-8.3531e-05
3.06381e-05
-9.68333e-05
3.9532e-05
-0.000110152
4.9728e-05
-0.000123487
6.12719e-05
-0.000136844
7.42041e-05
-0.000150236
8.85606e-05
-0.000163677
0.000104373
-0.000177186
0.000121671
-0.000190784
0.000140481
-0.000204489
0.000160828
-0.000218323
0.000182737
-0.000232305
0.000206235
-0.000246451
0.000231347
-0.000260779
0.000258101
-0.000275298
0.000286527
-0.00029002
0.000316657
-0.000304949
0.000348524
-0.000320084
0.000382167
-0.000335421
0.000417624
-0.000350946
0.000454938
-0.000366637
0.000494153
-0.000382461
0.000535317
-0.000398372
0.000578474
-0.000414306
0.00062367
-0.000430182
0.000670942
-0.000445892
0.000720322
-0.0004613
0.000771823
-0.000476236
0.00082544
-0.000490493
0.000881134
-0.000503823
0.000938829
-0.000515917
0.000998384
-0.000526367
0.0010596
-0.00053479
-0.000541557
0.00112237
3.5176e-07
-5.06033e-06
1.60105e-06
-1.89211e-05
3.77682e-06
-3.28669e-05
6.92258e-06
-4.69603e-05
1.10857e-05
-6.11704e-05
1.63191e-05
-7.54849e-05
2.26792e-05
-8.98911e-05
3.02232e-05
-0.000104377
3.90074e-05
-0.000118936
4.90857e-05
-0.000133565
6.05081e-05
-0.000148267
7.33209e-05
-0.000163049
8.75657e-05
-0.000177922
0.000103281
-0.000192901
0.0001205
-0.000208003
0.000139256
-0.000223245
0.000159579
-0.000238645
0.000181496
-0.000254222
0.000205037
-0.000269992
0.000230229
-0.000285971
0.000257101
-0.000302171
0.000285684
-0.000318603
0.00031601
-0.000335275
0.000348113
-0.000352188
0.000382032
-0.00036934
0.000417807
-0.00038672
0.000455483
-0.000404312
0.000495108
-0.000422086
0.000536736
-0.00044
0.000580423
-0.000457993
0.000626225
-0.000475985
0.000674199
-0.000493866
0.000724396
-0.000511497
0.000776856
-0.000528696
0.000831599
-0.000545236
0.000888616
-0.00056084
0.000947857
-0.000575158
0.0010092
-0.000587709
0.00107245
-0.000598038
-0.000606627
0.00113752
3.38114e-07
-5.39845e-06
1.53892e-06
-2.01219e-05
3.63888e-06
-3.49668e-05
6.68762e-06
-5.0009e-05
1.0736e-05
-6.52188e-05
1.58393e-05
-8.05881e-05
2.20551e-05
-9.61069e-05
2.94421e-05
-0.000111764
3.80582e-05
-0.000127552
4.79598e-05
-0.000143467
5.92001e-05
-0.000159507
7.18292e-05
-0.000175678
8.58933e-05
-0.000191986
0.000101435
-0.000208443
0.000118493
-0.000225061
0.000137103
-0.000241855
0.0001573
-0.000258842
0.000179114
-0.000276036
0.000202575
-0.000293454
0.000227714
-0.000311109
0.000254559
-0.000329016
0.000283141
-0.000347185
0.000313491
-0.000365624
0.000345641
-0.000384338
0.000379628
-0.000403327
0.000415493
-0.000422585
0.000453278
-0.000442098
0.000493034
-0.000461843
0.000534818
-0.000481783
0.000578691
-0.000501866
0.000624722
-0.000522015
0.000672983
-0.000542128
0.000723549
-0.000562063
0.000776489
-0.000581635
0.000831857
-0.000600604
0.000889684
-0.000618667
0.000949956
-0.00063543
0.00101258
-0.000650336
0.00107739
-0.000662844
-0.000673546
0.00114431
3.13082e-07
-5.71153e-06
1.43089e-06
-2.12397e-05
3.40352e-06
-3.69395e-05
6.29163e-06
-5.28971e-05
1.01538e-05
-6.90809e-05
1.50503e-05
-8.54847e-05
2.10425e-05
-0.000102099
2.81914e-05
-0.000118913
3.6557e-05
-0.000135918
4.61976e-05
-0.000153107
5.71689e-05
-0.000170478
6.95236e-05
-0.000188033
8.33111e-05
-0.000205774
9.85771e-05
-0.000223709
0.000115364
-0.000241848
0.000133711
-0.000260203
0.000153654
-0.000278785
0.000175228
-0.000297609
0.000198463
-0.000316689
0.00022339
-0.000336036
0.000250038
-0.000355664
0.000278436
-0.000375583
0.000308613
-0.000395801
0.0003406
-0.000416324
0.000374427
-0.000437155
0.000410132
-0.00045829
0.000447755
-0.00047972
0.000487341
-0.000501429
0.000528947
-0.000523388
0.000572634
-0.000545554
0.000618479
-0.000567861
0.000666568
-0.000590216
0.000716994
-0.00061249
0.000769859
-0.000634501
0.00082526
-0.000656005
0.000883278
-0.000676685
0.000943957
-0.000696108
0.00100726
-0.000713636
0.00107304
-0.000728626
-0.00074177
0.00114126
2.73911e-07
-5.98544e-06
1.26775e-06
-2.22336e-05
3.05282e-06
-3.87245e-05
5.70618e-06
-5.55505e-05
9.2985e-06
-7.26732e-05
1.38984e-05
-9.00846e-05
1.95721e-05
-0.000107773
2.63843e-05
-0.000125725
3.43974e-05
-0.000143931
4.36715e-05
-0.000162381
5.42643e-05
-0.000181071
6.62301e-05
-0.000199998
7.96206e-05
-0.000219164
9.44838e-05
-0.000238572
0.000110864
-0.000258229
0.000128804
-0.000278142
0.000148341
-0.000298322
0.000169511
-0.000318779
0.000192347
-0.000339524
0.000216879
-0.000360568
0.000243136
-0.000381921
0.000271145
-0.000403592
0.000300933
-0.000425589
0.000332525
-0.000447917
0.000365949
-0.000470579
0.000401235
-0.000493575
0.000438414
-0.000516899
0.000477525
-0.000540541
0.000518615
-0.000564479
0.000561743
-0.000588682
0.000606981
-0.000613099
0.00065442
-0.000637655
0.000704169
-0.000662239
0.000756358
-0.000686689
0.000811128
-0.000710776
0.000868627
-0.000734184
0.000928976
-0.000756457
0.00099222
-0.000776881
0.00105829
-0.000794692
-0.000810668
0.00112718
2.16701e-07
-6.20214e-06
1.03851e-06
-2.30554e-05
2.56773e-06
-4.02538e-05
4.90381e-06
-5.78866e-05
8.13438e-06
-7.59038e-05
1.23387e-05
-9.42889e-05
1.7589e-05
-0.000113023
2.39537e-05
-0.00013209
3.14981e-05
-0.000151475
4.0284e-05
-0.000171167
5.03703e-05
-0.000191157
6.18128e-05
-0.000211441
7.46643e-05
-0.000232016
8.89744e-05
-0.000252882
0.00010479
-0.000274044
0.000122154
-0.000295506
0.000141106
-0.000317274
0.000161684
-0.000339357
0.000183921
-0.000361762
0.000207848
-0.000384496
0.000233495
-0.000407568
0.000260886
-0.000430983
0.000290046
-0.000454749
0.000320997
-0.000478868
0.000353761
-0.000503343
0.000388359
-0.000528173
0.000424815
-0.000553355
0.000463155
-0.00057888
0.000503412
-0.000604736
0.000545631
-0.0006309
0.000589871
-0.000657339
0.000636214
-0.000683998
0.000684769
-0.000710795
0.000735682
-0.000737602
0.000789133
-0.000764227
0.000845337
-0.000790387
0.000904519
-0.000815639
0.000966855
-0.000839216
0.00103239
-0.000860232
-0.000879516
0.00110124
1.31628e-07
-6.33377e-06
7.24175e-07
-2.36479e-05
1.92118e-06
-4.14508e-05
3.85088e-06
-5.98163e-05
6.62298e-06
-7.86759e-05
1.03291e-05
-9.7995e-05
1.50459e-05
-0.00011774
2.08458e-05
-0.00013789
2.77965e-05
-0.000158426
3.59613e-05
-0.000179332
4.53998e-05
-0.000200596
5.61686e-05
-0.00022221
6.83214e-05
-0.000244168
8.19088e-05
-0.00026647
9.69784e-05
-0.000289114
0.000113575
-0.000312103
0.00013174
-0.000335439
0.000151512
-0.000359129
0.000172925
-0.000383175
0.000196013
-0.000407583
0.000220803
-0.000432358
0.000247322
-0.000457502
0.000275592
-0.000483019
0.000305633
-0.00050891
0.000337464
-0.000535173
0.000371099
-0.000561808
0.000406552
-0.000588808
0.000443837
-0.000616166
0.000482973
-0.000643872
0.000523983
-0.00067191
0.000566902
-0.000700258
0.000611787
-0.000728883
0.000658726
-0.000757733
0.000707849
-0.000786726
0.000759351
-0.000815728
0.000813495
-0.000844532
0.000870618
-0.000872762
0.000931072
-0.00089967
0.000995121
-0.000924281
-0.000947459
0.00106306
-1.38053e-09
-6.33239e-06
2.80715e-07
-2.393e-05
1.07079e-06
-4.22408e-05
2.49849e-06
-6.1244e-05
4.71639e-06
-8.08938e-05
7.82324e-06
-0.000101102
1.18982e-05
-0.000121815
1.70151e-05
-0.000143007
2.32443e-05
-0.000164655
3.06495e-05
-0.000186737
3.92906e-05
-0.000209237
4.92247e-05
-0.000232144
6.05058e-05
-0.000255449
7.31854e-05
-0.000279149
8.73118e-05
-0.00030324
0.000102931
-0.000327721
0.000120085
-0.000352594
0.000138814
-0.000377858
0.000159154
-0.000403516
0.00018114
-0.000429569
0.000204801
-0.000456019
0.000230164
-0.000482865
0.000257253
-0.000510108
0.000286088
-0.000537745
0.000316687
-0.000565772
0.000349061
-0.000594182
0.000383221
-0.000622968
0.000419173
-0.000652118
0.000456922
-0.000681621
0.000496473
-0.000711461
0.000537834
-0.00074162
0.000581027
-0.000772075
0.000626093
-0.000802799
0.000673116
-0.000833749
0.000722246
-0.000864859
0.00077374
-0.000896025
0.000827992
-0.000927015
0.000885526
-0.000957204
0.000946926
-0.000985682
-0.00101351
0.00101298
-1.65227e-07
-6.16716e-06
-2.6283e-07
-2.38324e-05
1.79061e-08
-4.25216e-05
9.16202e-07
-6.21423e-05
2.51601e-06
-8.24936e-05
4.95728e-06
-0.000103543
8.29902e-06
-0.000125157
1.26233e-05
-0.000147331
1.8005e-05
-0.000170037
2.45093e-05
-0.000193241
3.2197e-05
-0.000216925
4.11256e-05
-0.000241072
5.135e-05
-0.000265674
6.2922e-05
-0.000290721
7.58907e-05
-0.000316209
9.03027e-05
-0.000342133
0.000106202
-0.000368493
0.000123629
-0.000395285
0.000142622
-0.000422509
0.000163216
-0.000450163
0.000185445
-0.000478247
0.000209336
-0.000506757
0.000234916
-0.000535689
0.00026221
-0.000565038
0.000291235
-0.000594797
0.000322009
-0.000624956
0.000354545
-0.000655503
0.000388849
-0.000686422
0.000424925
-0.000717698
0.000462774
-0.000749309
0.000502389
-0.000781235
0.000543765
-0.000813452
0.000586901
-0.000845934
0.00063181
-0.000878658
0.000678549
-0.000911598
0.000727265
-0.000944741
0.000778261
-0.000978011
0.000832083
-0.00101103
0.000889708
-0.00104331
-0.00107701
0.000953211
-3.67324e-07
-5.79984e-06
-8.88698e-07
-2.3311e-05
-1.05209e-06
-4.23582e-05
-7.36202e-07
-6.24582e-05
2.16792e-07
-8.34466e-05
1.8517e-06
-0.000105178
4.33682e-06
-0.000127642
7.7448e-06
-0.000150739
1.21414e-05
-0.000174434
1.75922e-05
-0.000198692
2.4159e-05
-0.000223492
3.19e-05
-0.000248813
4.08702e-05
-0.000274644
5.11219e-05
-0.000300973
6.27048e-05
-0.000327792
7.56659e-05
-0.000355095
9.00496e-05
-0.000382876
0.000105898
-0.000411133
0.00012325
-0.000439861
0.000142142
-0.000469056
0.000162609
-0.000498714
0.000184683
-0.000528831
0.000208394
-0.0005594
0.000233768
-0.000590413
0.000260832
-0.000621861
0.000289607
-0.000653732
0.000320117
-0.000686012
0.000352378
-0.000718684
0.00038641
-0.000751729
0.000422225
-0.000785124
0.000459835
-0.000818845
0.000499249
-0.000852865
0.000540469
-0.000887154
0.000583496
-0.000921685
0.000628334
-0.000956437
0.000675014
-0.000991421
0.000723644
-0.00102664
0.000774507
-0.00106189
0.000828321
-0.00109712
-0.00113498
0.000886283
1.73983e-06
-7.53967e-06
4.6564e-06
-2.62276e-05
8.32787e-06
-4.60296e-05
1.2694e-05
-6.68243e-05
1.77821e-05
-8.85347e-05
2.36833e-05
-0.000111079
3.04332e-05
-0.000134392
3.81124e-05
-0.000158418
4.67904e-05
-0.000183112
5.65342e-05
-0.000208436
6.74066e-05
-0.000234364
7.94667e-05
-0.000260873
9.27702e-05
-0.000287948
0.00010737
-0.000315572
0.000123315
-0.000343737
0.000140654
-0.000372433
0.00015943
-0.000401652
0.000179685
-0.000431388
0.000201458
-0.000461634
0.000224786
-0.000492384
0.000249703
-0.000523631
0.000276242
-0.000555369
0.000304431
-0.000587589
0.0003343
-0.000620282
0.000365876
-0.000653437
0.000399186
-0.000687041
0.000434256
-0.000721082
0.000471115
-0.000755543
0.000509794
-0.000790408
0.000550328
-0.000825659
0.000592763
-0.00086128
0.000637155
-0.000897258
0.000683584
-0.000933584
0.000732164
-0.000970264
0.000783062
-0.00100734
0.000836534
-0.00104489
0.000893
-0.00108311
0.000953393
-0.00112228
0.00101965
-0.00116338
-0.00120922
0.0010939
9.46927e-07
-8.4866e-06
3.37824e-06
-2.86589e-05
6.93597e-06
-4.95874e-05
1.14517e-05
-7.134e-05
1.6859e-05
-9.3942e-05
2.31517e-05
-0.000117372
3.03556e-05
-0.000141596
3.85126e-05
-0.000166575
4.7675e-05
-0.000192274
5.78985e-05
-0.00021866
6.92395e-05
-0.000245705
8.1753e-05
-0.000273387
9.54921e-05
-0.000301687
0.000110508
-0.000330588
0.000126848
-0.000360078
0.000144559
-0.000390144
0.000163683
-0.000420777
0.000184263
-0.000451967
0.000206335
-0.000483706
0.000229937
-0.000515985
0.000255102
-0.000548796
0.000281861
-0.000582128
0.000310245
-0.000615973
0.000340282
-0.000650319
0.000372001
-0.000685156
0.000405429
-0.00072047
0.000440596
-0.000756249
0.000477532
-0.000792479
0.000516274
-0.000829149
0.000556863
-0.000866248
0.000599352
-0.000903769
0.000643806
-0.000941712
0.000690314
-0.000980091
0.000738991
-0.00101894
0.000789991
-0.00105834
0.000843501
-0.0010984
0.000899754
-0.00113936
0.000959052
-0.00118158
0.00102146
-0.00122579
-0.00127309
0.00108533
7.3599e-07
-9.22259e-06
2.8176e-06
-3.07405e-05
6.12922e-06
-5.2899e-05
1.05583e-05
-7.57691e-05
1.60271e-05
-9.94109e-05
2.24983e-05
-0.000123843
2.99647e-05
-0.000149062
3.84407e-05
-0.000175051
4.79562e-05
-0.000201789
5.85501e-05
-0.000229253
7.02661e-05
-0.000257421
8.31501e-05
-0.000286271
9.72487e-05
-0.000315785
0.000112608
-0.000345947
0.000129271
-0.000376741
0.000147282
-0.000408155
0.00016668
-0.000440175
0.000187505
-0.000472792
0.000209792
-0.000505993
0.000233574
-0.000539768
0.000258883
-0.000574105
0.000285749
-0.000608994
0.0003142
-0.000644423
0.000344261
-0.00068038
0.000375957
-0.000716852
0.000409313
-0.000753826
0.000444355
-0.00079129
0.000481107
-0.000829232
0.000519599
-0.000867641
0.000559862
-0.000906511
0.000601932
-0.000945839
0.000645854
-0.000985633
0.000691676
-0.00102591
0.000739453
-0.00106672
0.000789242
-0.00110812
0.000841077
-0.00115024
0.000894956
-0.00119324
0.000950776
-0.0012374
0.00100811
-0.00128312
-0.00133062
0.00106563
6.94943e-07
-9.91753e-06
2.61606e-06
-3.26616e-05
5.74696e-06
-5.60299e-05
1.00446e-05
-8.00668e-05
1.54623e-05
-0.000104829
2.19666e-05
-0.000130347
2.95409e-05
-0.000156636
3.81854e-05
-0.000183696
4.79135e-05
-0.000211518
5.87491e-05
-0.000240089
7.07228e-05
-0.000269395
8.38698e-05
-0.000299418
9.82276e-05
-0.000330143
0.000113835
-0.000361554
0.000130729
-0.000393636
0.000148948
-0.000426374
0.000168528
-0.000459755
0.000189503
-0.000493766
0.000211904
-0.000528394
0.000235761
-0.000563625
0.000261103
-0.000599447
0.000287953
-0.000635845
0.000316335
-0.000672806
0.000346271
-0.000710315
0.000377778
-0.00074836
0.000410876
-0.000786924
0.000445581
-0.000825995
0.000481908
-0.000865559
0.000519872
-0.000905605
0.000559488
-0.000946127
0.000600768
-0.00098712
0.000643725
-0.00102859
0.000688364
-0.00107055
0.00073468
-0.00111304
0.000782648
-0.00115609
0.000832206
-0.0011998
0.000883225
-0.00124426
0.000935469
-0.00128965
0.00098849
-0.00133614
-0.00138362
0.0010415
6.76116e-07
-1.05936e-05
2.5145e-06
-3.45e-05
5.52853e-06
-5.90439e-05
9.71088e-06
-8.42491e-05
1.50432e-05
-0.000110161
2.15073e-05
-0.000136811
2.9091e-05
-0.00016422
3.77912e-05
-0.000192396
4.76138e-05
-0.00022134
5.8573e-05
-0.000251048
7.06893e-05
-0.000281511
8.39883e-05
-0.000312717
9.84986e-05
-0.000344653
0.00011425
-0.000377306
0.000131275
-0.00041066
0.000149603
-0.000444702
0.000169264
-0.000479417
0.000190288
-0.00051479
0.000212699
-0.000550806
0.000236523
-0.000587449
0.000261782
-0.000624705
0.000288495
-0.000662558
0.000316679
-0.00070099
0.000346348
-0.000739985
0.000377515
-0.000779526
0.000410187
-0.000819597
0.000444372
-0.00086018
0.000480073
-0.00090126
0.00051729
-0.000942822
0.000556019
-0.000984855
0.00059625
-0.00102735
0.000637967
-0.00107031
0.000681142
-0.00111373
0.00072573
-0.00115762
0.000771661
-0.00120202
0.000818827
-0.00124696
0.000867064
-0.00129249
0.000916129
-0.00133871
0.00096566
-0.00138567
-0.00143313
0.00101516
6.66923e-07
-1.12606e-05
2.45699e-06
-3.62901e-05
5.3913e-06
-6.19782e-05
9.47887e-06
-8.83367e-05
1.47193e-05
-0.000115401
2.11081e-05
-0.0001432
2.86414e-05
-0.000171753
3.73187e-05
-0.000201073
4.71443e-05
-0.000231166
5.81278e-05
-0.000262032
7.02835e-05
-0.000293667
8.36296e-05
-0.000326063
9.81873e-05
-0.000359211
0.00011398
-0.000393098
0.00013103
-0.000427711
0.000149363
-0.000463035
0.000169002
-0.000499056
0.000189969
-0.000535756
0.000212284
-0.00057312
0.000235965
-0.00061113
0.000261027
-0.000649768
0.000287485
-0.000689015
0.000315346
-0.000728852
0.00034462
-0.000769258
0.000375308
-0.000810214
0.00040741
-0.000851699
0.000440923
-0.000893692
0.000475837
-0.000936174
0.00051214
-0.000979125
0.000549811
-0.00102253
0.000588824
-0.00106636
0.000629142
-0.00111062
0.000670714
-0.0011553
0.000713475
-0.00120038
0.000757333
-0.00124588
0.000802168
-0.0012918
0.000847819
-0.00133814
0.00089407
-0.00138496
0.000940644
-0.00143225
-0.0014797
0.000987213
6.60486e-07
-1.19211e-05
2.41565e-06
-3.80453e-05
5.28776e-06
-6.48503e-05
9.29284e-06
-9.23418e-05
1.44403e-05
-0.000120549
2.07352e-05
-0.000149495
2.81808e-05
-0.000179199
3.6781e-05
-0.000209673
4.65412e-05
-0.000240926
5.74697e-05
-0.00027296
6.95776e-05
-0.000305774
8.28781e-05
-0.000339364
9.7387e-05
-0.00037372
0.000113121
-0.000408832
0.000130098
-0.000444688
0.000148335
-0.000481272
0.000167849
-0.00051857
0.000188655
-0.000556563
0.000210768
-0.000595233
0.000234198
-0.00063456
0.000258954
-0.000674525
0.000285043
-0.000715104
0.000312468
-0.000756276
0.000341226
-0.000798016
0.000371313
-0.000840301
0.00040272
-0.000883106
0.000435434
-0.000926406
0.000469434
-0.000970175
0.000504698
-0.00101439
0.000541191
-0.00105902
0.000578876
-0.00110405
0.000617702
-0.00114945
0.000657606
-0.0011952
0.000698513
-0.00124129
0.000740325
-0.00128769
0.000782925
-0.0013344
0.000826164
-0.00138138
0.000869862
-0.00142866
0.000913802
-0.00147619
-0.00152365
0.000957754
6.52709e-07
-1.25738e-05
2.37586e-06
-3.97684e-05
5.19118e-06
-6.76657e-05
9.11731e-06
-9.62679e-05
1.41686e-05
-0.0001256
2.03558e-05
-0.000155682
2.76874e-05
-0.000186531
3.6171e-05
-0.000218157
4.58141e-05
-0.000250569
5.6625e-05
-0.000283771
6.86133e-05
-0.000317763
8.17893e-05
-0.00035254
9.61648e-05
-0.000388095
0.000111752
-0.000424419
0.000128562
-0.000461498
0.000146608
-0.000499318
0.0001659
-0.000537861
0.000186447
-0.00057711
0.000208257
-0.000617043
0.000231334
-0.000657638
0.000255681
-0.000698872
0.000281297
-0.00074072
0.000308176
-0.000783155
0.000336311
-0.000826151
0.00036569
-0.000869679
0.000396293
-0.00091371
0.000428101
-0.000958213
0.000461084
-0.00100316
0.000495209
-0.00104851
0.000530436
-0.00109425
0.000566715
-0.00114033
0.00060399
-0.00118673
0.000642192
-0.00123341
0.000681241
-0.00128034
0.000721041
-0.00132749
0.000761482
-0.00137484
0.000802432
-0.00142233
0.00084374
-0.00146997
0.00088523
-0.00151768
-0.00156516
0.000926738
6.42471e-07
-1.32162e-05
2.33175e-06
-4.14577e-05
5.08875e-06
-7.04227e-05
8.93301e-06
-0.000100112
1.38812e-05
-0.000130548
1.99472e-05
-0.000161748
2.71429e-05
-0.000193726
3.54784e-05
-0.000226492
4.4963e-05
-0.000260054
5.56056e-05
-0.000294414
6.74149e-05
-0.000329572
8.03996e-05
-0.000365524
9.45684e-05
-0.000402264
0.00010993
-0.00043978
0.000126491
-0.000478059
0.000144259
-0.000517086
0.00016324
-0.000556842
0.000183436
-0.000597306
0.00020485
-0.000638456
0.000227479
-0.000680267
0.00025132
-0.000722713
0.000276365
-0.000765764
0.000302602
-0.000809393
0.000330017
-0.000853566
0.000358589
-0.000898252
0.000388294
-0.000943415
0.000419103
-0.000989022
0.000450981
-0.00103504
0.000483887
-0.00108142
0.000517774
-0.00112813
0.000552587
-0.00117514
0.000588266
-0.0012224
0.000624738
-0.00126988
0.000661924
-0.00131753
0.000699732
-0.0013653
0.000738061
-0.00141316
0.000776794
-0.00146107
0.000815801
-0.00150897
0.000854939
-0.00155682
-0.0016043
0.000894085
6.29327e-07
-1.38456e-05
2.28059e-06
-4.31089e-05
4.97403e-06
-7.31161e-05
8.72942e-06
-0.000103868
1.35645e-05
-0.000135383
1.94947e-05
-0.000167679
2.65339e-05
-0.000200765
3.46937e-05
-0.000234652
4.39848e-05
-0.000269345