/*--------------------------------*- C++ -*----------------------------------*\
  =========                 |
  \\      /  F ield         | OpenFOAM: The Open Source CFD Toolbox
   \\    /   O peration     | Website:  https://openfoam.org
    \\  /    A nd           | Version:  7
     \\/     M anipulation  |
\*---------------------------------------------------------------------------*/
FoamFile
{
    version     2.0;
    format      ascii;
    class       volVectorField;
    location    "5";
    object      U;
}
// * * * * * * * * * * * * * * * * * * * * * * * * * * * * * * * * * * * * * //

dimensions      [0 1 -1 0 0 0 0];

internalField   nonuniform List<vector> 
12000
(
(0.00143102 -0.00127851 -1.0519e-21)
(0.0063693 -0.00292823 -7.92382e-21)
(0.0123125 -0.00352753 -3.30365e-21)
(0.0189688 -0.00379064 -4.38023e-21)
(0.0260809 -0.00397728 1.77365e-21)
(0.0335194 -0.00414683 -5.4431e-21)
(0.041202 -0.00431109 8.06029e-21)
(0.0490658 -0.0044722 8.93078e-21)
(0.0570636 -0.00462888 -1.13931e-20)
(0.0651599 -0.00477914 6.63613e-21)
(0.0733276 -0.00492164 -1.14169e-21)
(0.081545 -0.00505573 -7.51307e-21)
(0.0897948 -0.00518128 -6.85923e-21)
(0.0980627 -0.00529841 4.35971e-21)
(0.106337 -0.00540735 1.43115e-20)
(0.114607 -0.00550838 -6.83889e-21)
(0.122865 -0.00560172 -3.28834e-22)
(0.131102 -0.00568756 5.47708e-21)
(0.139313 -0.00576597 -1.24057e-20)
(0.147491 -0.00583691 7.62378e-21)
(0.155628 -0.00590024 -3.23308e-21)
(0.16372 -0.00595568 -2.86551e-21)
(0.17176 -0.00600282 8.97736e-21)
(0.17974 -0.0060411 1.46628e-21)
(0.187653 -0.0060698 -6.79234e-21)
(0.19549 -0.00608804 -3.61877e-21)
(0.203242 -0.00609476 8.82708e-22)
(0.210898 -0.00608874 7.14561e-21)
(0.218446 -0.00606856 -1.60708e-21)
(0.225871 -0.00603263 1.40506e-21)
(0.23316 -0.00597916 -1.23275e-21)
(0.240293 -0.00590621 4.2885e-21)
(0.247252 -0.00581164 -8.0642e-21)
(0.254015 -0.00569318 3.31468e-21)
(0.260557 -0.00554845 -2.45887e-21)
(0.266853 -0.00537512 5.52879e-21)
(0.272871 -0.00517098 -4.62828e-21)
(0.27859 -0.00493256 5.11027e-21)
(0.283991 -0.0046535 -4.37237e-21)
(0.28897 -0.00433807 1.17468e-21)
(0.00208969 -0.00215128 3.44224e-21)
(0.00820267 -0.00599944 -1.27008e-20)
(0.0144159 -0.00852703 -6.94084e-22)
(0.0210732 -0.0101654 -7.78996e-21)
(0.0281359 -0.0113134 1.55528e-20)
(0.0355353 -0.0121823 -7.18672e-21)
(0.0432046 -0.0128818 9.55885e-22)
(0.0510814 -0.0134736 -1.10739e-21)
(0.059113 -0.0139913 -2.72265e-21)
(0.0672584 -0.014454 4.68776e-21)
(0.0754853 -0.0148725 9.14062e-21)
(0.0837691 -0.0152537 -2.88214e-21)
(0.0920902 -0.0156024 -8.67203e-21)
(0.100433 -0.0159222 -1.61141e-21)
(0.108785 -0.0162159 -4.60403e-21)
(0.117136 -0.0164854 3.28518e-21)
(0.125477 -0.0167324 1.11823e-20)
(0.1338 -0.0169582 -5.57201e-21)
(0.142098 -0.0171634 2.34462e-21)
(0.150365 -0.0173482 -9.32299e-22)
(0.158595 -0.0175124 5.49655e-21)
(0.166781 -0.0176555 -1.16923e-20)
(0.174916 -0.0177762 1.16244e-21)
(0.182994 -0.017873 6.59383e-21)
(0.191007 -0.0179438 -8.69889e-21)
(0.198946 -0.017986 1.16542e-20)
(0.206801 -0.0179963 -1.01231e-20)
(0.214561 -0.017971 8.11416e-21)
(0.222214 -0.0179059 -2.52049e-21)
(0.229746 -0.0177961 1.21063e-21)
(0.23714 -0.0176361 3.73141e-21)
(0.244379 -0.0174199 -3.62828e-22)
(0.251442 -0.017141 -5.79182e-21)
(0.258306 -0.0167923 -2.67946e-21)
(0.264946 -0.0163664 7.01134e-21)
(0.271335 -0.0158559 5.32068e-22)
(0.277441 -0.0152537 -3.60067e-21)
(0.283239 -0.0145507 2.64017e-21)
(0.288716 -0.0137331 -4.9553e-22)
(0.293749 -0.0128085 -1.64258e-21)
(0.00258177 -0.00202596 1.69311e-20)
(0.00996152 -0.00690366 -1.34778e-20)
(0.0170429 -0.0108237 8.93881e-22)
(0.0241883 -0.0138248 1.44507e-21)
(0.0315201 -0.0161366 6.23154e-21)
(0.0390783 -0.0179524 -1.25052e-20)
(0.0468594 -0.0194152 1.60385e-20)
(0.0548357 -0.020628 -5.72161e-21)
(0.0629712 -0.021661 -5.2746e-21)
(0.0712306 -0.022561 -7.47898e-21)
(0.0795829 -0.0233586 -3.29828e-21)
(0.0880024 -0.0240744 1.71969e-20)
(0.0964682 -0.0247223 -1.28091e-20)
(0.104963 -0.0253124 -3.86939e-21)
(0.113474 -0.0258518 2.04413e-20)
(0.121988 -0.0263459 -1.05471e-20)
(0.130498 -0.0267985 8.67264e-21)
(0.138995 -0.0272124 -6.65768e-21)
(0.147471 -0.0275895 1.0266e-20)
(0.15592 -0.0279307 -1.24697e-20)
(0.164336 -0.0282362 2.16089e-21)
(0.172712 -0.0285053 -1.88266e-21)
(0.181042 -0.0287364 3.9286e-21)
(0.189317 -0.0289272 2.55446e-21)
(0.197531 -0.0290744 -5.01585e-21)
(0.205674 -0.0291739 -2.98516e-22)
(0.213735 -0.0292205 9.76214e-22)
(0.221705 -0.0292083 3.23842e-21)
(0.229568 -0.0291301 -4.7524e-21)
(0.237311 -0.0289778 -8.87701e-22)
(0.244916 -0.0287424 1.8992e-21)
(0.252364 -0.0284138 -1.07574e-21)
(0.259633 -0.0279809 8.44949e-22)
(0.266699 -0.0274317 1.95205e-21)
(0.273535 -0.0267534 -1.91402e-21)
(0.28011 -0.0259332 4.20493e-21)
(0.28639 -0.0249582 -2.38632e-21)
(0.29235 -0.0238121 2.19837e-21)
(0.297979 -0.0224701 3.44931e-21)
(0.303121 -0.0209413 -2.30705e-21)
(0.00303937 -0.00212404 2.04838e-21)
(0.0116573 -0.00760874 -1.64141e-20)
(0.0198285 -0.0124311 -2.9839e-21)
(0.0278157 -0.0164694 1.3749e-20)
(0.0357647 -0.019808 -8.17846e-21)
(0.0437718 -0.0225607 6.14669e-21)
(0.0518901 -0.0248414 -2.06665e-21)
(0.060137 -0.0267527 3.68427e-21)
(0.068508 -0.0283784 -5.66403e-21)
(0.0769878 -0.0297826 -3.94627e-21)
(0.085557 -0.0310132 -1.12567e-20)
(0.0941957 -0.0321051 9.79449e-21)
(0.102886 -0.0330836 1.39459e-20)
(0.111612 -0.0339673 -1.41808e-20)
(0.12036 -0.0347697 1.70273e-20)
(0.129119 -0.0355011 -1.99745e-20)
(0.137879 -0.0361689 1.80964e-20)
(0.146633 -0.0367784 -1.23383e-22)
(0.155372 -0.0373332 -1.67768e-20)
(0.16409 -0.0378357 2.64364e-21)
(0.17278 -0.0382868 1.9401e-21)
(0.181436 -0.0386859 -3.61831e-21)
(0.19005 -0.0390315 4.94233e-21)
(0.198616 -0.0393206 3.08465e-21)
(0.207124 -0.0395492 -4.28083e-21)
(0.215566 -0.0397117 3.45009e-21)
(0.22393 -0.0398012 -6.01267e-22)
(0.232204 -0.0398094 -3.56293e-21)
(0.240375 -0.0397266 6.38924e-21)
(0.248426 -0.0395416 -4.10162e-21)
(0.256339 -0.0392416 4.44171e-21)
(0.264093 -0.0388123 -8.59888e-21)
(0.271663 -0.038238 6.66016e-21)
(0.279024 -0.0375015 -1.6958e-21)
(0.286144 -0.0365843 -4.01942e-21)
(0.29299 -0.0354675 3.5565e-21)
(0.299522 -0.0341321 -6.76833e-21)
(0.305716 -0.032553 9.9151e-21)
(0.311566 -0.0306898 -1.45068e-21)
(0.31687 -0.028558 -3.52531e-21)
(0.00347843 -0.00219906 -3.6488e-21)
(0.013306 -0.00805393 -3.75515e-22)
(0.0226468 -0.0134438 5.01014e-21)
(0.0316664 -0.0182162 4.70668e-21)
(0.0404825 -0.0223692 -8.46562e-22)
(0.0491997 -0.0259423 8.79167e-21)
(0.0578974 -0.0290001 3.81706e-21)
(0.0666254 -0.0316187 -1.49656e-20)
(0.0754095 -0.0338727 1.0097e-20)
(0.0842588 -0.0358283 -6.52376e-21)
(0.0931715 -0.0375405 1.75516e-20)
(0.10214 -0.0390533 -8.21058e-21)
(0.111155 -0.0404014 -8.7581e-21)
(0.120205 -0.0416117 9.89457e-21)
(0.129279 -0.0427045 -1.80448e-20)
(0.138368 -0.0436956 -7.34239e-21)
(0.147464 -0.0445967 1.06788e-20)
(0.156559 -0.0454167 -8.81903e-21)
(0.165646 -0.0461618 1.55187e-20)
(0.174717 -0.0468361 -5.57056e-21)
(0.183768 -0.0474418 -2.3607e-21)
(0.192789 -0.0479792 2.63189e-21)
(0.201776 -0.048447 1.18101e-21)
(0.210719 -0.0488422 1.46779e-21)
(0.21961 -0.0491599 -5.86359e-22)
(0.22844 -0.0493936 -3.54217e-21)
(0.237196 -0.0495348 6.86528e-21)
(0.245867 -0.0495733 -3.86433e-21)
(0.254435 -0.0494968 -7.33057e-21)
(0.262885 -0.0492909 5.40165e-21)
(0.271196 -0.0489393 -9.78807e-22)
(0.279344 -0.0484233 5.13313e-21)
(0.287303 -0.0477225 -5.24613e-21)
(0.295043 -0.0468142 -1.32593e-21)
(0.302531 -0.0456737 3.60501e-21)
(0.309725 -0.0442757 -9.32607e-21)
(0.316581 -0.0425946 5.17444e-21)
(0.323073 -0.0405944 -4.34637e-21)
(0.329206 -0.0382146 9.43084e-21)
(0.334719 -0.0354842 -5.17497e-21)
(0.00392019 -0.00225727 9.32017e-21)
(0.0149515 -0.00833877 -1.26399e-20)
(0.025494 -0.0140852 7.59571e-22)
(0.0356448 -0.0193548 7.66449e-21)
(0.0454858 -0.0241061 -6.93216e-21)
(0.0551063 -0.0283321 1.04739e-20)
(0.0645886 -0.0320544 -1.04732e-20)
(0.0739976 -0.0353167 9.51253e-21)
(0.0833793 -0.0381727 -5.72363e-21)
(0.0927633 -0.040678 -6.39401e-21)
(0.102166 -0.0428849 9.86828e-21)
(0.111595 -0.0448391 -7.48365e-21)
(0.12105 -0.0465797 1.69744e-20)
(0.13053 -0.0481387 3.6848e-21)
(0.140029 -0.0495421 -1.38877e-20)
(0.149542 -0.0508103 1.03752e-20)
(0.159063 -0.0519597 -2.34828e-21)
(0.168586 -0.0530024 -1.08727e-20)
(0.178105 -0.0539478 1.89986e-21)
(0.187614 -0.0548022 -7.1587e-22)
(0.197107 -0.0555694 1.66229e-21)
(0.206577 -0.0562511 -1.12242e-22)
(0.216018 -0.0568466 3.36861e-21)
(0.225421 -0.0573531 -7.26049e-21)
(0.234778 -0.0577655 6.37012e-21)
(0.244078 -0.0580766 -9.91624e-21)
(0.25331 -0.0582766 3.044e-21)
(0.262458 -0.0583535 7.53708e-21)
(0.271507 -0.0582925 -1.22641e-21)
(0.280438 -0.0580765 7.74135e-21)
(0.289229 -0.0576854 -1.08124e-21)
(0.297852 -0.0570964 -1.34656e-21)
(0.30628 -0.056284 -9.66633e-21)
(0.314477 -0.0552198 3.74417e-21)
(0.322406 -0.0538726 5.18447e-21)
(0.330019 -0.0522102 -1.03021e-20)
(0.337263 -0.0501999 4.31717e-21)
(0.34411 -0.0477931 -1.92914e-22)
(0.350579 -0.0449039 -1.55981e-21)
(0.356343 -0.0415827 -1.20964e-21)
(0.00437946 -0.00230571 2.46612e-21)
(0.0166335 -0.00852219 4.94583e-21)
(0.0283987 -0.0144865 8.90818e-21)
(0.0397342 -0.0200767 -1.34465e-20)
(0.0506941 -0.0252408 1.47708e-21)
(0.0613474 -0.0299496 -1.33413e-20)
(0.0717678 -0.0341964 4.80407e-21)
(0.0820224 -0.037997 -7.55346e-22)
(0.0921668 -0.0413826 9.94557e-21)
(0.102244 -0.0443927 -1.59074e-21)
(0.112284 -0.0470698 -1.13172e-20)
(0.122308 -0.0494551 -3.426e-21)
(0.132328 -0.0515868 2.7916e-21)
(0.142352 -0.0534983 1.37609e-20)
(0.152381 -0.0552181 2.01425e-21)
(0.162416 -0.0567701 -4.56678e-21)
(0.172454 -0.0581737 1.30867e-20)
(0.182493 -0.0594444 -1.8939e-20)
(0.19253 -0.0605941 1.64201e-20)
(0.202558 -0.0616315 4.24205e-21)
(0.212574 -0.0625625 -5.05674e-21)
(0.222572 -0.0633902 2.74883e-21)
(0.232544 -0.0641149 4.27638e-21)
(0.242484 -0.0647343 -5.63985e-21)
(0.252382 -0.0652436 2.6443e-21)
(0.262227 -0.0656349 -1.04917e-21)
(0.272008 -0.0658979 -2.878e-21)
(0.281709 -0.0660188 -1.39629e-21)
(0.291312 -0.0659809 8.8556e-21)
(0.300798 -0.0657642 -1.60505e-20)
(0.31014 -0.0653451 1.70729e-20)
(0.319311 -0.0646966 -5.14156e-21)
(0.328277 -0.0637882 -6.2292e-21)
(0.337 -0.0625852 -3.64499e-22)
(0.345436 -0.0610498 6.73532e-21)
(0.353529 -0.0591424 4.47117e-23)
(0.361218 -0.056823 -6.73882e-21)
(0.36847 -0.0540283 -4.80386e-21)
(0.375318 -0.0506411 7.56129e-21)
(0.381365 -0.0467415 -2.75549e-21)
(0.00485939 -0.00233678 4.24361e-21)
(0.0183666 -0.00861281 -1.10766e-20)
(0.0313759 -0.0146924 -6.93133e-21)
(0.0439294 -0.020471 2.33899e-21)
(0.0560642 -0.0258989 1.14247e-20)
(0.0678331 -0.0309399 2.15682e-21)
(0.0792985 -0.0355717 -5.15439e-21)
(0.0905231 -0.0397908 -4.53685e-21)
(0.101564 -0.0436093 1.82524e-21)
(0.112471 -0.0470504 -1.24421e-21)
(0.123284 -0.0501441 -1.15266e-20)
(0.134032 -0.0529234 1.01157e-20)
(0.14474 -0.0554213 1.23188e-20)
(0.155421 -0.0576691 -5.61236e-21)
(0.166086 -0.059695 -8.34665e-21)
(0.176742 -0.0615239 -1.66901e-20)
(0.187392 -0.0631769 6.90675e-21)
(0.198035 -0.0646717 1.18358e-21)
(0.208672 -0.0660222 2.03915e-21)
(0.219301 -0.0672394 -2.51421e-21)
(0.229916 -0.0683307 -3.41494e-22)
(0.240515 -0.069301 1.12261e-20)
(0.25109 -0.0701518 -5.87238e-21)
(0.261636 -0.0708817 3.70777e-21)
(0.272143 -0.0714862 4.89605e-21)
(0.282601 -0.0719576 -4.43108e-21)
(0.292996 -0.0722849 4.44177e-21)
(0.303314 -0.0724533 -4.02704e-21)
(0.313535 -0.0724443 2.89444e-21)
(0.323638 -0.0722353 9.12233e-22)
(0.333595 -0.0717996 -3.78274e-21)
(0.343375 -0.071106 -2.36254e-23)
(0.352941 -0.0701185 5.5945e-21)
(0.362248 -0.0687966 3.80386e-21)
(0.371247 -0.0670949 -4.65954e-21)
(0.379874 -0.0649663 6.21623e-21)
(0.388055 -0.0623629 -1.86985e-21)
(0.395753 -0.0592049 1.8392e-21)
(0.403013 -0.0553374 -4.34579e-21)
(0.40937 -0.0508759 2.83547e-21)
(0.00535941 -0.00234639 -1.59361e-21)
(0.0201511 -0.00860967 1.57965e-21)
(0.0344249 -0.0147194 -1.39002e-20)
(0.0482187 -0.0205818 1.25467e-20)
(0.0615622 -0.0261536 -7.33243e-21)
(0.0744977 -0.0313991 1.80544e-21)
(0.0870784 -0.0362892 2.14056e-20)
(0.099361 -0.0408084 3.83185e-22)
(0.1114 -0.0449551 3.82375e-22)
(0.123248 -0.0487387 3.46936e-21)
(0.134946 -0.0521768 1.03446e-20)
(0.146534 -0.0552927 -2.90157e-21)
(0.15804 -0.0581123 -2.02729e-20)
(0.169486 -0.060662 1.08261e-20)
(0.18089 -0.0629675 -2.19081e-21)
(0.192263 -0.0650524 -6.72923e-21)
(0.203614 -0.0669381 -1.32653e-21)
(0.214948 -0.0686428 1.38795e-20)
(0.226266 -0.0701818 -1.69347e-20)
(0.23757 -0.0715675 1.10527e-20)
(0.248857 -0.072809 3.38179e-21)
(0.260125 -0.0739124 -8.29825e-21)
(0.271369 -0.0748807 5.96979e-21)
(0.282583 -0.0757136 -3.34934e-21)
(0.293758 -0.0764074 4.84079e-23)
(0.304885 -0.0769548 2.60715e-21)
(0.315951 -0.0773445 -1.78009e-20)
(0.326939 -0.0775612 5.81408e-21)
(0.337831 -0.0775851 -2.12676e-21)
(0.348603 -0.0773915 4.12433e-21)
(0.359226 -0.0769505 -5.06602e-21)
(0.369666 -0.076227 -5.59176e-21)
(0.37988 -0.0751799 5.37033e-21)
(0.389821 -0.0737622 1.25803e-21)
(0.399431 -0.0719208 -9.42879e-22)
(0.408636 -0.0696004 -1.34472e-22)
(0.41735 -0.0667451 2.968e-21)
(0.425526 -0.0632567 9.25717e-22)
(0.433226 -0.0589349 -7.05483e-21)
(0.439914 -0.053936 3.09422e-22)
(0.00587621 -0.00233081 -4.09521e-21)
(0.0219768 -0.00850744 -1.42719e-20)
(0.0375297 -0.0145698 9.85454e-21)
(0.0525769 -0.0204277 3.29776e-21)
(0.0671473 -0.0260443 -5.80052e-21)
(0.0812787 -0.031387 -7.5306e-21)
(0.0950184 -0.0364246 -5.09104e-21)
(0.108418 -0.0411352 3.11819e-21)
(0.121528 -0.0455077 -9.88241e-22)
(0.134398 -0.0495411 1.06115e-21)
(0.147074 -0.0532426 -3.44451e-21)
(0.159595 -0.0566258 -6.78614e-21)
(0.171995 -0.0597088 2.13112e-20)
(0.184302 -0.0625121 -5.83569e-21)
(0.196537 -0.065057 -5.23967e-21)
(0.208716 -0.0673645 -1.08857e-20)
(0.220853 -0.0694544 1.14534e-20)
(0.232956 -0.0713445 2.57525e-21)
(0.245031 -0.0730503 -1.34018e-21)
(0.257081 -0.0745851 -7.79732e-21)
(0.269106 -0.075959 -1.68475e-22)
(0.281105 -0.0771794 5.49891e-21)
(0.293075 -0.0782506 -8.94289e-23)
(0.305011 -0.0791734 1.00582e-21)
(0.316905 -0.0799454 -4.05791e-21)
(0.328749 -0.0805599 9.14661e-21)
(0.340529 -0.0810063 -1.51575e-20)
(0.352231 -0.081269 1.5851e-20)
(0.363834 -0.0813274 -1.73904e-20)
(0.375314 -0.0811553 2.00396e-20)
(0.386641 -0.0807202 -6.28066e-21)
(0.397779 -0.0799833 2.479e-21)
(0.40868 -0.0788986 -2.91135e-21)
(0.419293 -0.0774125 3.31319e-21)
(0.42955 -0.0754638 1.3831e-21)
(0.43937 -0.0729883 -2.31433e-21)
(0.448649 -0.0699218 -5.60094e-21)
(0.457332 -0.066146 3.09961e-21)
(0.46549 -0.0614075 4.52448e-21)
(0.472524 -0.0559062 -9.46473e-22)
(0.00640376 -0.00228593 4.79348e-21)
(0.0238241 -0.00829837 3.32531e-21)
(0.0406598 -0.0142391 1.42516e-20)
(0.0569628 -0.0200137 -1.24706e-20)
(0.0727654 -0.0255902 2.40368e-21)
(0.0881055 -0.0309393 -4.17344e-21)
(0.103028 -0.0360293 1.21883e-21)
(0.117579 -0.0408347 4.98981e-21)
(0.131808 -0.0453386 -2.76162e-21)
(0.145761 -0.0495323 5.54852e-22)
(0.159483 -0.0534145 5.82193e-21)
(0.173012 -0.0569908 -6.53473e-21)
(0.186386 -0.0602715 4.31835e-21)
(0.199632 -0.0632708 9.24486e-21)
(0.212778 -0.0660051 -1.13091e-20)
(0.225842 -0.0684916 5.81102e-21)
(0.23884 -0.0707475 8.12232e-21)
(0.251784 -0.0727892 -1.26977e-20)
(0.264683 -0.0746317 -6.98119e-21)
(0.277541 -0.0762881 2.05459e-20)
(0.290362 -0.0777693 -2.00165e-20)
(0.303146 -0.0790836 6.49507e-21)
(0.315892 -0.0802364 8.01008e-21)
(0.328595 -0.0812302 -5.26628e-22)
(0.341249 -0.0820636 4.14614e-21)
(0.353846 -0.0827314 -8.61845e-22)
(0.366375 -0.0832238 -7.40383e-21)
(0.37882 -0.0835259 -3.32208e-21)
(0.391161 -0.0836172 1.44909e-20)
(0.403376 -0.0834707 -4.56944e-21)
(0.415432 -0.083052 -4.43898e-21)
(0.427292 -0.0823191 -3.16562e-21)
(0.438906 -0.0812215 4.06261e-21)
(0.450215 -0.0796989 -7.42902e-21)
(0.461149 -0.0776817 6.625e-21)
(0.471611 -0.0750962 -4.80138e-22)
(0.481482 -0.0718692 -2.41894e-21)
(0.490694 -0.0678602 -7.23264e-21)
(0.499326 -0.062755 7.96767e-22)
(0.50672 -0.0567969 1.21716e-21)
(0.00693341 -0.00220776 4.66134e-21)
(0.0256648 -0.00797458 -3.10139e-21)
(0.0437718 -0.0137208 -1.66221e-22)
(0.0613194 -0.0193397 -3.09254e-21)
(0.0783469 -0.0248013 1.25361e-20)
(0.0948947 -0.0300787 -1.93323e-21)
(0.111007 -0.0351395 1.07159e-20)
(0.126729 -0.0399559 2.69615e-22)
(0.142106 -0.0445069 -1.36439e-20)
(0.157181 -0.0487781 1.68415e-20)
(0.171996 -0.0527619 -3.96411e-21)
(0.18659 -0.056457 -9.0157e-21)
(0.200997 -0.0598672 -1.49468e-20)
(0.215249 -0.0630006 6.97427e-21)
(0.229371 -0.0658683 2.96929e-21)
(0.243384 -0.0684835 -2.26984e-21)
(0.257308 -0.0708602 3.82181e-21)
(0.271155 -0.0730125 9.59404e-23)
(0.284936 -0.0749543 1.74356e-20)
(0.298658 -0.0766981 -1.86329e-20)
(0.312325 -0.0782548 8.02239e-22)
(0.32594 -0.0796335 -1.91467e-21)
(0.339501 -0.0808407 -3.79446e-21)
(0.353007 -0.0818801 2.95999e-22)
(0.366452 -0.0827522 2.70191e-21)
(0.379828 -0.0834534 6.57714e-22)
(0.393126 -0.0839756 6.15204e-22)
(0.406332 -0.0843055 -8.14502e-21)
(0.419426 -0.0844236 8.33304e-21)
(0.432387 -0.0843031 -7.63554e-21)
(0.445182 -0.083909 -1.16079e-21)
(0.457774 -0.0831972 9.11727e-21)
(0.470112 -0.0821131 -1.12203e-21)
(0.482133 -0.0805904 -4.30745e-21)
(0.493759 -0.0785506 6.19903e-21)
(0.504884 -0.0759097 -1.99518e-21)
(0.515371 -0.0725844 -2.70209e-21)
(0.525134 -0.06841 3.22064e-21)
(0.534255 -0.0630026 -2.90291e-21)
(0.542026 -0.0566438 1.08631e-20)
(0.00745384 -0.00209274 3.27164e-22)
(0.0274624 -0.00752964 -1.38981e-21)
(0.0468091 -0.0130097 8.43901e-21)
(0.0655745 -0.0184053 -4.64439e-21)
(0.0838059 -0.0236856 5.02435e-22)
(0.101548 -0.0288235 -6.34408e-21)
(0.118845 -0.0337851 -8.52475e-21)
(0.135742 -0.03854 -4.06442e-21)
(0.15228 -0.043064 7.35363e-21)
(0.168501 -0.0473386 5.32022e-21)
(0.184441 -0.051351 -3.74995e-21)
(0.200138 -0.0550945 6.37265e-22)
(0.215624 -0.0585671 -4.60504e-21)
(0.23093 -0.0617718 -1.33359e-21)
(0.246079 -0.0647147 -5.84613e-21)
(0.261096 -0.0674048 1.75767e-20)
(0.275997 -0.0698527 -1.13835e-20)
(0.290797 -0.07207 3.30166e-21)
(0.305508 -0.0740687 -7.06573e-21)
(0.320139 -0.0758604 3.74631e-21)
(0.334693 -0.0774556 1.41736e-20)
(0.349175 -0.0788638 -5.63661e-21)
(0.363584 -0.0800924 9.88461e-21)
(0.377919 -0.0811466 -4.20564e-21)
(0.392176 -0.0820286 -6.621e-22)
(0.406348 -0.0827372 3.53126e-21)
(0.420426 -0.0832666 -7.56245e-21)
(0.434398 -0.0836061 1.0986e-20)
(0.448247 -0.0837385 -1.58355e-20)
(0.461951 -0.0836388 1.04017e-20)
(0.475481 -0.083273 -3.16248e-21)
(0.4888 -0.0825965 6.82623e-21)
(0.501858 -0.0815522 -1.07964e-20)
(0.51459 -0.0800686 7.64866e-21)
(0.526914 -0.0780585 4.12199e-21)
(0.538715 -0.075427 6.33537e-21)
(0.549838 -0.0720792 -5.36033e-21)
(0.560176 -0.0678234 2.36101e-21)
(0.569809 -0.0621959 4.31925e-21)
(0.577983 -0.0555063 -8.5117e-21)
(0.00795075 -0.00193804 -3.91136e-21)
(0.0291713 -0.00696001 1.0183e-20)
(0.0497027 -0.0121051 -3.18679e-21)
(0.0696407 -0.0172149 -2.78402e-21)
(0.0890408 -0.0222544 -2.08246e-21)
(0.107951 -0.027194 7.64606e-22)
(0.126418 -0.0319961 7.66893e-22)
(0.144483 -0.0366272 2.67922e-21)
(0.162185 -0.04106 5.17093e-21)
(0.179561 -0.0452723 -7.87714e-21)
(0.196645 -0.0492474 1.06417e-20)
(0.21347 -0.052974 -8.4061e-21)
(0.230066 -0.0564458 1.12463e-20)
(0.24646 -0.0596609 -6.54113e-21)
(0.262675 -0.0626213 6.3216e-22)
(0.278733 -0.0653319 7.84185e-21)
(0.294652 -0.0677999 1.0773e-21)
(0.310445 -0.0700344 2.58545e-21)
(0.326125 -0.072045 -2.59586e-21)
(0.341698 -0.0738421 -1.10961e-20)
(0.357172 -0.0754355 5.97361e-21)
(0.372549 -0.0768346 -3.97224e-21)
(0.38783 -0.0780476 1.0462e-20)
(0.403013 -0.0790809 -6.55819e-21)
(0.418095 -0.0799388 -5.37328e-22)
(0.43307 -0.0806225 -3.96004e-22)
(0.44793 -0.0811295 6.65734e-22)
(0.462663 -0.0814526 9.90825e-21)
(0.477255 -0.0815783 -8.24033e-21)
(0.491687 -0.0814854 -8.23034e-21)
(0.505933 -0.0811433 5.18683e-21)
(0.519959 -0.0805092 -3.58796e-21)
(0.533717 -0.0795264 2.13568e-21)
(0.547145 -0.0781202 3.62039e-21)
(0.56016 -0.076196 -6.63563e-21)
(0.572641 -0.073648 1.6553e-22)
(0.584418 -0.0703683 5.48805e-21)
(0.595363 -0.0661343 -3.35582e-21)
(0.605541 -0.0603906 4.08106e-21)
(0.614163 -0.053457 9.82844e-22)
(0.00840632 -0.00174189 2.13734e-21)
(0.0307369 -0.0062667 -3.74776e-21)
(0.0523704 -0.0110129 5.29428e-21)
(0.0734163 -0.0157809 1.08585e-21)
(0.0939359 -0.0205278 1.4603e-21)
(0.113979 -0.0252181 -7.67967e-21)
(0.13359 -0.0298085 9.47199e-21)
(0.152808 -0.0342619 -5.21224e-21)
(0.171667 -0.0385474 1.40755e-21)
(0.1902 -0.0426397 -1.94022e-22)
(0.208435 -0.0465186 -6.79947e-21)
(0.226402 -0.0501692 -6.18085e-21)
(0.244126 -0.0535816 1.9066e-21)
(0.26163 -0.05675 -1.17017e-20)
(0.278936 -0.0596726 6.67291e-23)
(0.296063 -0.0623509 7.4461e-21)
(0.313027 -0.0647889 -1.60069e-21)
(0.329842 -0.0669928 -3.33681e-21)
(0.346516 -0.0689702 -2.15256e-21)
(0.363059 -0.0707295 6.63816e-21)
(0.379476 -0.0722797 -3.28581e-21)
(0.395768 -0.0736297 -1.6039e-20)
(0.411937 -0.074788 1.2982e-20)
(0.42798 -0.0757621 6.14372e-22)
(0.443894 -0.0765579 -1.1928e-20)
(0.459673 -0.0771794 5.11077e-21)
(0.475309 -0.0776277 6.82148e-21)
(0.490792 -0.0778998 2.0555e-21)
(0.506109 -0.0779874 -3.25977e-21)
(0.521244 -0.0778754 2.52467e-21)
(0.536175 -0.0775389 3.66546e-21)
(0.550872 -0.0769411 -1.15563e-20)
(0.565295 -0.0760293 9.53525e-21)
(0.579387 -0.0747301 2.3918e-21)
(0.593069 -0.0729453 8.364e-23)
(0.606223 -0.0705596 -9.5685e-21)
(0.618669 -0.067452 -1.41452e-21)
(0.630257 -0.0633652 1.88706e-22)
(0.641036 -0.0576361 4.77834e-21)
(0.650179 -0.0505672 3.05661e-21)
(0.00879741 -0.00150326 -3.15076e-21)
(0.0320916 -0.00545642 2.26043e-21)
(0.0547148 -0.00974802 7.73827e-22)
(0.0767837 -0.0141254 8.43952e-21)
(0.0983612 -0.0185353 7.8816e-22)
(0.119493 -0.0229319 -7.8388e-21)
(0.140218 -0.0272648 -1.10911e-21)
(0.160567 -0.0314929 -2.79968e-22)
(0.180571 -0.0355816 8.41203e-21)
(0.200253 -0.0395023 -9.64668e-21)
(0.219639 -0.0432322 -5.64166e-22)
(0.238751 -0.0467534 4.78052e-21)
(0.25761 -0.050053 -4.76684e-21)
(0.276235 -0.0531221 1.16596e-20)
(0.294646 -0.0559558 -9.62209e-21)
(0.312857 -0.0585524 -8.64473e-21)
(0.330884 -0.0609131 -4.5364e-21)
(0.348736 -0.0630413 1.68458e-20)
(0.366423 -0.0649423 -3.77254e-21)
(0.383951 -0.0666227 -7.46204e-22)
(0.401324 -0.0680901 3.13349e-22)
(0.418545 -0.0693523 5.48685e-21)
(0.435611 -0.0704178 -4.46446e-21)
(0.452521 -0.0712943 -1.60426e-20)
(0.46927 -0.0719892 4.82107e-21)
(0.485851 -0.0725086 1.19497e-21)
(0.502256 -0.0728569 -3.78759e-21)
(0.518475 -0.0730359 8.13988e-21)
(0.534496 -0.0730433 -1.0123e-20)
(0.550305 -0.0728713 6.18718e-22)
(0.565883 -0.0725042 -5.81826e-22)
(0.581208 -0.0719148 -1.9062e-21)
(0.596246 -0.0710605 9.79019e-21)
(0.610953 -0.0698762 -8.15447e-21)
(0.625263 -0.0682671 1.13685e-21)
(0.639065 -0.0661153 -1.54531e-21)
(0.652184 -0.0632902 4.58504e-21)
(0.664458 -0.0594969 -1.28803e-20)
(0.675916 -0.0539464 1.14543e-20)
(0.685698 -0.0468834 -3.16644e-21)
(0.00909077 -0.00122035 4.70299e-21)
(0.033154 -0.00454707 -5.79031e-21)
(0.0566256 -0.00834003 -1.51638e-21)
(0.0796144 -0.0122854 2.65667e-21)
(0.102179 -0.0163212 -2.15488e-21)
(0.124351 -0.0203846 -3.08169e-21)
(0.146155 -0.0244179 5.25247e-21)
(0.167611 -0.0283769 1.63052e-21)
(0.188741 -0.0322235 4.73765e-21)
(0.209561 -0.0359259 5.97717e-21)
(0.230088 -0.0394589 -8.3874e-21)
(0.25034 -0.0428023 8.04872e-21)
(0.270332 -0.0459408 -1.71775e-21)
(0.290079 -0.0488631 4.85058e-21)
(0.309596 -0.0515614 1.74462e-21)
(0.328896 -0.0540316 1.08361e-20)
(0.34799 -0.0562721 -4.38692e-21)
(0.366886 -0.0582839 -6.18961e-21)
(0.385591 -0.0600698 -1.22367e-20)
(0.404111 -0.0616345 2.5431e-20)
(0.422448 -0.0629836 -7.79161e-21)
(0.440601 -0.0641238 1.00818e-20)
(0.458569 -0.0650624 -7.68382e-21)
(0.476348 -0.065807 6.23962e-21)
(0.493932 -0.0663652 -1.0907e-21)
(0.511313 -0.0667444 7.96665e-21)
(0.528481 -0.0669512 -4.95336e-21)
(0.545425 -0.0669913 4.89928e-21)
(0.562134 -0.066868 5.05628e-21)
(0.578592 -0.0665814 -8.71312e-21)
(0.594785 -0.0661262 -2.64638e-21)
(0.610694 -0.0654887 1.00252e-20)
(0.626296 -0.0646422 1.19866e-21)
(0.64156 -0.063539 -3.74213e-21)
(0.656437 -0.0621007 3.03839e-21)
(0.670842 -0.0602202 -9.91343e-21)
(0.684621 -0.0577704 9.69073e-21)
(0.697619 -0.0544277 1.07055e-21)
(0.70986 -0.0492606 -7.79784e-22)
(0.720457 -0.042384 3.80185e-21)
(0.00923958 -0.000903861 -1.76875e-21)
(0.0338331 -0.00360078 3.16352e-21)
(0.0580028 -0.00686689 1.47031e-22)
(0.0818053 -0.010348 -1.90616e-21)
(0.10529 -0.0139863 -1.90146e-21)
(0.128458 -0.0176837 6.86792e-21)
(0.151305 -0.0213764 -2.12031e-21)
(0.173841 -0.0250239 -4.408e-21)
(0.196073 -0.0285846 -9.99551e-23)
(0.21801 -0.0320235 1.33305e-22)
(0.239662 -0.0353138 2.56222e-21)
(0.261038 -0.0384338 3.66166e-23)
(0.28215 -0.0413663 -1.12571e-20)
(0.303008 -0.0440976 1.84674e-21)
(0.323622 -0.0466181 -9.49748e-22)
(0.344002 -0.0489211 9.85655e-22)
(0.364155 -0.0510029 4.18109e-21)
(0.384089 -0.0528619 4.67412e-21)
(0.403807 -0.0544989 -6.43755e-21)
(0.423314 -0.0559161 3.64068e-21)
(0.442609 -0.0571173 -3.87395e-21)
(0.461692 -0.0581073 4.90244e-21)
(0.480559 -0.0588919 -6.72635e-21)
(0.499204 -0.0594772 1.3125e-20)
(0.51762 -0.0598702 -1.48675e-20)
(0.535797 -0.060078 -4.15091e-21)
(0.553725 -0.0601077 -1.207e-21)
(0.571391 -0.0599666 8.11496e-21)
(0.588781 -0.0596615 -7.67001e-21)
(0.605879 -0.0591982 6.30443e-21)
(0.622671 -0.0585805 -6.94214e-21)
(0.63914 -0.0578083 1.4801e-21)
(0.655268 -0.0568743 -7.62178e-22)
(0.671036 -0.0557563 1.64204e-21)
(0.686419 -0.0544063 3.93383e-21)
(0.701365 -0.0527513 -1.92029e-21)
(0.715763 -0.0507014 -2.57528e-21)
(0.729506 -0.0479441 6.20787e-21)
(0.74266 -0.0433942 2.15494e-21)
(0.754342 -0.036916 -5.38128e-21)
(0.00914269 -0.000553949 -4.6529e-21)
(0.0339155 -0.00264708 -5.1546e-21)
(0.0586108 -0.00532572 2.05091e-21)
(0.0831574 -0.00831925 -2.78833e-21)
(0.107506 -0.0115382 -1.18308e-21)
(0.131637 -0.0148321 2.56961e-21)
(0.155494 -0.0181318 7.55769e-23)
(0.179078 -0.0214218 3.93408e-22)
(0.202384 -0.0246522 -1.444e-22)
(0.225411 -0.0277839 -1.95709e-21)
(0.24816 -0.0307891 2.85834e-21)
(0.270636 -0.0336448 7.12952e-21)
(0.292844 -0.0363318 2.39415e-21)
(0.31479 -0.0388346 -8.29932e-21)
(0.33648 -0.0411416 -1.28182e-21)
(0.35792 -0.043244 5.72168e-21)
(0.379115 -0.0451361 -5.28105e-21)
(0.40007 -0.046814 1.11569e-20)
(0.420786 -0.0482765 -6.68701e-21)
(0.441265 -0.0495235 -4.80622e-21)
(0.461505 -0.0505568 8.37804e-22)
(0.481505 -0.051379 8.34639e-21)
(0.501259 -0.051994 -3.69596e-21)
(0.520761 -0.0524059 -6.57674e-21)
(0.540003 -0.0526198 2.71067e-21)
(0.558974 -0.052641 -3.30195e-21)
(0.577663 -0.0524752 7.85019e-22)
(0.596054 -0.0521283 -5.30659e-21)
(0.614134 -0.0516068 6.5713e-21)
(0.631885 -0.0509176 1.8735e-21)
(0.64929 -0.0500677 -7.75897e-21)
(0.666332 -0.0490648 4.23737e-21)
(0.682994 -0.0479155 -4.86239e-21)
(0.699263 -0.0466215 1.4525e-21)
(0.715126 -0.0451708 -1.11092e-21)
(0.730563 -0.0435475 -8.54495e-22)
(0.745519 -0.0417528 1.6359e-21)
(0.759965 -0.0395506 3.73238e-21)
(0.774093 -0.0357102 -1.05563e-20)
(0.787181 -0.0298236 -2.41817e-21)
(0.0086241 -7.14793e-06 1.35839e-21)
(0.0330895 -0.00147304 -6.16015e-22)
(0.0580639 -0.00352142 -7.39798e-21)
(0.0832226 -0.00594143 -2.39837e-21)
(0.108354 -0.00863405 -1.75492e-21)
(0.133368 -0.0114318 -6.36525e-21)
(0.158199 -0.0142746 2.02242e-21)
(0.1828 -0.0171736 -1.94748e-21)
(0.207151 -0.0200452 2.20297e-21)
(0.231241 -0.0228447 1.09666e-21)
(0.255063 -0.0255427 4.22178e-21)
(0.278614 -0.0281139 -7.03373e-21)
(0.301896 -0.0305368 -4.09672e-21)
(0.324908 -0.0327943 1.68338e-21)
(0.347654 -0.0348728 -2.39477e-21)
(0.370136 -0.0367618 2.5783e-22)
(0.392355 -0.0384532 3.77961e-21)
(0.414314 -0.0399417 -5.74443e-21)
(0.436011 -0.0412238 -1.47042e-22)
(0.457447 -0.0422978 -2.77086e-21)
(0.478619 -0.0431632 4.67911e-21)
(0.499523 -0.043821 -8.9169e-21)
(0.520154 -0.0442727 -3.91576e-21)
(0.540505 -0.0445206 -1.15985e-21)
(0.560567 -0.0445674 8.37643e-21)
(0.580331 -0.0444159 -6.1155e-21)
(0.599784 -0.0440688 3.64768e-21)
(0.618913 -0.043529 1.32703e-21)
(0.637704 -0.0427989 -3.0058e-21)
(0.656143 -0.0418812 6.51665e-21)
(0.674212 -0.0407783 -5.41388e-21)
(0.691895 -0.0394933 2.89721e-21)
(0.709178 -0.0380305 -2.21759e-21)
(0.726046 -0.0363931 2.12149e-21)
(0.742494 -0.0345824 1.29816e-20)
(0.758512 -0.0326222 -1.2153e-20)
(0.774073 -0.0305852 -9.72912e-21)
(0.789195 -0.0282959 1.03463e-20)
(0.804194 -0.0245501 5.45025e-21)
(0.818883 -0.0191651 -8.53934e-21)
(0.00941774 -0.000293215 3.2252e-22)
(0.0338266 -0.00186358 -1.50658e-21)
(0.0590919 -0.00350612 1.81276e-21)
(0.0847536 -0.00541009 -4.40002e-22)
(0.110547 -0.00755158 2.02117e-21)
(0.136314 -0.0098331 4.29697e-21)
(0.16199 -0.0122217 -1.65043e-21)
(0.187495 -0.0146628 -2.98065e-21)
(0.212786 -0.0171016 2.37473e-21)
(0.23784 -0.019499 -9.13831e-21)
(0.262641 -0.0218222 3.64786e-21)
(0.287179 -0.0240429 -5.72165e-21)
(0.311449 -0.0261379 7.21845e-21)
(0.335445 -0.0280883 -7.71008e-22)
(0.359167 -0.0298787 -6.20105e-21)
(0.382613 -0.0314969 1.25453e-22)
(0.40578 -0.0329334 1.60737e-21)
(0.428668 -0.0341811 5.79084e-21)
(0.451275 -0.035235 -2.37674e-21)
(0.473596 -0.0360918 -7.56755e-21)
(0.495629 -0.0367494 7.81584e-21)
(0.517369 -0.037207 -1.01565e-20)
(0.538808 -0.0374647 -2.99266e-21)
(0.559941 -0.0375229 -6.34099e-21)
(0.580758 -0.0373824 1.57226e-20)
(0.601252 -0.0370439 -7.59421e-21)
(0.621411 -0.0365077 8.54662e-21)
(0.641226 -0.0357734 3.09267e-22)
(0.660687 -0.0348396 -1.68562e-21)
(0.679785 -0.0337032 -6.56623e-22)
(0.698512 -0.032359 3.46719e-21)
(0.716864 -0.0307991 7.5959e-21)
(0.734841 -0.0290118 -1.15931e-20)
(0.752459 -0.0269787 6.17994e-21)
(0.76975 -0.0246749 -1.99881e-21)
(0.786785 -0.0220824 -6.61405e-21)
(0.803695 -0.0191846 6.34954e-21)
(0.820793 -0.0158293 -2.78286e-22)
(0.838938 -0.011682 1.49461e-21)
(0.860044 -0.00744497 -1.54625e-21)
(0.0108126 -0.00102114 -4.50048e-22)
(0.0364428 -0.0031052 7.75932e-21)
(0.0624253 -0.00485059 8.13163e-21)
(0.088687 -0.00656309 -2.2595e-21)
(0.115098 -0.0083497 2.66216e-21)
(0.141545 -0.0102145 1.35392e-21)
(0.167946 -0.012145 1.37269e-21)
(0.194228 -0.0141129 2.6386e-21)
(0.220342 -0.0160865 -8.03865e-22)