/*--------------------------------*- C++ -*----------------------------------*\
  =========                 |
  \\      /  F ield         | OpenFOAM: The Open Source CFD Toolbox
   \\    /   O peration     | Website:  https://openfoam.org
    \\  /    A nd           | Version:  7
     \\/     M anipulation  |
\*---------------------------------------------------------------------------*/
FoamFile
{
    version     2.0;
    format      ascii;
    class       volScalarField;
    location    "3.9";
    object      rho;
}
// * * * * * * * * * * * * * * * * * * * * * * * * * * * * * * * * * * * * * //

dimensions      [1 -3 0 0 0 0 0];

internalField   nonuniform List<scalar> 
3700
(
0.272934
0.387747
0.468046
0.518223
0.540728
0.542198
0.51133
0.507965
0.538553
0.562977
0.606174
0.629001
0.639237
0.679243
0.698747
0.711354
0.716781
0.717898
0.735228
0.729706
0.184445
0.16491
0.178106
0.167563
0.166592
0.167086
0.157814
0.163136
0.188339
0.224575
0.255261
0.250683
0.223304
0.218272
0.234332
0.259193
0.274376
0.284913
0.304569
0.323248
0.178811
0.141907
0.122318
0.0938224
0.0704763
0.0704015
0.0742708
0.0898953
0.101443
0.109978
0.114361
0.113871
0.113886
0.116173
0.121595
0.134067
0.150225
0.165739
0.179587
0.188455
0.170522
0.134909
0.115537
0.0798583
0.0618263
0.06371
0.0698926
0.0918181
0.109043
0.127997
0.152021
0.16155
0.170223
0.173185
0.174523
0.175146
0.181975
0.198648
0.220204
0.258894
0.147073
0.120583
0.103232
0.0666768
0.058451
0.061616
0.0687843
0.0888829
0.106313
0.127815
0.160033
0.182116
0.206626
0.224224
0.23881
0.23734
0.231516
0.234505
0.247587
0.302901
0.114549
0.10553
0.0792003
0.0570158
0.0586353
0.06594
0.0790125
0.0949272
0.107931
0.126553
0.156156
0.184988
0.22357
0.260642
0.291107
0.319927
0.334904
0.350581
0.354379
0.389754
0.0944055
0.0832207
0.0566815
0.0565298
0.068926
0.0910558
0.114787
0.134609
0.146531
0.164661
0.170537
0.186838
0.228273
0.278262
0.323729
0.375707
0.425941
0.475017
0.504789
0.559187
0.0767007
0.0625334
0.0521896
0.0574414
0.0755946
0.108356
0.144741
0.17769
0.211061
0.245025
0.249036
0.26646
0.282409
0.317016
0.364529
0.428798
0.505272
0.590451
0.659482
0.785291
0.0571515
0.0520602
0.0544422
0.0571208
0.0750589
0.111605
0.150277
0.192218
0.257572
0.315276
0.361539
0.403752
0.442512
0.488407
0.518593
0.560632
0.620397
0.732222
0.83898
1.04617
0.0404496
0.0470763
0.0545955
0.0573332
0.0725956
0.109362
0.144024
0.186807
0.267078
0.357549
0.444401
0.51876
0.608133
0.681839
0.74839
0.81751
0.883314
0.973319
1.11361
1.33319
0.0294852
0.0389022
0.0521595
0.0610045
0.0795136
0.131199
0.162841
0.197653
0.265458
0.378108
0.508023
0.624285
0.764273
0.873778
0.996812
1.12059
1.24393
1.35192
1.58637
1.56071
0.0233177
0.0324452
0.0488003
0.071422
0.121572
0.200415
0.253471
0.33421
0.445125
0.564335
0.705041
0.84638
1.00048
1.13714
1.2973
1.4947
1.70013
1.87864
2.15882
2.08509
0.0218841
0.0325625
0.0538423
0.108431
0.201347
0.296786
0.398599
0.558972
0.749365
0.955034
1.13209
1.30297
1.47135
1.6268
1.80492
2.03733
2.30469
2.5623
2.92674
2.91197
0.0261404
0.0414164
0.0747691
0.155618
0.264178
0.367811
0.527156
0.757884
1.03641
1.35287
1.60339
1.85546
2.09873
2.33988
2.6256
2.93723
3.24179
3.5765
3.88336
4.15797
0.0299908
0.0534666
0.100486
0.175914
0.292763
0.435138
0.711726
1.06196
1.50366
1.94062
2.30368
2.64224
2.97499
3.32411
3.75551
4.14895
4.51921
4.86783
5.09213
5.26326
0.0255553
0.0597011
0.117551
0.171053
0.377617
0.846584
1.43742
2.04881
2.70871
3.23338
3.6236
3.98814
4.36268
4.78065
5.23181
5.49962
5.65258
5.72267
5.59833
5.43359
0.0128617
0.0480922
0.165014
0.465051
1.13606
2.02799
2.86143
3.68987
4.50117
4.99969
5.28786
5.59248
5.88121
6.10988
6.22619
6.11885
5.81347
5.06835
3.8758
2.63108
0.0459673
0.19919
0.679898
1.67296
2.96259
4.03197
4.92377
5.85931
6.62816
6.71378
6.59586
6.59822
6.54008
6.3086
5.60131
4.27086
2.91772
1.86172
1.42473
1.39008
0.431029
1.21874
2.79069
4.44842
5.7967
6.67286
7.48786
8.15339
7.96504
7.34588
6.74977
6.00711
4.7367
3.25405
1.9978
1.44196
1.38525
1.39298
1.3963
1.39923
3.23914
5.07277
6.79867
7.9176
8.5621
8.86673
9.0738
8.63971
6.30723
4.45644
3.30196
2.18835
1.51353
1.38244
1.39001
1.39478
1.39882
1.39997
1.40003
1.40002
9.70002
9.60412
9.55117
9.54984
9.61226
9.36915
8.33224
3.19939
0.916107
1.40001
1.40001
1.40001
1.40001
1.40001
1.40001
1.40001
1.40001
1.40001
1.40001
1.40001
9.69804
9.57726
9.47398
9.43223
9.49238
7.96135
3.63522
1.42715
1.40001
1.40001
1.40001
1.40001
1.40001
1.40001
1.40001
1.40001
1.40001
1.40001
1.40001
1.40001
9.44883
9.5004
9.45691
9.29343
8.93609
4.59362
1.43445
1.39937
1.40001
1.40001
1.40001
1.40001
1.40001
1.40001
1.40001
1.40001
1.40001
1.40001
1.40001
1.40001
9.24733
9.45845
9.42484
8.88725
6.45325
1.96613
1.39295
1.40013
1.4
1.40001
1.40001
1.40001
1.40001
1.40001
1.40001
1.40001
1.40001
1.40001
1.40001
1.40001
9.02991
9.44201
9.45901
8.40723
3.88506
1.36403
1.4005
1.4
1.40001
1.40001
1.40001
1.40001
1.40001
1.40001
1.40001
1.40001
1.40001
1.40001
1.40001
1.40001
8.89592
9.39944
9.47992
7.03096
1.9529
1.40001
1.40001
1.40001
1.40001
1.40001
1.40001
1.40001
1.40001
1.40001
1.40001
1.40001
1.40001
1.40001
1.40001
1.40001
8.84779
9.25985
9.17557
4.84656
1.36436
1.40001
1.40001
1.40001
1.40001
1.40001
1.40001
1.40001
1.40001
1.40001
1.40001
1.40001
1.40001
1.40001
1.40001
1.40001
8.95517
9.1968
8.42225
2.95272
1.40001
1.40001
1.40001
1.40001
1.40001
1.40001
1.40001
1.40001
1.40001
1.40001
1.40001
1.40001
1.40001
1.40001
1.40001
1.40001
9.69087
9.3276
6.90088
1.65912
1.40001
1.40001
1.40001
1.40001
1.40001
1.40001
1.40001
1.40001
1.40001
1.40001
1.40001
1.40001
1.40001
1.40001
1.40001
1.40001
10.1034
8.86389
4.87742
1.38262
1.40001
1.40001
1.40001
1.40001
1.40001
1.40001
1.40001
1.40001
1.40001
1.40001
1.40001
1.40001
1.40001
1.40001
1.40001
1.40001
10.3355
8.36867
3.16545
1.40001
1.40001
1.40001
1.40001
1.40001
1.40001
1.40001
1.40001
1.40001
1.40001
1.40001
1.40001
1.40001
1.40001
1.40001
1.40001
1.40001
10.3755
7.43629
2.20355
1.40001
1.40001
1.40001
1.40001
1.40001
1.40001
1.40001
1.40001
1.40001
1.40001
1.40001
1.40001
1.40001
1.40001
1.40001
1.40001
1.40001
10.4219
6.51197
1.61632
1.40001
1.40001
1.40001
1.40001
1.40001
1.40001
1.40001
1.40001
1.40001
1.40001
1.40001
1.40001
1.40001
1.40001
1.40001
1.40001
1.40001
10.197
5.53486
1.4054
1.40001
1.40001
1.40001
1.40001
1.40001
1.40001
1.40001
1.40001
1.40001
1.40001
1.40001
1.40001
1.40001
1.40001
1.40001
1.40001
1.40001
10.0249
4.43024
1.40001
1.40001
1.40001
1.40001
1.40001
1.40001
1.40001
1.40001
1.40001
1.40001
1.40001
1.40001
1.40001
1.40001
1.40001
1.40001
1.40001
1.40001
9.5447
3.58961
1.40001
1.40001
1.40001
1.40001
1.40001
1.40001
1.40001
1.40001
1.40001
1.40001
1.40001
1.40001
1.40001
1.40001
1.40001
1.40001
1.40001
1.40001
9.23987
2.73959
1.40001
1.40001
1.40001
1.40001
1.40001
1.40001
1.40001
1.40001
1.40001
1.40001
1.40001
1.40001
1.40001
1.40001
1.40001
1.40001
1.40001
1.40001
8.81124
1.91233
1.40001
1.40001
1.40001
1.40001
1.40001
1.40001
1.40001
1.40001
1.40001
1.40001
1.40001
1.40001
1.40001
1.40001
1.40001
1.40001
1.40001
1.40001
7.79781
1.40714
1.40001
1.40001
1.40001
1.40001
1.40001
1.40001
1.40001
1.40001
1.40001
1.40001
1.40001
1.40001
1.40001
1.40001
1.40001
1.40001
1.40001
1.40001
6.479
1.40006
1.40001
1.40001
1.40001
1.40001
1.40001
1.40001
1.40001
1.40001
1.40001
1.40001
1.40001
1.40001
1.40001
1.40001
1.40001
1.40001
1.40001
1.40001
6.48671
1.40006
1.40001
1.40001
1.40001
1.40001
1.40001
1.40001
1.40001
1.40001
1.40001
1.40001
1.40001
1.40001
1.40001
1.40001
1.40001
1.40001
1.40001
1.40001
7.80728
1.40696
1.40001
1.40001
1.40001
1.40001
1.40001
1.40001
1.40001
1.40001
1.40001
1.40001
1.40001
1.40001
1.40001
1.40001
1.40001
1.40001
1.40001
1.40001
8.80127
1.90466
1.40001
1.40001
1.40001
1.40001
1.40001
1.40001
1.40001
1.40001
1.40001
1.40001
1.40001
1.40001
1.40001
1.40001
1.40001
1.40001
1.40001
1.40001
9.25517
2.72295
1.40001
1.40001
1.40001
1.40001
1.40001
1.40001
1.40001
1.40001
1.40001
1.40001
1.40001
1.40001
1.40001
1.40001
1.40001
1.40001
1.40001
1.40001
9.54072
3.59061
1.40001
1.40001
1.40001
1.40001
1.40001
1.40001
1.40001
1.40001
1.40001
1.40001
1.40001
1.40001
1.40001
1.40001
1.40001
1.40001
1.40001
1.40001
10.0299
4.44145
1.40001
1.40001
1.40001
1.40001
1.40001
1.40001
1.40001
1.40001
1.40001
1.40001
1.40001
1.40001
1.40001
1.40001
1.40001
1.40001
1.40001
1.40001
10.2086
5.55154
1.40953
1.40001
1.40001
1.40001
1.40001
1.40001
1.40001
1.40001
1.40001
1.40001
1.40001
1.40001
1.40001
1.40001
1.40001
1.40001
1.40001
1.40001
10.426
6.53149
1.62189
1.40001
1.40001
1.40001
1.40001
1.40001
1.40001
1.40001
1.40001
1.40001
1.40001
1.40001
1.40001
1.40001
1.40001
1.40001
1.40001
1.40001
10.362
7.42843
2.21166
1.40001
1.40001
1.40001
1.40001
1.40001
1.40001
1.40001
1.40001
1.40001
1.40001
1.40001
1.40001
1.40001
1.40001
1.40001
1.40001
1.40001
10.3207
8.36557
3.16128
1.40001
1.40001
1.40001
1.40001
1.40001
1.40001
1.40001
1.40001
1.40001
1.40001
1.40001
1.40001
1.40001
1.40001
1.40001
1.40001
1.40001
10.1039
8.86093
4.86492
1.38268
1.40001
1.40001
1.40001
1.40001
1.40001
1.40001
1.40001
1.40001
1.40001
1.40001
1.40001
1.40001
1.40001
1.40001
1.40001
1.40001
9.70877
9.33049
6.88303
1.65499
1.40001
1.40001
1.40001
1.40001
1.40001
1.40001
1.40001
1.40001
1.40001
1.40001
1.40001
1.40001
1.40001
1.40001
1.40001
1.40001
8.9644
9.20131
8.42094
2.94878
1.40001
1.40001
1.40001
1.40001
1.40001
1.40001
1.40001
1.40001
1.40001
1.40001
1.40001
1.40001
1.40001
1.40001
1.40001
1.40001
8.85537
9.25821
9.15375
4.83822
1.36533
1.40001
1.40001
1.40001
1.40001
1.40001
1.40001
1.40001
1.40001
1.40001
1.40001
1.40001
1.40001
1.40001
1.40001
1.40001
8.9073
9.40335
9.48246
7.03292
1.94085
1.40001
1.40001
1.40001
1.40001
1.40001
1.40001
1.40001
1.40001
1.40001
1.40001
1.40001
1.40001
1.40001
1.40001
1.40001
9.03734
9.45327
9.47552
8.4373
3.8849
1.36387
1.40051
1.4
1.40001
1.40001
1.40001
1.40001
1.40001
1.40001
1.40001
1.40001
1.40001
1.40001
1.40001
1.40001
9.24147
9.45663
9.4274
8.87152
6.473
1.97818
1.39268
1.40013
1.4
1.40001
1.40001
1.40001
1.40001
1.40001
1.40001
1.40001
1.40001
1.40001
1.40001
1.40001
9.43472
9.49272
9.45065
9.26908
8.91971
4.60131
1.43796
1.39929
1.40001
1.40001
1.40001
1.40001
1.40001
1.40001
1.40001
1.40001
1.40001
1.40001
1.40001
1.40001
9.685
9.56992
9.47059
9.43882
9.50648
7.95912
3.62573
1.42519
1.40001
1.40001
1.40001
1.40001
1.40001
1.40001
1.40001
1.40001
1.40001
1.40001
1.40001
1.40001
9.69984
9.60305
9.551
9.5554
9.61626
9.38244
8.33041
3.18181
0.920066
1.40001
1.40001
1.40001
1.40001
1.40001
1.40001
1.40001
1.40001
1.40001
1.40001
1.40001
3.23771
5.06513
6.78885
7.91901
8.56813
8.88163
9.07843
8.63899
6.30292
4.452
3.29835
2.18711
1.51362
1.38249
1.39004
1.3948
1.39883
1.39997
1.40003
1.40002
0.441959
1.25649
2.82055
4.44198
5.7715
6.66938
7.49895
8.16255
7.97256
7.34988
6.75117
6.00567
4.73498
3.25259
1.99652
1.44152
1.38523
1.39297
1.39629
1.39923
0.027311
0.145585
0.663358
1.68514
2.97909
4.03029
4.91786
5.85691
6.64308
6.71902
6.59804
6.59661
6.53821
6.30465
5.59665
4.27041
2.9194
1.86242
1.4248
1.39008
0.0230348
0.0593926
0.159011
0.483225
1.14665
2.02931
2.85986
3.6902
4.50644
5.00139
5.2903
5.59523
5.87909
6.10438
6.22454
6.11848
5.81437
5.06919
3.87574
2.63074
0.0378602
0.0608614
0.0950618
0.145009
0.366695
0.854792
1.44486
2.05617
2.7189
3.24356
3.6348
3.99822
4.36735
4.78056
5.23326
5.50235
5.6531
5.72072
5.59623
5.43194
0.0403373
0.0517095
0.0847269
0.16278
0.281119
0.41718
0.699317
1.05294
1.49908
1.93628
2.30255
2.64088
2.97246
3.32119
3.75432
4.14836
4.51807
4.86489
5.08929
5.26277
0.0371297
0.0372827
0.06799
0.158671
0.254274
0.357766
0.517313
0.744971
1.02141
1.34103
1.59462
1.84944
2.09497
2.33845
2.62607
2.93852
3.24254
3.57619
3.88203
4.15661
0.0307171
0.0328653
0.0548755
0.117915
0.198773
0.297119
0.39803
0.558095
0.747563
0.95484
1.1321
1.30444
1.47392
1.63047
1.8076
2.03712
2.3026
2.55958
2.92586
2.9114
0.0287317
0.0342967
0.0544985
0.0812991
0.128078
0.208991
0.258264
0.342375
0.456218
0.574555
0.712125
0.851102
1.00207
1.13659
1.29398
1.4922
1.69959
1.88016
2.16058
2.08676
0.0325698
0.0400799
0.0571537
0.069837
0.086724
0.138513
0.165956
0.199741
0.265104
0.3735
0.504011
0.621427
0.761567
0.87135
0.995472
1.12148
1.24713
1.35537
1.58729
1.55999
0.0409835
0.04533
0.0578092
0.0648062
0.0765465
0.110066
0.144763
0.183985
0.262667
0.354499
0.441858
0.516645
0.607733
0.681707
0.750623
0.821171
0.887997
0.975892
1.11269
1.33145
0.0557489
0.0495916
0.0566344
0.063449
0.07785
0.111332
0.15181
0.19045
0.256714
0.315818
0.363113
0.405212
0.445554
0.492304
0.522384
0.563527
0.619277
0.728243
0.835774
1.04316
0.0759073
0.0604875
0.0530233
0.0616543
0.077198
0.108901
0.147185
0.177911
0.213829
0.247447
0.253023
0.271002
0.285253
0.31711
0.36146
0.424007
0.499821
0.586134
0.657342
0.787656
0.0977251
0.0805995
0.0565398
0.0592548
0.0699832
0.0937859
0.119079
0.134211
0.147353
0.165063
0.170274
0.184968
0.223845
0.274135
0.319869
0.372252
0.423686
0.473895
0.506321
0.565166
0.121099
0.107738
0.0783073
0.0580447
0.0571652
0.0683909
0.0828912
0.0930885
0.106659
0.124153
0.151837
0.180895
0.220772
0.258721
0.289565
0.319541
0.336963
0.354911
0.358145
0.391635
0.142722
0.120009
0.104358
0.0670847
0.0561924
0.060329
0.0692387
0.0860661
0.103869
0.124478
0.156888
0.180205
0.205922
0.224551
0.240366
0.240647
0.234773
0.237592
0.248323
0.30063
0.154408
0.128895
0.112613
0.0818636
0.0599137
0.0618438
0.0698198
0.088598
0.106768
0.12602
0.151588
0.162266
0.171221
0.174694
0.176794
0.177043
0.181916
0.197534
0.218581
0.2575
0.162535
0.134636
0.118056
0.0940922
0.0682366
0.0659963
0.0732641
0.0885525
0.100898
0.112259
0.116773
0.115511
0.115355
0.117369
0.121676
0.133044
0.148946
0.16445
0.178255
0.189313
0.17388
0.154835
0.161152
0.150803
0.123649
0.121395
0.140518
0.175469
0.195335
0.198312
0.204867
0.223591
0.244739
0.254883
0.239665
0.22713
0.239258
0.259348
0.278862
0.268853
0.273999
0.384002
0.446889
0.49687
0.490373
0.484987
0.484768
0.511606
0.544382
0.551659
0.591341
0.635281
0.654727
0.686363
0.685317
0.67577
0.701488
0.711562
0.71556
0.708294
0.766381
0.889525
0.994726
1.08492
1.13637
1.19253
1.21301
1.24707
1.25678
1.24677
1.24089
1.25869
1.31606
1.35394
1.3431
1.30371
1.28209
1.28237
1.2989
1.27461
0.393737
0.568147
0.779347
0.922196
1.03844
1.14455
1.1829
1.23164
1.25799
1.26181
1.25818
1.2666
1.29622
1.33166
1.34059
1.32839
1.31146
1.30165
1.29811
1.27094
0.189948
0.223309
0.345389
0.476525
0.701405
0.939748
1.06872
1.17272
1.26377
1.2879
1.2858
1.28224
1.282
1.29421
1.31933
1.3347
1.33795
1.33
1.30695
1.26618
0.269636
0.296403
0.323461
0.335785
0.354089
0.450811
0.720775
0.977913
1.17145
1.26672
1.31752
1.30028
1.27404
1.27207
1.29707
1.33444
1.34584
1.33692
1.30532
1.25825
0.339434
0.359115
0.393889
0.42334
0.41658
0.399286
0.417951
0.52976
0.80885
1.12374
1.26557
1.2858
1.27672
1.25624
1.28392
1.33602
1.35329
1.33553
1.29367
1.24926
0.425184
0.449204
0.477649
0.48671
0.466761
0.454459
0.45485
0.451175
0.486642
0.694148
1.03057
1.25105
1.27621
1.26157
1.27694
1.32919
1.34605
1.3272
1.28068
1.24922
0.547151
0.55042
0.548804
0.559638
0.548615
0.526394
0.513522
0.501847
0.492839
0.512832
0.643172
0.951838
1.2296
1.27255
1.27799
1.31723
1.32139
1.30588
1.27436
1.25929
0.736399
0.673705
0.629497
0.635144
0.630589
0.601444
0.570969
0.552508
0.537676
0.526671
0.540868
0.624983
0.892262
1.20931
1.27233
1.32188
1.3065
1.29549
1.28751
1.27394
0.962577
0.842675
0.717411
0.689544
0.697095
0.677397
0.646478
0.61339
0.576138
0.566996
0.563788
0.573891
0.626066
0.877559
1.18815
1.31614
1.28724
1.29037
1.30107
1.28102
1.2324
1.05315
0.858606
0.79295
0.789791
0.779885
0.745749
0.698681
0.631894
0.597055
0.603406
0.599858
0.607421
0.64738
0.874251
1.17596
1.23607
1.30094
1.31175
1.28182
1.76442
1.39885
1.10198
0.884042
0.844451
0.875619
0.884003
0.848696
0.774291
0.702543
0.674148
0.669565
0.663325
0.66038
0.675707
0.790558
1.03831
1.23849
1.27855
1.26127
2.80275
2.09811
1.70114
1.34162
1.0619
1.01233
1.01921
0.980076
0.877958
0.790041
0.745712
0.749694
0.744267
0.722053
0.680384
0.683548
0.737267
0.897446
1.09106
1.20211
3.48745
3.00554
2.39297
1.92224
1.54679
1.23668
1.11079
1.08215
1.01421
0.922673
0.904889
0.888998
0.856935
0.815975
0.76912
0.726418
0.733852
0.750992
0.803953
0.981042
3.29477
3.26924
3.11276
2.67158
2.21541
1.80382
1.41705
1.32105
1.26894
1.16098
1.07376
0.986525
0.92042
0.880475
0.844765
0.804966
0.785015
0.769868
0.767963
0.785719
2.34648
2.99182
3.09947
3.05614
2.86825
2.51049
2.06465
1.70181
1.50552
1.34689
1.23017
1.10221
1.00594
1.00375
0.993715
0.957199
0.90672
0.857265
0.812881
0.77632
1.55146
2.01195
2.58377
2.94774
2.94509
2.89078
2.70395
2.34943
1.98853
1.69852
1.52313
1.38519
1.25069
1.18951
1.12409
1.05415
0.978599
0.914419
0.872234
0.841694
1.40632
1.46218
1.68903
2.16218
2.60302
2.82066
2.81291
2.74532
2.55866
2.26721
1.94675
1.70153
1.51096
1.35587
1.23242
1.14347
1.09269
1.03675
1.01691
0.967445
1.40013
1.40156
1.41482
1.50986
1.77277
2.19814
2.54678
2.70073
2.69146
2.63764
2.46287
2.20637
1.94089
1.69136
1.52815
1.39363
1.30758
1.24373
1.16916
1.05411
1.40001
1.40002
1.40021
1.40353
1.42595
1.53994
1.80837
2.1763
2.47158
2.5964
2.58578
2.53707
2.39859
2.16577
1.93469
1.71503
1.52417
1.4007
1.30132
1.154
1.40001
1.40001
1.40001
1.40004
1.40045
1.40541
1.43502
1.5519
1.79792
2.1302
2.37945
2.49964
2.49372
2.45483
2.33973
2.15291
1.93278
1.71684
1.577
1.39031
1.40001
1.40001
1.40001
1.40001
1.40001
1.40007
1.4007
1.40665
1.43656
1.5475
1.77127
2.06254
2.29072
2.41201
2.40719
2.37974
2.30091
2.13372
1.94774
1.66417
1.40001
1.40001
1.40001
1.40001
1.40001
1.40001
1.40001
1.40009
1.4008
1.40671
1.43574
1.53262
1.7236
1.99055
2.19954
2.32876
2.32745
2.31036
2.25662
2.03326
1.40001
1.40001
1.40001
1.40001
1.40001
1.40001
1.40001
1.40001
1.40001
1.4001
1.40081
1.40606
1.42999
1.51131
1.67733
1.91529
2.11009
2.24992
2.24975
2.2046
1.40001
1.40001
1.40001
1.40001
1.40001
1.40001
1.40001
1.40001
1.40001
1.40001
1.40001
1.40009
1.40069
1.4048
1.4246
1.4899
1.62707
1.8389
2.02308
2.14913
1.40001
1.40001
1.40001
1.40001
1.40001
1.40001
1.40001
1.40001
1.40001
1.40001
1.40001
1.40001
1.40001
1.40007
1.40057
1.40362
1.41934
1.47139
1.5933
1.92418
2.25806
3.43035
3.59667
2.90812
1.83115
1.45127
1.4026
1.40007
1.40001
1.40001
1.40001
1.40001
1.40001
1.40001
1.40001
3.26364
3.91741
3.52049
2.15195
1.46715
1.40114
1.40001
1.4
1.40001
1.40001
1.40001
1.40001
1.40001
1.40001
1.40001
4.0747
3.99476
2.76466
1.61289
1.40732
1.40008
1.40001
1.40001
1.40001
1.40001
1.40001
1.40001
1.40001
1.40001
1.40001
4.52153
3.56462
1.90778
1.42655
1.40025
1.40001
1.40001
1.40001
1.40001
1.40001
1.40001
1.40001
1.40001
1.40001
1.40001
4.62529
2.35295
1.46608
1.40075
1.40001
1.40001
1.40001
1.40001
1.40001
1.40001
1.40001
1.40001
1.40001
1.40001
1.40001
2.88966
1.50337
1.4007
1.4
1.4
1.4
1.40001
1.40001
1.40001
1.40001
1.40001
1.40001
1.40001
1.40001
1.40001
1.54199
1.40081
1.4
1.4
1.40001
1.40001
1.40001
1.40001
1.40001
1.40001
1.40001
1.40001
1.40001
1.40001
1.40001
1.39739
1.39981
1.4
1.40001
1.40001
1.40001
1.40001
1.40001
1.40001
1.40001
1.40001
1.40001
1.40001
1.40001
1.40001
1.39996
1.40001
1.40001
1.40001
1.40001
1.40001
1.40001
1.40001
1.40001
1.40001
1.40001
1.40001
1.40001
1.40001
1.40001
1.40001
1.40001
1.40001
1.40001
1.40001
1.40001
1.40001
1.40001
1.40001
1.40001
1.40001
1.40001
1.40001
1.40001
1.40001
1.40001
1.40001
1.40001
1.40001
1.40001
1.40001
1.40001
1.40001
1.40001
1.40001
1.40001
1.40001
1.40001
1.40001
1.40001
1.40001
1.40001
1.40001
1.40001
1.40001
1.40001
1.40001
1.40001
1.40001
1.40001
1.40001
1.40001
1.40001
1.40001
1.40001
1.40001
1.40001
1.40001
1.40001
1.40001
1.40001
1.40001
1.40001
1.40001
1.40001
1.40001
1.40001
1.40001
1.40001
1.40001
1.40001
1.40001
1.40001
1.40001
1.40001
1.40001
1.40001
1.40001
1.40001
1.40001
1.40001
1.40001
1.40001
1.40001
1.40001
1.40001
1.40001
1.40001
1.40001
1.40001
1.40001
1.40001
1.40001
1.40001
1.40001
1.40001
1.40001
1.40001
1.40001
1.40001
1.40001
1.40001
1.40001
1.40001
1.40001
1.40001
1.40001
1.40001
1.40001
1.40001
1.40001
1.40001
1.40001
1.40001
1.40001
1.40001
1.40001
1.40001
1.40001
1.40001
1.40001
1.40001
1.40001
1.40001
1.40001
1.40001
1.40001
1.40001
1.40001
1.40001
1.40001
1.40001
1.40001
1.40001
1.40001
1.40001
1.40001
1.40001
1.40001
1.40001
1.40001
1.40001
1.40001
1.40001
1.40001
1.40001
1.40001
1.40001
1.40001
1.40001
1.40001
1.40001
1.40001
1.40001
1.40001
1.40001
1.40001
1.40001
1.40001
1.40001
1.40001
1.40001
1.40001
1.40001
1.40001
1.40001
1.40001
1.40001
1.40001
1.40001
1.40001
1.40001
1.40001
1.40001
1.40001
1.40001
1.40001
1.40001
1.40001
1.40001
1.40001
1.40001
1.40001
1.40001
1.40001
1.40001
1.40001
1.40001
1.40001
1.40001
1.40001
1.40001
1.40001
1.40001
1.40001
1.40001
1.40001
1.40001
1.40001
1.40001
1.40001
1.40001
1.40001
1.40001
1.40001
1.40001
1.40001
1.40001
1.40001
1.40001
1.40001
1.40001
1.40001
1.40001
1.40001
1.40001
1.40001
1.40001
1.40001
1.40001
1.40001
1.40001
1.40001
1.40001
1.40001
1.40001
1.40001
1.40001
1.40001
1.40001
1.40001
1.40001
1.40001
1.40001
1.40001
1.40001
1.40001
1.40001
1.40001
1.40001
1.40001
1.40001
1.40001
1.40001
1.40001
1.40001
1.40001
1.40001
1.40001
1.40001
1.40001
1.40001
1.40001
1.40001
1.40001
1.40001
1.40001
1.40001
1.40001
1.40001
1.40001
1.40001
1.40001
1.40001
1.40001
1.40001
1.40001
1.40001
1.40001
1.40001
1.40001
1.40001
1.40001
1.40001
1.40001
1.40001
1.40001
1.40001
1.40001
1.40001
1.40001
1.40001
1.40001
1.40001
1.40001
1.40001
1.40001
1.40001
1.40001
1.40001
1.40001
1.40001
1.40001
1.40001
1.40001
1.40001
1.40001
1.40001
1.40001
1.40001
1.40001
1.40001
1.40001
1.40001
1.40001
1.40001
1.40001
1.40001
1.40001
1.40001
1.40001
1.40001
1.40001
1.40001
1.40001
1.40001
1.40001
1.40001
1.40001
1.40001
1.40001
1.40001
1.40001
1.40001
1.40001
1.40001
1.40001
1.40001
1.40001
1.40001
1.40001
1.40001
1.40001
1.40001
1.40001
1.40001
1.40001
1.40001
1.40001
1.40001
1.40001
1.40001
1.40001
1.40001
1.40001
1.40001
1.40001
1.40001
1.40001
1.40001
1.40001
1.40001
1.40001
1.40001
1.40001
1.40001
1.40001
1.40001
1.40001
1.40001
1.40001
1.40001
1.40001
1.40001
1.40001
1.40001
1.40001
1.40001
1.40001
1.40001
1.40001
1.40001
1.40001
1.40001
1.40001
1.40001
1.40001
1.40001
1.40001
1.40001
1.40001
1.40001
1.40001
1.40001
1.40001
1.40001
1.40001
1.40001
1.40001
1.40001
1.40001
1.40001
1.40001
1.40001
1.40001
1.40001
1.40001
1.40001
1.40001
1.40001
1.40001
1.40001
1.40001
1.40001
1.40001
1.40001
1.40001
1.40001
1.40001
1.40001
1.40001
1.40001
1.40001
1.40001
1.40001
1.40001
1.40001
1.40001
1.40001
1.40001
1.40001
1.40001
1.40001
1.40001
1.40001
1.40001
1.40001
1.40001
1.40001
1.40001
1.40001
1.40001
1.40001
1.40001
1.40001
1.40001
1.40001
1.40001
1.40001
1.40001
1.40001
1.40001
1.40001
1.40001
1.40001
1.40001
1.40001
1.40001
1.40001
1.40001
1.40001
1.40001
1.40001
1.40001
1.40001
1.40001
1.40001
1.40001
1.40001
1.40001
1.40001
1.40001
1.40001
1.40001
1.40001
1.40001
1.40001
1.40001
1.40001
1.40001
1.40001
1.40001
1.40001
1.40001
1.40001
1.40001
1.40001
1.40001
1.40001
1.40001
1.40001
1.40001
1.40001
1.40001
1.40001
1.40001
1.40001
1.40001
1.40001
1.40001
1.40001
1.40001
1.40001
1.40001
1.40001
1.40001
1.40001
1.40001
1.40001
1.40001
1.40001
1.40001
1.40001
1.40001
1.40001
1.40001
1.40001
1.40001
1.40001
1.40001
1.40001
1.40001
1.40001
1.40001
1.40001
1.40001
1.40001
1.40001
1.40001
1.40001
1.40001
1.40001
1.40001
1.40001
1.40001
1.40001
1.40001
1.40001
1.40001
1.40001
1.40001
1.40001
1.40001
1.40001
1.40001
1.40001
1.40001
1.40001
1.40001
1.40001
1.40001
1.40001
1.40001
1.40001
1.40001
1.40001
1.40001
1.40001
1.40001
1.40001
1.40001
1.40001
1.40001
1.40001
1.40001
1.40001
1.40001
1.40001
1.40001
1.40001
1.40001
1.40001
1.40001
1.40001
1.40001
1.40001
1.40001
1.40001
1.40001
1.40001
1.40001
1.40001
1.40001
1.40001
1.40001
1.40001
1.40001
1.40001
1.40001
1.40001
1.40001
1.40001
1.40001
1.40001
1.40001
1.40001
1.40001
1.40001
1.40001
1.40001
1.40001
1.40001
1.40001
1.40001
1.40001
1.40001
1.40001
1.40001
1.40001
1.40001
1.40001
1.40001
1.40001
1.40001
1.40001
1.40001
1.40001
1.40001
1.40001
1.40001
1.40001
1.40001
1.40001
1.40001
1.40001
1.40001
1.40001
1.40001
1.40001
1.40001
1.40001
1.40001
1.40001
1.40001
1.40001
1.40001
1.40001
1.40001
1.40001
1.40001
1.40001
1.40001
1.40001
1.40001
1.40001
1.40001
1.40001
1.40001
1.40001
1.40001
1.40001
1.40001
1.40001
1.40001
1.40001
1.40001
1.40001
1.40001
1.40001
1.40001
1.40001
1.40001
1.40001
1.40001
1.40001
1.40001
1.40001
1.40001
1.40001
1.40001
1.40001
1.40001
1.40001
1.40001
1.40001
1.40001
1.40001
1.40001
1.40001
1.40001
1.40001
1.40001
1.40001
1.40001
1.40001
1.40001
1.40001
1.40001
1.40001
1.40001
1.40001
1.40001
1.40001
1.40001
1.40001
1.40001
1.40001
1.40001
1.40001
1.40001
1.40001
1.40001
1.40001
1.40001
1.40001
1.40001
1.40001
1.40001
1.40001
1.40001
1.40001
1.40001
1.40001
1.40001
1.40001
1.40001
1.40001
1.40001
1.40001
1.40001
1.40001
1.40001
1.40001
1.40001
1.40001
1.40001
1.40001
1.40001
1.40001
1.40001
1.40001
1.40001
1.40001
1.40001
1.40001
1.40001
1.40001
1.40001
1.40001
1.40001
1.40001
1.40001
1.40001
1.40001
1.40001
1.40001
1.40001
1.40001
1.40001
1.40001
1.40001
1.40001
1.40001
1.40001
1.40001
1.40001
1.40001
1.40001
1.40001
1.40001
1.40001
1.40001
1.40001
1.40001
1.40001
1.40001
1.40001
1.40001
1.40001
1.40001
1.40001
1.40001
1.40001
1.40001
1.40001
1.40001
1.40001
1.40001
1.40001
1.40001
1.40001
1.40001
1.40001
1.40001
1.40001
1.40001
1.40001
1.40001
1.40001
1.40001
1.40001
1.40001
1.40001
1.40001
1.40001
1.40001
1.40001
1.40001
1.40001
1.40001
1.40001
1.40001
1.40001
1.40001
1.40001
1.40001
1.40001
1.40001
1.40001
1.40001
1.40001
1.40001
1.40001
1.40001
1.40001
1.40001
1.40001
1.40001
1.40001
1.40001
1.40001
1.40001
1.40001
1.40001
1.40001
1.40001
1.40001
1.40001
1.40001
1.40001
1.40001
1.40001
1.40001
1.40001
1.40001
1.40001
1.40001
1.40001
1.40001
1.40001
1.40001
1.40001
1.40001
1.40001
1.40001
1.40001
1.40001
1.40001
1.40001
1.40001
1.39996
1.40001
1.40001
1.40001
1.40001
1.40001
1.40001
1.40001
1.40001
1.40001
1.40001
1.40001
1.40001
1.40001
1.40001
1.39739
1.39981
1.4
1.40001
1.40001
1.40001
1.40001
1.40001
1.40001
1.40001
1.40001
1.40001
1.40001
1.40001
1.40001
1.54194
1.40081
1.4
1.4
1.40001
1.40001
1.40001
1.40001
1.40001
1.40001
1.40001
1.40001
1.40001
1.40001
1.40001
2.8897
1.50347
1.4007
1.4
1.4
1.4
1.40001
1.40001
1.40001
1.40001
1.40001
1.40001
1.40001
1.40001
1.40001
4.62585
2.35361
1.46615
1.40075
1.40001
1.40001
1.40001
1.40001
1.40001
1.40001
1.40001
1.40001
1.40001
1.40001
1.40001
4.52193
3.56518
1.90791
1.42654
1.40025
1.40001
1.40001
1.40001
1.40001
1.40001
1.40001
1.40001
1.40001
1.40001
1.40001
4.07503
3.99499
2.76458
1.61281
1.40731
1.40008
1.40001
1.40001
1.40001
1.40001
1.40001
1.40001
1.40001
1.40001
1.40001
3.26355
3.91809
3.52039
2.15153
1.46708
1.40114
1.40001
1.4
1.40001
1.40001
1.40001
1.40001
1.40001
1.40001
1.40001
2.25806
3.43073
3.59663
2.90764
1.83087
1.45124
1.4026
1.40007
1.40001
1.40001
1.40001
1.40001
1.40001
1.40001
1.40001
1.76519
2.80958
3.48623
3.29441
2.3469
1.55159
1.40633
1.40013
1.40001
1.40001
1.40001
1.40001
1.40001
1.40001
1.40001
1.39461
2.09653
3.00336
3.26955
2.99154
2.01235
1.46227
1.40156
1.40002
1.40001
1.40001
1.40001
1.40001
1.40001
1.40001
1.09061
1.68454
2.40185
3.11306
3.09994
2.58401
1.68908
1.41482
1.40021
1.40001
1.40001
1.40001
1.40001
1.40001
1.40001
0.884407
1.32213
1.92219
2.67428
3.05709
2.94813
2.16201
1.50978
1.40352
1.40004
1.40001
1.40001
1.40001
1.40001
1.40001
0.849071
1.07101
1.54098
2.22261
2.86955
2.94533
2.60297
1.77269
1.42594
1.40045
1.40001
1.40001
1.40001
1.40001
1.40001
0.877229
1.03683
1.2253
1.80559
2.5103
2.8909
2.82056
2.19799
1.53995
1.40542
1.40007
1.40001
1.40001
1.40001
1.40001
0.883014
1.03873
1.10526
1.40964
2.06376
2.70368
2.81284
2.54688
1.80843
1.43503
1.4007
1.40001
1.40001
1.40001
1.40001
0.841304
0.990368
1.08021
1.3139
1.70254
2.34895
2.74512
2.7006
2.1764
1.55197
1.40666
1.40009
1.40001
1.40001
1.40001
0.758777
0.880391
1.01839
1.26559
1.50571
1.98918
2.55838
2.69127
2.47148
1.79802
1.43659
1.4008
1.40001
1.40001
1.40001
0.686958
0.78873
0.932336
1.16179
1.34715
1.69938
2.26685
2.63731
2.59623
2.13021
1.54752
1.40671
1.4001
1.40001
1.40001
0.666681
0.744667
0.914614
1.07496
1.2297
1.52176
1.94585
2.4626
2.58567
2.37942
1.77126
1.43574
1.40081
1.40001
1.40001
0.665863
0.747835
0.895787
0.987823
1.10085
1.3831
1.70058
2.20611
2.53705
2.4996
2.06256
1.53262
1.40606
1.40009
1.40001
0.663178
0.742654
0.857934
0.919788
1.005
1.24925
1.51124
1.94108
2.39853
2.49368
2.29069
1.72363
1.42999
1.40069
1.40001
0.661837
0.719449
0.813621
0.880011
1.00409
1.18943
1.35624
1.69096
2.16585
2.45482
2.41199
1.99056
1.51132
1.4048
1.40007
0.675894
0.677813
0.766417
0.844627
0.994743
1.1242
1.23296
1.52818
1.93454
2.33974
2.40719
2.19954
1.67732
1.4246
1.40057
0.789291
0.682487
0.725583
0.804357
0.958015
1.05358
1.14341
1.39458
1.7154
2.15286
2.37974
2.32878
1.91528
1.48989
1.40362
1.03831
0.737998
0.733863
0.783959
0.907322
0.97775
1.09244
1.30755
1.52434
1.93317
2.30102
2.32748
2.11012
1.62707
1.41934
1.2393
0.899229
0.751602
0.769348
0.857725
0.913769
1.03697
1.2435
1.40015
1.71706
2.13393
2.31041
2.24994
1.83892
1.4714
1.27911
1.09217
0.804286
0.76766
0.812813
0.872282
1.01718
1.16931
1.30083
1.57673
1.94771
2.25665
2.24977
2.02311
1.59332
1.26147
1.20293
0.98117
0.785047
0.775388
0.842049
0.967547
1.05425
1.15387
1.39012
1.66403
2.03325
2.20462
2.14915
1.92422
1.23339
1.06188
0.870714
0.797115
0.786127
0.767914
0.727325
0.684276
0.626072
0.603241
0.606324
0.599671
0.607207
0.647209
0.87235
1.17567
1.23579
1.30136
1.31189
1.28202
0.964934
0.846437
0.732585
0.698587
0.706667
0.685023
0.647528
0.617989
0.588109
0.570008
0.561272
0.572094
0.626144
0.878535
1.18937
1.31624
1.28497
1.28973
1.30105
1.28092
0.730333
0.684317
0.639236
0.633164
0.6233
0.595457
0.568575
0.554181
0.540398
0.52794
0.542868
0.626378
0.89824
1.21393
1.28001
1.32137
1.30428
1.29372
1.28698
1.27355
0.544538
0.551091
0.560878
0.564908
0.549216
0.524953
0.514671
0.507167
0.499325
0.517208
0.640874
0.950682
1.2323
1.27438
1.27748
1.31456
1.31916
1.30393
1.27386
1.259
0.424282
0.450384
0.477781
0.483225