/*--------------------------------*- C++ -*----------------------------------*\
  =========                 |
  \\      /  F ield         | OpenFOAM: The Open Source CFD Toolbox
   \\    /   O peration     | Website:  https://openfoam.org
    \\  /    A nd           | Version:  7
     \\/     M anipulation  |
\*---------------------------------------------------------------------------*/
FoamFile
{
    version     2.0;
    format      ascii;
    class       volScalarField;
    location    "3.9";
    object      T;
}
// * * * * * * * * * * * * * * * * * * * * * * * * * * * * * * * * * * * * * //

dimensions      [0 0 0 1 0 0 0];

internalField   nonuniform List<scalar> 
3700
(
100.722
100.848
100.907
100.908
100.912
100.926
100.908
100.909
100.987
101.105
101.151
101.146
101.123
101.102
101.107
101.11
101.102
101.088
101.08
101.077
100.337
100.329
100.379
100.387
100.456
100.49
100.441
100.382
100.466
100.638
100.714
100.68
100.549
100.467
100.503
100.54
100.518
100.481
100.486
100.515
100.348
100.249
100.162
100.051
99.9498
99.9436
99.962
100.011
100.024
100.025
100.013
99.9918
99.9692
99.9631
99.9711
99.9969
100.022
100.039
100.049
100.043
100.347
100.239
100.137
99.9894
99.8847
99.8851
99.9156
100.002
100.035
100.06
100.082
100.076
100.069
100.051
100.025
100.01
100.016
100.044
100.066
100.095
100.269
100.173
100.077
99.9074
99.8422
99.8494
99.8846
99.9558
99.997
100.051
100.094
100.101
100.118
100.122
100.117
100.101
100.07
100.059
100.064
100.117
100.106
100.074
99.9702
99.8383
99.8323
99.8433
99.8803
99.9401
99.9774
100.026
100.068
100.097
100.128
100.149
100.157
100.165
100.165
100.165
100.157
100.165
100.003
99.9732
99.8574
99.8286
99.8602
99.9182
99.9591
99.9821
99.994
100.034
100.059
100.084
100.119
100.148
100.17
100.194
100.216
100.232
100.237
100.258
99.9268
99.8843
99.8323
99.8506
99.9348
100.025
100.082
100.103
100.114
100.132
100.124
100.135
100.14
100.153
100.175
100.206
100.243
100.275
100.293
100.332
99.8325
99.8346
99.859
99.8828
99.98
100.093
100.146
100.171
100.204
100.221
100.236
100.243
100.256
100.263
100.261
100.263
100.276
100.312
100.341
100.393
99.7218
99.8194
99.8968
99.9324
100.037
100.153
100.173
100.194
100.242
100.271
100.296
100.311
100.336
100.344
100.352
100.358
100.365
100.379
100.405
100.449
99.6339
99.799
99.9349
100.003
100.11
100.199
100.196
100.219
100.256
100.294
100.325
100.348
100.382
100.397
100.416
100.43
100.445
100.46
100.498
100.491
99.5834
99.7827
99.9367
100.035
100.156
100.23
100.234
100.281
100.334
100.374
100.392
100.408
100.428
100.444
100.467
100.494
100.519
100.539
100.578
100.569
99.5896
99.8288
99.9318
100.085
100.216
100.277
100.32
100.38
100.427
100.471
100.489
100.505
100.517
100.528
100.544
100.566
100.593
100.618
100.655
100.655
99.734
99.8306
99.9543
100.142
100.257
100.312
100.381
100.446
100.5
100.541
100.558
100.576
100.593
100.613
100.639
100.665
100.687
100.707
100.723
100.734
99.8188
99.8239
99.9878
100.151
100.265
100.344
100.445
100.514
100.574
100.607
100.626
100.645
100.667
100.695
100.729
100.755
100.773
100.783
100.779
100.774
99.7908
99.844
99.9997
100.119
100.313
100.514
100.608
100.663
100.704
100.719
100.729
100.743
100.764
100.791
100.814
100.823
100.821
100.813
100.788
100.745
99.4656
99.7521
100.086
100.398
100.597
100.694
100.741
100.779
100.803
100.814
100.822
100.835
100.851
100.856
100.855
100.844
100.792
100.677
100.514
100.276
99.4997
100.093
100.467
100.665
100.77
100.811
100.838
100.863
100.878
100.884
100.884
100.883
100.881
100.858
100.772
100.622
100.359
100.101
100.005
99.9978
100.123
100.526
100.741
100.838
100.883
100.9
100.918
100.924
100.92
100.911
100.897
100.842
100.727
100.471
100.148
100.01
99.9967
99.9985
99.9992
99.9998
100.697
100.837
100.913
100.947
100.956
100.949
100.951
100.93
100.847
100.767
100.581
100.237
100.031
99.9958
99.9977
99.9989
99.9998
100
100
100
101
100.996
100.992
100.986
100.974
100.944
100.882
100.454
99.8488
100
100
100
100
100
100
100
100
100
100
100
101.001
100.997
100.991
100.978
100.954
100.846
100.483
100.014
100
100
100
100
100
100
100
100
100
100
100
100
100.994
100.995
100.991
100.97
100.921
100.619
100.026
99.9995
100
100
100
100
100
100
100
100
100
100
100
100
100.988
100.994
100.989
100.949
100.789
100.235
99.9968
100
100
100
100
100
100
100
100
100
100
100
100
100
100.98
100.991
100.986
100.916
100.577
99.9918
100
100
100
100
100
100
100
100
100
100
100
100
100
100
100.975
100.986
100.98
100.831
100.237
100
100
100
100
100
100
100
100
100
100
100
100
100
100
100
100.972
100.98
100.966
100.693
99.9929
100
100
100
100
100
100
100
100
100
100
100
100
100
100
100
100.979
100.975
100.925
100.496
100
100
100
100
100
100
100
100
100
100
100
100
100
100
100
100
101.002
100.974
100.829
100.14
100
100
100
100
100
100
100
100
100
100
100
100
100
100
100
100
101.015
100.941
100.686
99.9964
100
100
100
100
100
100
100
100
100
100
100
100
100
100
100
100
101.024
100.906
100.498
100
100
100
100
100
100
100
100
100
100
100
100
100
100
100
100
100
101.027
100.851
100.307
100
100
100
100
100
100
100
100
100
100
100
100
100
100
100
100
100
101.03
100.792
100.106
100
100
100
100
100
100
100
100
100
100
100
100
100
100
100
100
100
101.022
100.731
100.002
100
100
100
100
100
100
100
100
100
100
100
100
100
100
100
100
100
101.016
100.658
100
100
100
100
100
100
100
100
100
100
100
100
100
100
100
100
100
100
100.994
100.581
100
100
100
100
100
100
100
100
100
100
100
100
100
100
100
100
100
100
100.965
100.463
100
100
100
100
100
100
100
100
100
100
100
100
100
100
100
100
100
100
100.906
100.234
100
100
100
100
100
100
100
100
100
100
100
100
100
100
100
100
100
100
100.847
100.005
100
100
100
100
100
100
100
100
100
100
100
100
100
100
100
100
100
100
100.812
100
100
100
100
100
100
100
100
100
100
100
100
100
100
100
100
100
100
100
100.814
100
100
100
100
100
100
100
100
100
100
100
100
100
100
100
100
100
100
100
100.848
100.004
100
100
100
100
100
100
100
100
100
100
100
100
100
100
100
100
100
100
100.904
100.231
100
100
100
100
100
100
100
100
100
100
100
100
100
100
100
100
100
100
100.963
100.458
100
100
100
100
100
100
100
100
100
100
100
100
100
100
100
100
100
100
100.993
100.582
100
100
100
100
100
100
100
100
100
100
100
100
100
100
100
100
100
100
101.016
100.66
100
100
100
100
100
100
100
100
100
100
100
100
100
100
100
100
100
100
101.023
100.733
100.004
100
100
100
100
100
100
100
100
100
100
100
100
100
100
100
100
100
101.031
100.794
100.109
100
100
100
100
100
100
100
100
100
100
100
100
100
100
100
100
100
101.027
100.851
100.309
100
100
100
100
100
100
100
100
100
100
100
100
100
100
100
100
100
101.024
100.907
100.498
100
100
100
100
100
100
100
100
100
100
100
100
100
100
100
100
100
101.016
100.941
100.684
99.9964
100
100
100
100
100
100
100
100
100
100
100
100
100
100
100
100
101.003
100.974
100.826
100.138
100
100
100
100
100
100
100
100
100
100
100
100
100
100
100
100
100.979
100.975
100.925
100.495
100
100
100
100
100
100
100
100
100
100
100
100
100
100
100
100
100.973
100.979
100.966
100.694
99.9935
100
100
100
100
100
100
100
100
100
100
100
100
100
100
100
100.975
100.987
100.98
100.83
100.233
100
100
100
100
100
100
100
100
100
100
100
100
100
100
100
100.98
100.992
100.986
100.916
100.576
99.9919
100
100
100
100
100
100
100
100
100
100
100
100
100
100
100.988
100.994
100.988
100.948
100.791
100.24
99.9967
100
100
100
100
100
100
100
100
100
100
100
100
100
100.994
100.995
100.99
100.97
100.922
100.622
100.028
99.9995
100
100
100
100
100
100
100
100
100
100
100
100
101.001
100.997
100.991
100.979
100.955
100.847
100.482
100.014
100
100
100
100
100
100
100
100
100
100
100
100
101
100.996
100.992
100.986
100.974
100.945
100.881
100.451
99.8507
100
100
100
100
100
100
100
100
100
100
100
100.697
100.837
100.912
100.947
100.956
100.95
100.951
100.93
100.847
100.767
100.58
100.236
100.031
99.9958
99.9977
99.9989
99.9998
100
100
100
100.116
100.53
100.744
100.838
100.882
100.9
100.918
100.924
100.92
100.911
100.897
100.842
100.727
100.471
100.148
100.01
99.9967
99.9985
99.9992
99.9998
99.4367
99.9815
100.447
100.664
100.772
100.812
100.838
100.863
100.879
100.884
100.884
100.883
100.881
100.857
100.771
100.622
100.359
100.101
100.005
99.9978
99.4601
99.6979
100.074
100.414
100.604
100.696
100.741
100.779
100.804
100.814
100.822
100.835
100.85
100.856
100.855
100.844
100.792
100.677
100.514
100.276
99.7215
99.7441
99.9169
100.106
100.314
100.522
100.612
100.667
100.706
100.721
100.73
100.744
100.764
100.791
100.814
100.823
100.821
100.813
100.788
100.745
99.7979
99.7155
99.9186
100.148
100.251
100.335
100.444
100.514
100.576
100.608
100.626
100.645
100.666
100.694
100.729
100.755
100.773
100.783
100.779
100.774
99.7985
99.7023
99.9139
100.129
100.239
100.306
100.38
100.445
100.499
100.54
100.557
100.575
100.592
100.612
100.639
100.665
100.687
100.707
100.723
100.734
99.7833
99.767
99.9261
100.066
100.199
100.277
100.323
100.382
100.428
100.471
100.488
100.505
100.517
100.529
100.545
100.567
100.593
100.618
100.655
100.655
99.7701
99.8424
99.9563
100.019
100.145
100.232
100.236
100.286
100.337
100.377
100.394
100.41
100.428
100.444
100.465
100.493
100.519
100.54
100.578
100.569
99.8129
99.8959
99.9724
100.015
100.107
100.201
100.197
100.221
100.258
100.292
100.323
100.346
100.38
100.396
100.415
100.431
100.446
100.461
100.498
100.491
99.867
99.8983
99.9456
99.9635
100.051
100.163
100.178
100.194
100.242
100.271
100.294
100.31
100.336
100.344
100.353
100.36
100.368
100.381
100.405
100.449
99.934
99.8931
99.9006
99.9157
99.9925
100.105
100.155
100.173
100.207
100.223
100.237
100.244
100.257
100.265
100.264
100.265
100.276
100.31
100.34
100.392
100.003
99.9194
99.8547
99.8824
99.9445
100.038
100.093
100.107
100.119
100.135
100.128
100.138
100.141
100.152
100.171
100.203
100.24
100.273
100.292
100.331
100.068
99.9881
99.866
99.8494
99.8704
99.935
99.9704
99.9811
99.9919
100.029
100.052
100.078
100.113
100.144
100.167
100.192
100.215
100.231
100.237
100.26
100.151
100.089
99.965
99.8437
99.8189
99.8442
99.8795
99.9259
99.9675
100.016
100.057
100.089
100.124
100.147
100.157
100.166
100.168
100.167
100.159
100.167
100.261
100.174
100.08
99.9077
99.8256
99.8436
99.8815
99.9398
99.9834
100.038
100.087
100.099
100.117
100.123
100.12
100.106
100.076
100.062
100.064
100.113
100.316
100.232
100.134
99.9961
99.8696
99.869
99.9052
99.9828
100.026
100.056
100.08
100.077
100.072
100.057
100.033
100.013
100.014
100.039
100.063
100.094
100.317
100.238
100.158
100.053
99.9332
99.9142
99.9483
100.003
100.02
100.028
100.02
99.998
99.9752
99.9667
99.9706
99.9931
100.018
100.037
100.047
100.044
100.312
100.294
100.315
100.315
100.254
100.251
100.383
100.542
100.547
100.473
100.475
100.563
100.656
100.653
100.574
100.413
100.395
100.417
100.423
100.378
100.676
100.804
100.87
100.895
100.876
100.86
100.881
100.952
101.03
101.049
101.081
101.136
101.15
101.147
101.123
101.067
101.056
101.054
101.047
101.032
101.044
101.018
101.017
100.998
100.963
100.938
100.922
100.915
100.901
100.879
100.86
100.85
100.849
100.849
100.839
100.823
100.812
100.808
100.806
100.79
100.571
100.617
100.729
100.737
100.751
100.779
100.804
100.812
100.812
100.808
100.803
100.799
100.797
100.796
100.794
100.79
100.786
100.781
100.777
100.76
100.024
100.056
100.194
100.285
100.401
100.501
100.574
100.612
100.644
100.673
100.684
100.684
100.684
100.685
100.693
100.705
100.711
100.71
100.704
100.689
100.084
100.087
100.095
100.094
100.109
100.193
100.348
100.427
100.488
100.545
100.572
100.569
100.566
100.57
100.583
100.602
100.613
100.614
100.609
100.597
100.133
100.134
100.14
100.147
100.138
100.125
100.144
100.219
100.34
100.45
100.492
100.499
100.497
100.494
100.507
100.527
100.536
100.534
100.529
100.519
100.18
100.178
100.182
100.183
100.17
100.166
100.163
100.156
100.176
100.286
100.406
100.464
100.466
100.462
100.467
100.483
100.489
100.486
100.478
100.469
100.237
100.223
100.215
100.219
100.213
100.206
100.2
100.186
100.17
100.178
100.246
100.366
100.441
100.447
100.446
100.456
100.458
100.456
100.45
100.443
100.307
100.272
100.252
100.255
100.252
100.242
100.229
100.213
100.191
100.174
100.181
100.221
100.329
100.418
100.429
100.441
100.438
100.436
100.434
100.427
100.372
100.335
100.292
100.279
100.279
100.27
100.258
100.241
100.21
100.191
100.18
100.183
100.203
100.305
100.393
100.423
100.418
100.419
100.421
100.413
100.438
100.401
100.346
100.318
100.308
100.301
100.289
100.27
100.235
100.201
100.194
100.185
100.186
100.197
100.285
100.371
100.388
100.408
100.407
100.395
100.534
100.469
100.403
100.339
100.314
100.32
100.318
100.305
100.276
100.239
100.215
100.204
100.195
100.187
100.183
100.226
100.307
100.364
100.365
100.357
100.615
100.545
100.491
100.434
100.367
100.339
100.333
100.317
100.287
100.256
100.227
100.218
100.207
100.189
100.167
100.155
100.169
100.222
100.274
100.297
100.608
100.585
100.537
100.486
100.434
100.37
100.329
100.317
100.302
100.278
100.26
100.242
100.221
100.198
100.174
100.152
100.142
100.131
100.143
100.196
100.488
100.547
100.541
100.514
100.476
100.427
100.362
100.337
100.324
100.298
100.27
100.238
100.21
100.19
100.172
100.151
100.132
100.113
100.102
100.092
100.25
100.377
100.446
100.483
100.474
100.451
100.409
100.359
100.324
100.292
100.265
100.233
100.204
100.193
100.182
100.164
100.14
100.115
100.09
100.064
100.043
100.146
100.254
100.336
100.387
100.415
100.406
100.379
100.341
100.301
100.272
100.247
100.217
100.196
100.174
100.149
100.123
100.101
100.081
100.058
100.002
100.015
100.066
100.155
100.233
100.289
100.331
100.348
100.339
100.316
100.28
100.247
100.216
100.186
100.157
100.133
100.117
100.1
100.089
100.065
100
100
100.003
100.025
100.077
100.149
100.209
100.25
100.28
100.291
100.281
100.259
100.229
100.196
100.17
100.144
100.124
100.108
100.088
100.054
100
100
100
100.001
100.006
100.031
100.081
100.139
100.187
100.217
100.24
100.245
100.236
100.215
100.188
100.158
100.126
100.103
100.082
100.047
100
100
100
100
100
100.001
100.008
100.033
100.078
100.129
100.169
100.192
100.211
100.209
100.201
100.183
100.156
100.125
100.101
100.068
100
100
100
100
100
100
100
100.001
100.008
100.032
100.073
100.118
100.154
100.174
100.186
100.184
100.178
100.16
100.136
100.096
100
100
100
100
100
100
100
100
100
100.002
100.008
100.029
100.065
100.107
100.14
100.159
100.168
100.167
100.162
100.137
100
100
100
100
100
100
100
100
100
100
100
100.001
100.007
100.024
100.057
100.096
100.127
100.146
100.154
100.149
100
100
100
100
100
100
100
100
100
100
100
100
100
100.001
100.005
100.02
100.047
100.084
100.114
100.136
100
100
100
100
100
100
100
100
100
100
100
100
100
100
100
100.001
100.004
100.016
100.041
100.102
100.596
100.653
100.609
100.415
100.142
100.017
100.001
100
100
100
100
100
100
100
100
100.672
100.663
100.518
100.217
100.022
100
100
100
100
100
100
100
100
100
100
100.705
100.636
100.374
100.074
100.002
100
100
100
100
100
100
100
100
100
100
100.719
100.519
100.167
100.009
100
100
100
100
100
100
100
100
100
100
100
100.653
100.286
100.025
100
100
100
100
100
100
100
100
100
100
100
100
100.397
100.039
100
100
100
100
100
100
100
100
100
100
100
100
100
100.042
100
100
100
100
100
100
100
100
100
100
100
100
100
100
99.9995
100
100
100
100
100
100
100
100
100
100
100
100
100
100
100
100
100
100
100
100
100
100
100
100
100
100
100
100
100
100
100
100
100
100
100
100
100
100
100
100
100
100
100
100
100
100
100
100
100
100
100
100
100
100
100
100
100
100
100
100
100
100
100
100
100
100
100
100
100
100
100
100
100
100
100
100
100
100
100
100
100
100
100
100
100
100
100
100
100
100
100
100
100
100
100
100
100
100
100
100
100
100
100
100
100
100
100
100
100
100
100
100
100
100
100
100
100
100
100
100
100
100
100
100
100
100
100
100
100
100
100
100
100
100
100
100
100
100
100
100
100
100
100
100
100
100
100
100
100
100
100
100
100
100
100
100
100
100
100
100
100
100
100
100
100
100
100
100
100
100
100
100
100
100
100
100
100
100
100
100
100
100
100
100
100
100
100
100
100
100
100
100
100
100
100
100
100
100
100
100
100
100
100
100
100
100
100
100
100
100
100
100
100
100
100
100
100
100
100
100
100
100
100
100
100
100
100
100
100
100
100
100
100
100
100
100
100
100
100
100
100
100
100
100
100
100
100
100
100
100
100
100
100
100
100
100
100
100
100
100
100
100
100
100
100
100
100
100
100
100
100
100
100
100
100
100
100
100
100
100
100
100
100
100
100
100
100
100
100
100
100
100
100
100
100
100
100
100
100
100
100
100
100
100
100
100
100
100
100
100
100
100
100
100
100
100
100
100
100
100
100
100
100
100
100
100
100
100
100
100
100
100
100
100
100
100
100
100
100
100
100
100
100
100
100
100
100
100
100
100
100
100
100
100
100
100
100
100
100
100
100
100
100
100
100
100
100
100
100
100
100
100
100
100
100
100
100
100
100
100
100
100
100
100
100
100
100
100
100
100
100
100
100
100
100
100
100
100
100
100
100
100
100
100
100
100
100
100
100
100
100
100
100
100
100
100
100
100
100
100
100
100
100
100
100
100
100
100
100
100
100
100
100
100
100
100
100
100
100
100
100
100
100
100
100
100
100
100
100
100
100
100
100
100
100
100
100
100
100
100
100
100
100
100
100
100
100
100
100
100
100
100
100
100
100
100
100
100
100
100
100
100
100
100
100
100
100
100
100
100
100
100
100
100
100
100
100
100
100
100
100
100
100
100
100
100
100
100
100
100
100
100
100
100
100
100
100
100
100
100
100
100
100
100
100
100
100
100
100
100
100
100
100
100
100
100
100
100
100
100
100
100
100
100
100
100
100
100
100
100
100
100
100
100
100
100
100
100
100
100
100
100
100
100
100
100
100
100
100
100
100
100
100
100
100
100
100
100
100
100
100
100
100
100
100
100
100
100
100
100
100
100
100
100
100
100
100
100
100
100
100
100
100
100
100
100
100
100
100
100
100
100
100
100
100
100
100
100
100
100
100
100
100
100
100
100
100
100
100
100
100
100
100
100
100
100
100
100
100
100
100
100
100
100
100
100
100
100
100
100
100
100
100
100
100
100
100
100
100
100
100
100
100
100
100
100
100
100
100
100
100
100
100
100
100
100
100
100
100
100
100
100
100
100
100
100
100
100
100
100
100
100
100
100
100
100
100
100
100
100
100
100
100
100
100
100
100
100
100
100
100
100
100
100
100
100
100
100
100
100
100
100
100
100
100
100
100
100
100
100
100
100
100
100
100
100
100
100
100
100
100
100
100
100
100
100
100
100
100
100
100
100
100
100
100
100
100
100
100
100
100
100
100
100
100
100
100
100
100
100
100
100
100
100
100
100
100
100
100
100
100
100
100
100
100
100
100
100
100
100
100
100
100
100
100
100
100
100
100
100
100
100
100
100
100
100
100
100
100
100
100
100
100
100
100
100
100
100
100
100
100
100
100
100
100
100
100
100
100
100
100
100
100
100
100
100
100
100
100
100
100
100
100
100
100
100
100
100
100
100
100
100
100
100
100
100
100
100
100
100
100
100
100
100
100
100
100
100
100
100
100
100
100
100
99.9995
100
100
100
100
100
100
100
100
100
100
100
100
100
100
100.042
100
100
100
100
100
100
100
100
100
100
100
100
100
100
100.397
100.039
100
100
100
100
100
100
100
100
100
100
100
100
100
100.653
100.286
100.025
100
100
100
100
100
100
100
100
100
100
100
100
100.719
100.519
100.167
100.009
100
100
100
100
100
100
100
100
100
100
100
100.705
100.636
100.374
100.074
100.002
100
100
100
100
100
100
100
100
100
100
100.672
100.663
100.518
100.217
100.022
100
100
100
100
100
100
100
100
100
100
100.596
100.653
100.609
100.415
100.142
100.017
100.001
100
100
100
100
100
100
100
100
100.534
100.616
100.608
100.488
100.25
100.043
100.002
100
100
100
100
100
100
100
100
100.467
100.545
100.585
100.547
100.377
100.146
100.015
100
100
100
100
100
100
100
100
100.399
100.49
100.539
100.541
100.446
100.255
100.066
100.003
100
100
100
100
100
100
100
100.338
100.43
100.487
100.515
100.483
100.336
100.155
100.025
100.001
100
100
100
100
100
100
100.315
100.367
100.434
100.477
100.474
100.387
100.233
100.077
100.006
100
100
100
100
100
100
100.32
100.344
100.367
100.427
100.451
100.415
100.289
100.149
100.031
100.001
100
100
100
100
100
100.319
100.337
100.327
100.361
100.409
100.406
100.331
100.209
100.081
100.008
100
100
100
100
100
100.304
100.32
100.316
100.336
100.359
100.379
100.348
100.25
100.139
100.033
100.001
100
100
100
100
100.272
100.288
100.303
100.324
100.324
100.341
100.339
100.28
100.187
100.078
100.008
100
100
100
100
100.234
100.257
100.281
100.299
100.292
100.301
100.316
100.291
100.217
100.129
100.032
100.002
100
100
100
100.212
100.227
100.263
100.271
100.265
100.272
100.28
100.281
100.24
100.169
100.073
100.008
100
100
100
100.202
100.217
100.243
100.238
100.232
100.246
100.247
100.259
100.245
100.192
100.118
100.029
100.001
100
100
100.195
100.206
100.22
100.21
100.204
100.217
100.216
100.229
100.236
100.211
100.154
100.065
100.007
100
100
100.188
100.188
100.197
100.19
100.193
100.196
100.186
100.196
100.215
100.209
100.174
100.107
100.024
100.001
100
100.182
100.166
100.174
100.172
100.183
100.174
100.158
100.17
100.188
100.201
100.186
100.14
100.057
100.005
100
100.225
100.155
100.151
100.151
100.164
100.149
100.133
100.144
100.158
100.183
100.184
100.159
100.096
100.02
100.001
100.307
100.17
100.142
100.132
100.14
100.123
100.117
100.124
100.126
100.156
100.178
100.168
100.127
100.047
100.004
100.364
100.222
100.131
100.113
100.115
100.1
100.1
100.108
100.103
100.125
100.16
100.167
100.146
100.084
100.016
100.365
100.275
100.143
100.102
100.09
100.081
100.089
100.088
100.081
100.101
100.136
100.162
100.154
100.114
100.041
100.357
100.297
100.196
100.092
100.064
100.058
100.065
100.054
100.047
100.068
100.096
100.137
100.149
100.136
100.102
100.438
100.402
100.348
100.318
100.307
100.298
100.283
100.265
100.232
100.204
100.195
100.184
100.185
100.197
100.284
100.371
100.388
100.408
100.407
100.395
100.372
100.336
100.297
100.282
100.283
100.275
100.26
100.242
100.215
100.193
100.178
100.182
100.204
100.305
100.393
100.424
100.418
100.419
100.421
100.413
100.305
100.277
100.256
100.254
100.25
100.242
100.23
100.214
100.193
100.174
100.18
100.221
100.332
100.419
100.43
100.442
100.438
100.435
100.434
100.427
100.236
100.224
100.222
100.222
100.215
100.208
100.201
100.19
100.174
100.179
100.244
100.367
100.443
100.447
100.446
100.455
100.458
100.455
100.449
100.442
100.18
100.179
100.182
100.181
100.168
100.163
100.159
100.157
100.181
100.287
100.403
100.463
100.465
100.461
100.465
100.481
100.488
100.486
100.478
100.469
100.131
100.137
100.134
100.14
100.129
100.122
100.141
100.222
100.348
100.449
100.487
100.496
100.494
100.493
100.507
100.527
100.536
100.535
100.53
100.52
100.083
100.09
100.104
100.097
100.123
100.197
100.338
100.428
100.493
100.547
100.567
100.562
100.562
100.568
100.586
100.605
100.615
100.616
100.612
100.601
100.025
100.063
100.163
100.301
100.439
100.507
100.558
100.605
100.653
100.683
100.683
100.68
100.681
100.687
100.699
100.709
100.715
100.714
100.709
100.695
100.606
100.662
100.683
100.74
100.785
100.792
100.793
100.801
100.817
100.816
100.806
100.798
100.797
100.8
100.8
100.796
100.79
100.785
100.781
100.765
101.054
101.039
101.005
100.994
100.973
100.944
100.92
100.909
100.896
100.876
100.857
100.85
100.85
100.852
100.845
100.827
100.814
100.809
100.808
100.792
)
;

boundaryField
{
    inlet
    {
        type            fixedValue;
        value           uniform 100;
    }
    outlet
    {
        type            inletOutlet;
        inletValue      uniform 100;
        value           nonuniform List<scalar> 
50
(
100.357
100.297
100.196
100.092
100.064
100.058
100.065
100.054
100.047
100.068
100.096
100.137
100.149
100.136
100.102
100.79
100.76
100.689
100.597
100.519
100.469
100.443
100.427
100.413
100.395
100.395
100.413
100.427
100.442
100.469
100.52
100.601
100.695
100.765
100.792
100.357
100.297
100.196
100.092
100.064
100.058
100.065
100.054
100.047
100.068
100.096
100.137
100.149
100.136
100.102
)
;
    }
    airfoil
    {
        type            zeroGradient;
    }
    top
    {
        type            symmetryPlane;
    }
    bottom
    {
        type            symmetryPlane;
    }
    defaultFaces
    {
        type            empty;
    }
}


// ************************************************************************* //
