/*--------------------------------*- C++ -*----------------------------------*\
  =========                 |
  \\      /  F ield         | OpenFOAM: The Open Source CFD Toolbox
   \\    /   O peration     | Website:  https://openfoam.org
    \\  /    A nd           | Version:  7
     \\/     M anipulation  |
\*---------------------------------------------------------------------------*/
FoamFile
{
    version     2.0;
    format      ascii;
    class       volVectorField;
    location    "3.9";
    object      U;
}
// * * * * * * * * * * * * * * * * * * * * * * * * * * * * * * * * * * * * * //

dimensions      [0 1 -1 0 0 0 0];

internalField   nonuniform List<vector> 
3700
(
(1.42029 -0.441455 0)
(1.303 -0.523887 0)
(1.27599 -0.356873 0)
(1.31991 -0.351811 0)
(1.29394 -0.246701 0)
(1.37417 -0.230091 0)
(1.45134 -0.266592 0)
(1.52633 -0.35985 0)
(1.48504 -0.327308 0)
(1.44681 -0.17969 0)
(1.51668 -0.0397235 0)
(1.61018 -0.0635934 0)
(1.6626 -0.186138 0)
(1.67736 -0.274957 0)
(1.63575 -0.25848 0)
(1.64235 -0.188453 0)
(1.70926 -0.189651 0)
(1.7851 -0.228474 0)
(1.81703 -0.210415 0)
(1.87321 -0.111632 0)
(1.60847 -1.35553 0)
(1.72501 -1.33823 0)
(1.8435 -1.49367 0)
(1.89052 -1.71574 0)
(1.81642 -1.66445 0)
(1.82327 -1.59334 0)
(1.87715 -1.60892 0)
(1.8478 -1.6749 0)
(1.76661 -1.56395 0)
(1.70221 -1.23463 0)
(1.81767 -0.988301 0)
(1.96477 -0.972282 0)
(2.13681 -1.15765 0)
(2.12556 -1.3189 0)
(2.07274 -1.30299 0)
(2.05055 -1.20434 0)
(2.09293 -1.21793 0)
(2.15001 -1.17462 0)
(2.21298 -1.1717 0)
(2.27096 -1.02033 0)
(1.652 -1.31882 0)
(1.85132 -1.24675 0)
(2.11964 -1.62743 0)
(2.22336 -1.95657 0)
(2.07628 -2.21499 0)
(2.06264 -2.2881 0)
(2.10958 -2.20567 0)
(2.0316 -2.19728 0)
(2.03138 -2.19366 0)
(2.08763 -2.10507 0)
(2.18375 -2.02654 0)
(2.30911 -1.97399 0)
(2.42668 -1.89808 0)
(2.49738 -1.85626 0)
(2.53337 -1.83859 0)
(2.55229 -1.79018 0)
(2.51565 -1.80379 0)
(2.50932 -1.68698 0)
(2.50665 -1.66897 0)
(2.55761 -1.57665 0)
(1.7426 -1.35243 0)
(1.99274 -1.19771 0)
(2.25314 -1.57278 0)
(2.28813 -1.89903 0)
(2.14763 -2.12853 0)
(2.1299 -2.22902 0)
(2.21625 -2.11367 0)
(2.12404 -2.12891 0)
(2.10533 -2.15656 0)
(2.16008 -2.05604 0)
(2.19993 -1.99027 0)
(2.31044 -1.84256 0)
(2.42593 -1.74024 0)
(2.56282 -1.62957 0)
(2.69924 -1.51139 0)
(2.78892 -1.42788 0)
(2.77186 -1.46765 0)
(2.75506 -1.43863 0)
(2.66575 -1.48513 0)
(2.60962 -1.40187 0)
(1.87054 -1.4262 0)
(2.08218 -1.20347 0)
(2.15235 -1.61048 0)
(2.01573 -1.97997 0)
(1.99711 -2.1377 0)
(2.09074 -2.23061 0)
(2.20764 -2.09559 0)
(2.18914 -2.04848 0)
(2.23762 -2.01068 0)
(2.34912 -1.9023 0)
(2.29023 -1.97798 0)
(2.36562 -1.7853 0)
(2.4107 -1.70605 0)
(2.48843 -1.62963 0)
(2.62404 -1.50906 0)
(2.69767 -1.34823 0)
(2.76622 -1.1218 0)
(2.85759 -1.00939 0)
(2.85971 -0.975412 0)
(2.75004 -1.06234 0)
(1.81504 -1.44029 0)
(1.89257 -1.35306 0)
(1.81163 -1.78047 0)
(1.72867 -2.06453 0)
(1.89187 -2.13965 0)
(1.96485 -2.14905 0)
(2.10184 -2.05838 0)
(2.2568 -1.93035 0)
(2.34544 -1.89406 0)
(2.46293 -1.71774 0)
(2.48087 -1.75883 0)
(2.54973 -1.62818 0)
(2.5411 -1.57339 0)
(2.55213 -1.49608 0)
(2.58736 -1.41621 0)
(2.62672 -1.30618 0)
(2.67369 -1.17022 0)
(2.81036 -1.07296 0)
(2.84402 -0.824196 0)
(2.84083 -0.68049 0)
(1.62205 -1.4283 0)
(1.57365 -1.58389 0)
(1.4968 -1.8959 0)
(1.59988 -2.06439 0)
(1.64093 -2.08426 0)
(1.80674 -2.03162 0)
(1.95801 -1.99066 0)
(2.18557 -1.79529 0)
(2.37796 -1.65098 0)
(2.55695 -1.52625 0)
(2.59487 -1.44095 0)
(2.66993 -1.33512 0)
(2.67973 -1.30413 0)
(2.67644 -1.27369 0)
(2.68807 -1.16862 0)
(2.68068 -1.09925 0)
(2.67621 -0.986176 0)
(2.73758 -0.968884 0)
(2.75262 -0.820646 0)
(2.79556 -0.585064 0)
(1.39724 -1.35779 0)
(1.35073 -1.56534 0)
(1.37754 -1.92447 0)
(1.54773 -2.03568 0)
(1.6267 -2.03554 0)
(1.77769 -1.99375 0)
(1.93309 -1.93462 0)
(2.09062 -1.7791 0)
(2.23385 -1.59889 0)
(2.41896 -1.52673 0)
(2.53455 -1.25318 0)
(2.68012 -1.12334 0)
(2.71405 -0.907652 0)
(2.7389 -0.862868 0)
(2.76186 -0.750602 0)
(2.75684 -0.761001 0)
(2.74216 -0.65946 0)
(2.72215 -0.684386 0)
(2.7292 -0.681484 0)
(2.71235 -0.455201 0)
(1.23739 -1.20703 0)
(1.24036 -1.46107 0)
(1.33452 -1.88103 0)
(1.56827 -1.99024 0)
(1.71274 -1.94998 0)
(1.83376 -1.99408 0)
(2.0372 -1.91002 0)
(2.18127 -1.73812 0)
(2.25223 -1.55354 0)
(2.34506 -1.49882 0)
(2.46218 -1.2683 0)
(2.58648 -1.14901 0)
(2.63564 -0.863577 0)
(2.75039 -0.754606 0)
(2.74736 -0.492629 0)
(2.76028 -0.400958 0)
(2.74768 -0.277613 0)
(2.71777 -0.261374 0)
(2.70148 -0.379591 0)
(2.66258 -0.256885 0)
(1.14133 -1.02051 0)
(1.14967 -1.43579 0)
(1.38586 -1.84436 0)
(1.61454 -1.98293 0)
(1.80445 -1.91042 0)
(2.04303 -1.89026 0)
(2.27833 -1.70768 0)
(2.43251 -1.46349 0)
(2.48882 -1.41001 0)
(2.49888 -1.34483 0)
(2.54278 -1.15586 0)
(2.59129 -0.99729 0)
(2.60407 -0.800179 0)
(2.68516 -0.709967 0)
(2.68415 -0.480152 0)
(2.72478 -0.348286 0)
(2.70997 -0.145453 0)
(2.6802 -0.00521287 0)
(2.63067 -0.00171342 0)
(2.61803 -0.023251 0)
(1.03638 -0.92845 0)
(1.1388 -1.41972 0)
(1.55721 -1.93754 0)
(1.80915 -2.13812 0)
(2.36815 -1.85781 0)
(2.56246 -1.90351 0)
(2.77142 -1.57014 0)
(2.7683 -1.112 0)
(2.77889 -0.946855 0)
(2.7603 -0.846394 0)
(2.74607 -0.757775 0)
(2.72365 -0.564628 0)
(2.69111 -0.462803 0)
(2.68794 -0.373186 0)
(2.66103 -0.267564 0)
(2.65446 -0.209569 0)
(2.64579 -0.101689 0)
(2.60963 0.0587655 0)
(2.5461 0.210619 0)
(2.56281 0.160715 0)
(0.9449 -0.89077 0)
(1.23456 -1.47092 0)
(1.74296 -2.06378 0)
(2.22535 -2.24777 0)
(2.51289 -1.78355 0)
(2.50224 -1.65903 0)
(2.6316 -1.36958 0)
(2.72256 -0.980572 0)
(2.76465 -0.809056 0)
(2.72943 -0.469872 0)
(2.73989 -0.345945 0)
(2.69597 -0.126412 0)
(2.67976 -0.0261893 0)
(2.64069 0.0972706 0)
(2.61011 0.152966 0)
(2.57718 0.163229 0)
(2.55272 0.1501 0)
(2.52855 0.178544 0)
(2.44933 0.334857 0)
(2.45623 0.335237 0)
(0.897279 -0.908775 0)
(1.47714 -1.73649 0)
(2.07025 -2.21123 0)
(2.18799 -1.93014 0)
(2.189 -1.69478 0)
(2.28776 -1.44582 0)
(2.39274 -1.12906 0)
(2.4671 -0.895818 0)
(2.49874 -0.759379 0)
(2.54194 -0.514668 0)
(2.60495 -0.318624 0)
(2.58869 -0.0645237 0)
(2.58844 0.110415 0)
(2.52988 0.302341 0)
(2.47864 0.435704 0)
(2.44112 0.483938 0)
(2.392 0.528153 0)
(2.38828 0.469897 0)
(2.32584 0.537966 0)
(2.32877 0.504669 0)
(0.934003 -1.1447 0)
(1.68448 -2.20814 0)
(1.99532 -2.01565 0)
(1.96557 -1.70238 0)
(2.07984 -1.53082 0)
(2.27659 -1.20013 0)
(2.40345 -0.823315 0)
(2.46516 -0.621067 0)
(2.48178 -0.360531 0)
(2.50814 -0.225454 0)
(2.51343 -0.0224389 0)
(2.48654 0.152248 0)
(2.46054 0.288661 0)
(2.40813 0.424517 0)
(2.34843 0.548805 0)
(2.31813 0.606261 0)
(2.23353 0.714062 0)
(2.18969 0.752566 0)
(2.16986 0.773619 0)
(2.14535 0.783661 0)
(0.935458 -1.28843 0)
(1.47079 -2.09203 0)
(1.79328 -1.84201 0)
(1.97709 -1.47009 0)
(2.23571 -1.17336 0)
(2.4006 -0.524306 0)
(2.49125 -0.199735 0)
(2.50536 0.0331994 0)
(2.45704 0.220168 0)
(2.45327 0.33054 0)
(2.39617 0.488305 0)
(2.33596 0.603139 0)
(2.28346 0.67447 0)
(2.22462 0.743426 0)
(2.17695 0.773035 0)
(2.13944 0.796209 0)
(2.08644 0.850818 0)
(2.05857 0.889892 0)
(2.02828 0.938254 0)
(2.0556 0.958137 0)
(0.909456 -1.22427 0)
(1.42884 -1.84721 0)
(1.893 -1.59972 0)
(2.22449 -0.462584 0)
(2.42234 -0.0920742 0)
(2.46794 0.0551897 0)
(2.46669 0.151077 0)
(2.39294 0.369252 0)
(2.34025 0.463789 0)
(2.30597 0.616442 0)
(2.21352 0.766802 0)
(2.12866 0.879925 0)
(2.06629 0.940987 0)
(2.01028 0.993992 0)
(1.97532 0.989655 0)
(1.95574 0.993489 0)
(1.95796 1.01001 0)
(1.97223 0.99109 0)
(1.99584 0.991718 0)
(2.06793 0.978027 0)
(1.14257 -0.604039 0)
(1.65896 -0.795574 0)
(2.33857 -0.472479 0)
(2.38711 0.180286 0)
(2.37908 0.274498 0)
(2.3672 0.352114 0)
(2.286 0.52237 0)
(2.2076 0.643089 0)
(2.13988 0.740219 0)
(2.09437 0.878417 0)
(1.98388 0.98999 0)
(1.92622 1.05149 0)
(1.88833 1.07908 0)
(1.87064 1.09284 0)
(1.86911 1.06053 0)
(1.89526 1.05161 0)
(1.96224 1.02219 0)
(2.16748 0.900614 0)
(2.3854 0.78656 0)
(2.77961 0.436151 0)
(1.12461 -0.0959567 0)
(1.95773 -0.0718324 0)
(2.23743 0.457501 0)
(2.24351 0.527347 0)
(2.21134 0.61425 0)
(2.16013 0.737185 0)
(2.04138 0.893745 0)
(1.9592 0.975262 0)
(1.90237 1.03675 0)
(1.84825 1.12842 0)
(1.79196 1.15836 0)
(1.79428 1.15247 0)
(1.81308 1.13223 0)
(1.85172 1.08951 0)
(2.04136 0.952619 0)
(2.2582 0.831166 0)
(2.66367 0.505551 0)
(3.03536 0.0929325 0)
(3.05472 -0.0236173 0)
(3.004 -0.00463654 0)
(1.01715 0.0189353 0)
(1.9095 0.820113 0)
(2.12296 0.79407 0)
(2.00581 0.943813 0)
(1.97364 0.986217 0)
(1.86512 1.09601 0)
(1.78873 1.13955 0)
(1.75642 1.1461 0)
(1.75444 1.16261 0)
(1.73352 1.2038 0)
(1.71754 1.19744 0)
(1.86463 1.07232 0)
(2.09901 0.887583 0)
(2.50262 0.579363 0)
(2.9865 0.137302 0)
(3.0739 -0.0294042 0)
(3.00814 -0.00770617 0)
(3.00291 -0.00382234 0)
(3.00121 -0.00218181 0)
(3.00008 -0.000480108 0)
(1.16674 0.768139 0)
(1.83313 1.14653 0)
(1.84434 1.15166 0)
(1.74462 1.19585 0)
(1.71707 1.20506 0)
(1.66259 1.24482 0)
(1.65347 1.21493 0)
(1.72018 1.16466 0)
(1.75061 1.22912 0)
(1.78219 1.14419 0)
(2.26543 0.747523 0)
(2.85583 0.213197 0)
(3.09742 -0.0271792 0)
(3.02086 -0.0124842 0)
(3.00458 -0.00547648 0)
(3.00187 -0.00303746 0)
(3.00006 -0.000598479 0)
(2.99998 -2.41355e-05 0)
(2.99999 1.42642e-05 0)
(3 5.89723e-06 0)
(1.58093 1.25473 0)
(1.5867 1.26042 0)
(1.59568 1.26541 0)
(1.60512 1.26657 0)
(1.6095 1.25717 0)
(1.59717 1.26333 0)
(1.88414 1.15314 0)
(2.95405 0.367578 0)
(3.34943 -0.589776 0)
(3 -2.14911e-11 0)
(3 8.53908e-11 0)
(3 -3.52906e-12 0)
(3 1.5903e-10 0)
(3 -1.45759e-10 0)
(3 2.23171e-13 0)
(3 2.16864e-13 0)
(3 6.77608e-14 0)
(3 1.7578e-14 0)
(3 1.17025e-14 0)
(3 -8.54866e-15 0)
(1.57641 1.24059 0)
(1.58948 1.25445 0)
(1.60513 1.26474 0)
(1.61555 1.26773 0)
(1.65628 1.24086 0)
(1.72787 1.21119 0)
(2.27259 0.722172 0)
(2.99887 0.0125118 0)
(3 4.29626e-08 0)
(3 1.53786e-10 0)
(3 6.60773e-14 0)
(3 1.31273e-14 0)
(3 -1.15073e-13 0)
(3 1.01967e-13 0)
(3 -9.59197e-16 0)
(3 -1.28436e-15 0)
(3 -6.36324e-16 0)
(3 -4.57634e-16 0)
(3 3.49443e-16 0)
(3 -3.63622e-16 0)
(1.57905 1.25079 0)
(1.59933 1.25534 0)
(1.60985 1.26292 0)
(1.60553 1.27463 0)
(1.77711 1.19124 0)
(2.26089 0.797012 0)
(3.00315 -0.00853508 0)
(3.00007 -0.000325902 0)
(3 4.80151e-07 0)
(3 6.3626e-11 0)
(3 -3.72216e-13 0)
(3 -5.28636e-15 0)
(3 8.51644e-16 0)
(3 -2.75476e-16 0)
(3 -1.13417e-15 0)
(3 -1.16783e-15 0)
(3 -2.2742e-18 0)
(3 2.32428e-16 0)
(3 6.5161e-16 0)
(3 3.44413e-16 0)
(1.58193 1.25684 0)
(1.59925 1.25991 0)
(1.61771 1.26731 0)
(1.58853 1.3157 0)
(1.86504 1.08974 0)
(2.75108 0.223259 0)
(3.00407 -0.000115497 0)
(2.99993 5.72534e-05 0)
(3 -6.75994e-07 0)
(3 7.7534e-10 0)
(3 2.64156e-14 0)
(3 -1.22535e-15 0)
(3 -1.12363e-15 0)
(3 -5.92313e-16 0)
(3 -1.37046e-15 0)
(3 -1.30139e-15 0)
(3 3.05252e-17 0)
(3 -4.3279e-17 0)
(3 -6.37894e-16 0)
(3 5.05809e-16 0)
(1.58504 1.26978 0)
(1.59962 1.27174 0)
(1.63041 1.26069 0)
(1.63384 1.26219 0)
(2.31557 0.664899 0)
(3.02218 -0.0196856 0)
(2.99972 0.000102476 0)
(3 -4.0776e-06 0)
(3 7.95931e-08 0)
(3 -8.33781e-10 0)
(3 1.70398e-13 0)
(3 -2.25e-15 0)
(3 -2.23493e-15 0)
(3 -1.55597e-15 0)
(3 -2.36328e-15 0)
(3 -1.64433e-15 0)
(3 -1.46871e-15 0)
(3 -2.74111e-16 0)
(3 -5.1978e-16 0)
(3 2.16134e-16 0)
(1.5842 1.2811 0)
(1.59107 1.28038 0)
(1.64852 1.24769 0)
(1.8822 1.08333 0)
(2.73432 0.222639 0)
(3 -5.63932e-10 0)
(3 1.3434e-08 0)
(3 -1.21069e-08 0)
(3 5.16233e-10 0)
(3 2.46424e-12 0)
(3 -9.99153e-14 0)
(3 -4.51464e-15 0)
(3 -3.56442e-15 0)
(3 -2.64172e-15 0)
(3 -2.61725e-15 0)
(3 -2.22679e-15 0)
(3 -1.54424e-15 0)
(3 -1.04004e-15 0)
(3 -1.01359e-15 0)
(3 -6.38818e-16 0)
(1.58182 1.29152 0)
(1.55083 1.2879 0)
(1.6744 1.22558 0)
(2.12813 0.841603 0)
(3.02353 -0.019779 0)
(3 5.71917e-13 0)
(3 -2.1889e-11 0)
(3 2.3928e-11 0)
(3 -3.14453e-12 0)
(3 -4.73404e-16 0)
(3 -2.55743e-15 0)
(3 -4.199e-15 0)
(3 -4.2174e-15 0)
(3 -3.61317e-15 0)
(3 -2.72726e-15 0)
(3 -2.60634e-15 0)
(3 -2.341e-15 0)
(3 -2.73915e-15 0)
(3 -1.93927e-15 0)
(3 -1.22119e-15 0)
(1.58414 1.32804 0)
(1.49658 1.32616 0)
(1.72345 1.20418 0)
(2.37715 0.579811 0)
(3 -2.03119e-11 0)
(3 3.27355e-13 0)
(3 -1.43257e-14 0)
(3 -2.60788e-14 0)
(3 6.99356e-15 0)
(3 -3.03729e-15 0)
(3 -4.12832e-15 0)
(3 -4.5798e-15 0)
(3 -4.92416e-15 0)
(3 -4.2884e-15 0)
(3 -3.55515e-15 0)
(3 -2.94204e-15 0)
(3 -2.64668e-15 0)
(3 -3.17697e-15 0)
(3 -2.71312e-15 0)
(3 -2.36918e-15 0)
(1.58545 1.30493 0)
(1.46895 1.33882 0)
(1.99281 1.03955 0)
(2.88324 0.121788 0)
(3 -6.83923e-12 0)
(3 -1.30261e-14 0)
(3 -1.49164e-15 0)
(3 -2.70574e-15 0)
(3 -2.25608e-15 0)
(3 -2.74874e-15 0)
(3 -3.39536e-15 0)
(3 -4.50717e-15 0)
(3 -4.99857e-15 0)
(3 -3.6495e-15 0)
(3 -3.55196e-15 0)
(3 -3.34073e-15 0)
(3 -3.44761e-15 0)
(3 -2.71989e-15 0)
(3 -2.18149e-15 0)
(3 -1.78622e-15 0)
(1.60424 1.29672 0)
(1.47912 1.4013 0)
(2.11565 0.856164 0)
(3.01128 -0.00915456 0)
(3 8.17156e-11 0)
(3 -5.0104e-15 0)
(3 -3.63742e-16 0)
(3 -1.88145e-16 0)
(3 -1.25629e-15 0)
(3 -1.65862e-15 0)
(3 -2.29924e-15 0)
(3 -3.00197e-15 0)
(3 -4.36368e-15 0)
(3 -4.24023e-15 0)
(3 -3.43431e-15 0)
(3 -2.91275e-15 0)
(3 -3.25492e-15 0)
(3 -2.17834e-15 0)
(3 -1.53174e-15 0)
(3 -1.81114e-15 0)
(1.62367 1.28527 0)
(1.57783 1.31 0)
(2.43201 0.521583 0)
(3 5.03194e-15 0)
(3 -1.24939e-13 0)
(3 8.40367e-16 0)
(3 2.01532e-16 0)
(3 -1.39749e-16 0)
(3 -3.66726e-16 0)
(3 -4.52874e-16 0)
(3 -9.74495e-16 0)
(3 -1.15777e-15 0)
(3 -1.38562e-15 0)
(3 -1.96029e-15 0)
(3 -2.89434e-15 0)
(3 -3.35793e-15 0)
(3 -2.5882e-15 0)
(3 -2.02758e-15 0)
(3 -1.09341e-15 0)
(3 -9.99772e-16 0)
(1.64263 1.26669 0)
(1.65104 1.23566 0)
(2.65918 0.281012 0)
(3 8.22381e-16 0)
(3 6.63427e-16 0)
(3 3.74422e-16 0)
(3 7.95445e-16 0)
(3 3.7786e-16 0)
(3 1.3248e-16 0)
(3 1.70559e-16 0)
(3 -7.76577e-17 0)
(3 -9.19087e-16 0)
(3 -1.0232e-15 0)
(3 -1.50687e-15 0)
(3 -2.00178e-15 0)
(3 -2.54883e-15 0)
(3 -3.21531e-15 0)
(3 -2.65707e-15 0)
(3 -2.22818e-15 0)
(3 -7.08093e-16 0)
(1.65918 1.23355 0)
(1.82072 1.09454 0)
(2.88021 0.0871424 0)
(3 -3.82105e-15 0)
(3 2.18331e-15 0)
(3 1.59806e-15 0)
(3 1.08734e-15 0)
(3 8.09605e-16 0)
(3 6.33595e-16 0)
(3 3.75496e-16 0)
(3 -8.40045e-17 0)
(3 1.40532e-16 0)
(3 5.5956e-16 0)
(3 1.00785e-16 0)
(3 -9.35041e-16 0)
(3 -1.68748e-15 0)
(3 -2.03916e-15 0)
(3 -2.7234e-15 0)
(3 -2.92718e-15 0)
(3 -1.83076e-15 0)
(1.67073 1.20387 0)
(1.90499 0.971594 0)
(2.99645 0.00225014 0)
(3 1.85784e-15 0)
(3 2.15019e-15 0)
(3 1.71463e-15 0)
(3 1.38432e-15 0)
(3 9.40957e-16 0)
(3 1.16293e-15 0)
(3 5.70057e-16 0)
(3 -1.35079e-16 0)
(3 -6.40103e-18 0)
(3 4.66336e-16 0)
(3 5.04351e-16 0)
(3 2.60776e-17 0)
(3 -5.39812e-16 0)
(3 -7.28755e-16 0)
(3 -1.39566e-15 0)
(3 -1.53353e-15 0)
(3 -2.24598e-15 0)
(1.72992 1.16545 0)
(2.07209 0.823169 0)
(3 1.20696e-15 0)
(3 1.20652e-15 0)
(3 1.36145e-15 0)
(3 1.47747e-15 0)
(3 1.12682e-15 0)
(3 2.82439e-17 0)
(3 -9.8575e-16 0)
(3 -1.19555e-15 0)
(3 -9.67777e-16 0)
(3 -4.10693e-16 0)
(3 -1.36946e-17 0)
(3 3.21914e-16 0)
(3 4.04325e-16 0)
(3 3.12547e-16 0)
(3 7.67128e-17 0)
(3 -7.52671e-16 0)
(3 -1.18733e-15 0)
(3 -1.85481e-15 0)
(1.73848 1.10089 0)
(2.20053 0.672863 0)
(3 -2.50362e-16 0)
(3 2.99814e-16 0)
(3 7.04586e-16 0)
(3 1.23577e-15 0)
(3 1.46945e-15 0)
(3 -5.23325e-17 0)
(3 -1.79001e-15 0)
(3 -2.30258e-15 0)
(3 -2.05533e-15 0)
(3 -9.09694e-16 0)
(3 -7.15925e-16 0)
(3 -3.11416e-16 0)
(3 -2.10978e-16 0)
(3 -3.70806e-16 0)
(3 -7.41034e-17 0)
(3 -3.79675e-17 0)
(3 -4.12915e-17 0)
(3 -1.21645e-16 0)
(1.7999 1.01546 0)
(2.40683 0.464358 0)
(3 -7.70897e-16 0)
(3 -1.78745e-16 0)
(3 -1.61162e-15 0)
(3 -1.10382e-15 0)
(3 -7.45232e-16 0)
(3 -1.29666e-15 0)
(3 -2.03712e-15 0)
(3 -1.90276e-15 0)
(3 -1.66359e-15 0)
(3 -1.3785e-15 0)
(3 -1.15871e-15 0)
(3 -1.33031e-15 0)
(3 -1.68386e-15 0)
(3 -1.78857e-15 0)
(3 -1.95826e-15 0)
(3 -1.81793e-15 0)
(3 -1.24566e-15 0)
(3 -8.76749e-16 0)
(1.96179 0.890977 0)
(2.71167 0.21322 0)
(3 2.00979e-15 0)
(3 -4.2275e-16 0)
(3 -1.31332e-16 0)
(3 -4.16324e-16 0)
(3 -7.38953e-16 0)
(3 -1.46857e-15 0)
(3 -2.31813e-15 0)
(3 -2.77492e-15 0)
(3 -2.20479e-15 0)
(3 -1.88713e-15 0)
(3 -2.21831e-15 0)
(3 -2.56838e-15 0)
(3 -3.10772e-15 0)
(3 -3.91806e-15 0)
(3 -4.21947e-15 0)
(3 -4.14461e-15 0)
(3 -3.90093e-15 0)
(3 -3.33294e-15 0)
(2.10692 0.635133 0)
(2.99192 0.000327653 0)
(3 -4.81424e-15 0)
(3 -3.70417e-15 0)
(3 -2.48061e-15 0)
(3 -1.62154e-15 0)
(3 -1.35844e-15 0)
(3 -1.38928e-15 0)
(3 -2.09496e-15 0)
(3 -2.21613e-15 0)
(3 -2.33746e-15 0)
(3 -1.78601e-15 0)
(3 -1.40396e-15 0)
(3 -1.26126e-15 0)
(3 -1.23328e-15 0)
(3 -1.33664e-15 0)
(3 -1.70058e-15 0)
(3 -2.03077e-15 0)
(3 -2.04814e-15 0)
(3 -2.63671e-15 0)
(1.99678 0.378566 0)
(2.99995 -6.62834e-06 0)
(3 -3.64985e-15 0)
(3 -3.74862e-15 0)
(3 -2.41229e-15 0)
(3 -1.21014e-15 0)
(3 -1.29728e-15 0)
(3 -1.62416e-15 0)
(3 -1.56549e-15 0)
(3 -1.57308e-15 0)
(3 -1.43892e-15 0)
(3 -1.19386e-15 0)
(3 -3.16929e-16 0)
(3 3.55066e-16 0)
(3 7.74827e-16 0)
(3 1.34797e-15 0)
(3 1.54861e-15 0)
(3 1.58759e-15 0)
(3 1.75054e-15 0)
(3 1.76508e-15 0)
(1.9959 -0.378458 0)
(2.99995 7.32514e-06 0)
(3 -2.19463e-15 0)
(3 -2.03682e-15 0)
(3 -2.53777e-15 0)
(3 -2.66894e-15 0)
(3 -1.59273e-15 0)
(3 -1.31462e-15 0)
(3 -6.40379e-16 0)
(3 -4.5545e-16 0)
(3 1.57588e-16 0)
(3 3.42885e-17 0)
(3 1.47202e-16 0)
(3 4.08581e-16 0)
(3 8.19515e-16 0)
(3 1.01752e-15 0)
(3 1.30757e-15 0)
(3 1.63168e-15 0)
(3 1.69308e-15 0)
(3 2.01703e-15 0)
(2.10114 -0.634674 0)
(2.99211 -0.000313611 0)
(3 -1.03912e-15 0)
(3 -1.56695e-15 0)
(3 -2.84022e-15 0)
(3 -3.03799e-15 0)
(3 -1.75845e-15 0)
(3 -8.31066e-16 0)
(3 6.87674e-16 0)
(3 4.88882e-16 0)
(3 -2.32768e-18 0)
(3 4.62627e-17 0)
(3 6.27567e-16 0)
(3 9.28715e-16 0)
(3 1.29549e-15 0)
(3 1.62109e-15 0)
(3 1.80137e-15 0)
(3 1.96057e-15 0)
(3 2.09403e-15 0)
(3 2.3639e-15 0)
(1.96415 -0.889541 0)
(2.71576 -0.210551 0)
(3 -1.54954e-15 0)
(3 -1.52011e-15 0)
(3 -1.54608e-15 0)
(3 -7.95899e-16 0)
(3 8.53263e-16 0)
(3 9.19212e-16 0)
(3 1.28032e-15 0)
(3 9.22002e-16 0)
(3 7.56214e-16 0)
(3 1.04761e-15 0)
(3 1.39812e-15 0)
(3 1.63713e-15 0)
(3 1.86845e-15 0)
(3 2.23685e-15 0)
(3 2.37861e-15 0)
(3 2.63211e-15 0)
(3 2.82846e-15 0)
(3 2.80295e-15 0)
(1.80514 -1.01448 0)
(2.41275 -0.460918 0)
(3 -2.21402e-15 0)
(3 -1.69814e-15 0)
(3 -1.12596e-15 0)
(3 -3.65738e-16 0)
(3 3.54727e-16 0)
(3 6.0399e-16 0)
(3 8.99705e-16 0)
(3 1.12444e-15 0)
(3 1.7069e-15 0)
(3 2.46665e-15 0)
(3 2.47e-15 0)
(3 2.58667e-15 0)
(3 2.65094e-15 0)
(3 2.40349e-15 0)
(3 2.27171e-15 0)
(3 1.56856e-15 0)
(3 8.65509e-16 0)
(3 1.32919e-16 0)
(1.73572 -1.10155 0)
(2.19973 -0.671203 0)
(3 -2.39352e-15 0)
(3 -2.27688e-15 0)
(3 -1.99729e-15 0)
(3 -2.06607e-15 0)
(3 -1.93724e-15 0)
(3 -1.26931e-15 0)
(3 7.23059e-16 0)
(3 1.23652e-15 0)
(3 1.59071e-15 0)
(3 9.76376e-16 0)
(3 9.91306e-16 0)
(3 6.17724e-16 0)
(3 1.50322e-16 0)
(3 -1.10984e-16 0)
(3 -9.07484e-16 0)
(3 -1.83755e-15 0)
(3 -2.16133e-15 0)
(3 -2.38202e-15 0)
(1.72911 -1.16675 0)
(2.06841 -0.825671 0)
(3 -3.57935e-15 0)
(3 -3.52861e-15 0)
(3 -2.32029e-15 0)
(3 -1.14432e-15 0)
(3 -1.16437e-15 0)
(3 -1.24537e-15 0)
(3 -4.96626e-16 0)
(3 -2.85905e-16 0)
(3 -3.95838e-16 0)
(3 -8.3126e-16 0)
(3 -7.72618e-16 0)
(3 -7.14371e-16 0)
(3 -7.27042e-16 0)
(3 -5.94741e-16 0)
(3 -7.51756e-16 0)
(3 -7.10687e-16 0)
(3 4.15935e-16 0)
(3 1.23264e-15 0)
(1.6704 -1.20452 0)
(1.90272 -0.973655 0)
(2.99353 -0.00442392 0)
(3 -2.71268e-15 0)
(3 -2.57285e-15 0)
(3 -4.70305e-16 0)
(3 -6.63978e-16 0)
(3 -3.30415e-16 0)
(3 6.08213e-16 0)
(3 1.2397e-15 0)
(3 1.78895e-15 0)
(3 1.6777e-15 0)
(3 1.05172e-15 0)
(3 4.83366e-16 0)
(3 1.19353e-15 0)
(3 1.29175e-15 0)
(3 1.58356e-15 0)
(3 2.0875e-15 0)
(3 2.44733e-15 0)
(3 2.27447e-15 0)
(1.6579 -1.23475 0)
(1.82017 -1.09632 0)
(2.87796 -0.089143 0)
(3 2.43187e-16 0)
(3 -1.178e-15 0)
(3 4.54968e-16 0)
(3 9.44165e-16 0)
(3 9.72829e-16 0)
(3 1.49602e-15 0)
(3 2.07335e-15 0)
(3 2.33101e-15 0)
(3 2.08394e-15 0)
(3 1.78459e-15 0)
(3 2.01034e-15 0)
(3 2.1187e-15 0)
(3 2.2286e-15 0)
(3 2.12467e-15 0)
(3 2.02803e-15 0)
(3 1.59094e-15 0)
(3 6.61876e-16 0)
(1.6414 -1.26363 0)
(1.64647 -1.23843 0)
(2.65692 -0.284607 0)
(3 1.24636e-15 0)
(3 -3.64147e-16 0)
(3 1.11963e-15 0)
(3 8.5903e-16 0)
(3 1.10015e-15 0)
(3 1.2491e-15 0)
(3 1.76296e-15 0)
(3 1.89533e-15 0)
(3 1.54415e-15 0)
(3 1.49939e-15 0)
(3 1.73118e-15 0)
(3 2.01092e-15 0)
(3 1.48622e-15 0)
(3 1.58272e-16 0)
(3 -2.59478e-16 0)
(3 -6.9949e-16 0)
(3 -1.08708e-15 0)
(1.62361 -1.28517 0)
(1.58053 -1.30819 0)
(2.43479 -0.520177 0)
(3 -1.44418e-15 0)
(3 6.97922e-14 0)
(3 -1.2789e-16 0)
(3 -3.80305e-16 0)
(3 -2.84562e-16 0)
(3 1.82084e-16 0)
(3 -4.38793e-16 0)
(3 -1.55328e-16 0)
(3 3.1258e-16 0)
(3 5.16498e-16 0)
(3 5.9245e-16 0)
(3 -4.6555e-16 0)
(3 -2.20667e-17 0)
(3 -7.25514e-16 0)
(3 -1.22988e-15 0)
(3 -1.12326e-15 0)
(3 -1.30806e-15 0)
(1.60467 -1.29657 0)
(1.48087 -1.40045 0)
(2.11663 -0.854591 0)
(3.01125 0.00910586 0)
(3 -4.72631e-11 0)
(3 2.86093e-15 0)
(3 -5.50861e-16 0)
(3 -5.56966e-16 0)
(3 1.12473e-16 0)
(3 -2.30217e-16 0)
(3 -7.30362e-16 0)
(3 -8.60223e-16 0)
(3 -6.057e-17 0)
(3 -1.3079e-16 0)
(3 -6.67599e-16 0)
(3 -1.23479e-16 0)
(3 -4.47848e-16 0)
(3 -1.24922e-15 0)
(3 -9.75998e-16 0)
(3 -3.15943e-16 0)
(1.58646 -1.30458 0)
(1.47002 -1.33867 0)
(1.99421 -1.03752 0)
(2.88486 -0.119647 0)
(3 3.94988e-12 0)
(3 5.72431e-15 0)
(3 -1.6136e-15 0)
(3 -5.87026e-16 0)
(3 2.1786e-16 0)
(3 2.10104e-16 0)
(3 -9.0579e-16 0)
(3 -5.68726e-16 0)
(3 4.00102e-16 0)
(3 8.6902e-16 0)
(3 2.44518e-16 0)
(3 8.6085e-17 0)
(3 -1.10577e-16 0)
(3 -9.9726e-16 0)
(3 -1.50774e-15 0)
(3 -1.38202e-15 0)
(1.58446 -1.32849 0)
(1.49675 -1.3271 0)
(1.72501 -1.20405 0)
(2.38086 -0.576912 0)
(3 1.40259e-11 0)
(3 -2.62802e-13 0)
(3 7.12079e-15 0)
(3 2.69272e-14 0)
(3 -1.11545e-14 0)
(3 5.707e-16 0)
(3 2.93777e-16 0)
(3 8.25826e-17 0)
(3 4.99599e-16 0)
(3 2.48479e-16 0)
(3 1.13002e-15 0)
(3 7.36426e-16 0)
(3 3.26244e-17 0)
(3 -7.39369e-16 0)
(3 -1.21843e-15 0)
(3 -1.13682e-15 0)
(1.58171 -1.29106 0)
(1.5496 -1.28646 0)
(1.67136 -1.22817 0)
(2.12037 -0.846411 0)
(3.02304 0.0189507 0)
(3 -2.02143e-13 0)
(3 2.29819e-11 0)
(3 -2.5569e-11 0)
(3 3.31521e-12 0)
(3 -8.70479e-16 0)
(3 -7.96039e-17 0)
(3 6.92239e-16 0)
(3 2.84804e-16 0)
(3 -2.74027e-16 0)
(3 9.77804e-16 0)
(3 8.87578e-16 0)
(3 -3.58117e-16 0)
(3 -5.25914e-16 0)
(3 -9.40173e-16 0)
(3 -2.22393e-16 0)
(1.58414 -1.28005 0)
(1.5912 -1.27927 0)
(1.64855 -1.24749 0)
(1.89286 -1.07984 0)
(2.74096 -0.219331 0)
(3 5.65741e-10 0)
(3 -1.35247e-08 0)
(3 1.21973e-08 0)
(3 -5.22761e-10 0)
(3 -2.51476e-12 0)
(3 9.80426e-14 0)
(3 3.05255e-16 0)
(3 -5.74812e-17 0)
(3 3.38248e-16 0)
(3 9.3815e-16 0)
(3 7.96925e-16 0)
(3 -7.21848e-16 0)
(3 -3.98635e-16 0)
(3 -2.5039e-16 0)
(3 6.56148e-16 0)
(1.58549 -1.2687 0)
(1.60106 -1.27029 0)
(1.63354 -1.25851 0)
(1.63752 -1.25693 0)
(2.31548 -0.663196 0)
(3.02232 0.0197536 0)
(2.99972 -0.000113119 0)
(3 4.15026e-06 0)
(3 -8.06264e-08 0)
(3 8.42605e-10 0)
(3 -1.92337e-13 0)
(3 5.4885e-16 0)
(3 5.7499e-16 0)
(3 3.61003e-16 0)
(3 6.2335e-16 0)
(3 5.76105e-16 0)
(3 -6.72845e-16 0)
(3 -5.10186e-16 0)
(3 -2.71804e-16 0)
(3 1.50514e-15 0)
(1.58266 -1.25709 0)
(1.59958 -1.26002 0)
(1.61751 -1.2669 0)
(1.58282 -1.32005 0)
(1.86102 -1.09191 0)
(2.74684 -0.226942 0)
(3.00417 0.000346011 0)
(2.99993 -5.96258e-05 0)
(3 7.05318e-07 0)
(3 -7.92977e-10 0)
(3 -2.03258e-15 0)
(3 2.02404e-15 0)
(3 1.1429e-15 0)
(3 8.352e-16 0)
(3 3.47015e-16 0)
(3 3.44487e-16 0)
(3 -1.57389e-15 0)
(3 -6.20964e-16 0)
(3 3.49318e-16 0)
(3 2.59556e-15 0)
(1.57952 -1.2517 0)
(1.59867 -1.25608 0)
(1.60786 -1.26347 0)
(1.60069 -1.27578 0)
(1.77643 -1.19155 0)
(2.25376 -0.802898 0)
(3.00156 0.00706936 0)
(3.0001 0.000366129 0)
(3 -5.22856e-07 0)
(3 -6.01962e-11 0)
(3 3.59537e-13 0)
(3 -7.03458e-16 0)
(3 1.73605e-15 0)
(3 7.25559e-16 0)
(3 -1.57266e-16 0)
(3 1.61118e-16 0)
(3 -1.25128e-15 0)
(3 3.54941e-17 0)
(3 1.20495e-15 0)
(3 2.6799e-15 0)
(1.57544 -1.24113 0)
(1.58846 -1.25519 0)
(1.60377 -1.26548 0)
(1.615 -1.26746 0)
(1.65818 -1.23985 0)
(1.73002 -1.2115 0)
(2.27879 -0.71914 0)
(2.99944 -0.0119855 0)
(3 -4.25023e-08 0)
(3 -1.42399e-10 0)
(3 -1.1271e-14 0)
(3 1.72644e-15 0)
(3 2.37403e-15 0)
(3 7.49801e-16 0)
(3 -8.93035e-16 0)
(3 3.24477e-17 0)
(3 -7.9391e-17 0)
(3 7.65574e-16 0)
(3 2.02181e-15 0)
(3 2.42685e-15 0)
(1.58036 -1.25507 0)
(1.58565 -1.26073 0)
(1.59444 -1.26571 0)
(1.60528 -1.26697 0)
(1.61121 -1.25723 0)
(1.59985 -1.26318 0)
(1.88373 -1.15276 0)
(2.95324 -0.362709 0)
(3.34615 0.58179 0)
(3 2.22562e-11 0)
(3 -9.31858e-11 0)
(3 9.70163e-14 0)
(3 4.41251e-14 0)
(3 5.40898e-14 0)
(3 -1.54013e-14 0)
(3 9.32502e-15 0)
(3 1.08745e-15 0)
(3 1.83471e-15 0)
(3 2.18298e-15 0)
(3 4.68763e-15 0)
(1.16709 -0.767972 0)
(1.83189 -1.14941 0)
(1.84241 -1.15447 0)
(1.74233 -1.19863 0)
(1.71757 -1.20467 0)
(1.66409 -1.24404 0)
(1.65533 -1.21503 0)
(1.72155 -1.16464 0)
(1.75176 -1.228 0)
(1.78292 -1.14241 0)
(2.26649 -0.74575 0)
(2.85635 -0.212524 0)
(3.09721 0.0270738 0)
(3.02081 0.0124423 0)
(3.00456 0.00545643 0)
(3.00186 0.00302951 0)
(3.00006 0.000597434 0)
(2.99998 2.41174e-05 0)
(2.99999 -1.42814e-05 0)
(3 -5.90157e-06 0)
(1.01575 -0.0246638 0)
(1.92055 -0.762552 0)
(2.12453 -0.771833 0)
(2.01056 -0.932873 0)
(1.96926 -0.9908 0)
(1.86371 -1.09918 0)
(1.78985 -1.13992 0)
(1.7574 -1.14605 0)
(1.75511 -1.16247 0)
(1.73356 -1.20367 0)
(1.71665 -1.19745 0)
(1.86376 -1.07258 0)
(2.09968 -0.887391 0)
(2.50404 -0.578746 0)
(2.98732 -0.136624 0)
(3.07387 0.0295485 0)
(3.00813 0.00771103 0)
(3.00291 0.00382615 0)
(3.00122 0.00218403 0)
(3.00008 0.000480179 0)
(0.917286 -0.0326147 0)
(1.91576 -0.52546 0)
(2.24905 -0.513557 0)
(2.24082 -0.54228 0)
(2.20958 -0.602156 0)
(2.16018 -0.730767 0)
(2.04143 -0.892611 0)
(1.95971 -0.97581 0)
(1.90051 -1.03708 0)
(1.84817 -1.12927 0)
(1.79117 -1.15866 0)
(1.79438 -1.15282 0)
(1.81347 -1.13214 0)
(1.85247 -1.08886 0)
(2.04207 -0.951552 0)
(2.25799 -0.830768 0)
(2.66319 -0.506109 0)
(3.03527 -0.0932549 0)
(3.05474 0.0236208 0)
(3.00401 0.00463791 0)
(1.03617 0.746081 0)
(1.57773 1.19478 0)
(2.2719 0.382686 0)
(2.39946 -0.0368069 0)
(2.37977 -0.268651 0)
(2.36669 -0.351652 0)
(2.28437 -0.522108 0)
(2.20935 -0.638681 0)
(2.13881 -0.738842 0)
(2.09321 -0.879553 0)
(1.98322 -0.991079 0)
(1.926 -1.05166 0)
(1.88879 -1.07823 0)
(1.87099 -1.09188 0)
(1.86961 -1.06016 0)
(1.89527 -1.05156 0)
(1.96199 -1.02243 0)
(2.16727 -0.900923 0)
(2.38524 -0.786665 0)
(2.77947 -0.436005 0)
(1.12659 1.64812 0)
(1.39714 1.93151 0)
(1.96897 1.50678 0)
(2.24247 0.29122 0)
(2.44181 0.0704382 0)
(2.47505 -0.040258 0)
(2.46838 -0.140745 0)
(2.39459 -0.362209 0)
(2.34159 -0.45635 0)
(2.30663 -0.611027 0)
(2.2157 -0.762268 0)
(2.1298 -0.877045 0)
(2.06675 -0.939457 0)
(2.01046 -0.99334 0)
(1.97497 -0.99033 0)
(1.95495 -0.994637 0)
(1.95783 -1.01057 0)
(1.97223 -0.990926 0)
(1.996 -0.99142 0)
(2.06799 -0.977699 0)
(1.35787 1.82672 0)
(1.49934 2.16253 0)
(1.87389 1.71387 0)
(2.05222 1.33324 0)
(2.25237 1.1691 0)
(2.39951 0.459105 0)
(2.49626 0.179421 0)
(2.51045 -0.044618 0)
(2.4621 -0.223945 0)
(2.45439 -0.339174 0)
(2.39708 -0.495862 0)
(2.33501 -0.611197 0)
(2.2817 -0.681447 0)
(2.22329 -0.748416 0)
(2.17593 -0.776072 0)
(2.13893 -0.797391 0)
(2.08708 -0.849943 0)
(2.05969 -0.887925 0)
(2.0286 -0.937134 0)
(2.05539 -0.958 0)
(1.43011 1.78942 0)
(1.8305 2.55958 0)
(2.02669 1.79657 0)
(1.85481 1.74063 0)
(2.08188 1.49413 0)
(2.27706 1.19147 0)
(2.40281 0.825211 0)
(2.46921 0.621647 0)
(2.48569 0.345406 0)
(2.51232 0.216228 0)
(2.51486 0.0130751 0)
(2.48779 -0.156265 0)
(2.46046 -0.288846 0)
(2.40897 -0.420209 0)
(2.34897 -0.543122 0)
(2.31975 -0.60056 0)
(2.23499 -0.709598 0)
(2.18915 -0.752941 0)
(2.16808 -0.775619 0)
(2.14473 -0.784636 0)
(1.3771 1.47831 0)
(1.84559 2.21141 0)
(2.17806 2.16638 0)
(2.00822 1.99228 0)
(2.17076 1.62833 0)
(2.25275 1.45473 0)
(2.37055 1.13443 0)
(2.45243 0.905864 0)
(2.48769 0.765818 0)
(2.53349 0.528124 0)
(2.59834 0.333076 0)
(2.58589 0.0811875 0)
(2.58785 -0.0960196 0)
(2.53091 -0.290491 0)
(2.47855 -0.43122 0)
(2.44115 -0.484205 0)
(2.38964 -0.535962 0)
(2.38525 -0.476375 0)
(2.32545 -0.539235 0)
(2.32909 -0.504225 0)
(1.33479 1.1918 0)
(1.66421 1.69872 0)
(1.95388 2.18189 0)
(2.14881 2.29699 0)
(2.44227 1.7066 0)
(2.42321 1.66026 0)
(2.58194 1.3368 0)
(2.68781 0.984097 0)
(2.73794 0.837192 0)
(2.71543 0.488311 0)
(2.73556 0.359027 0)
(2.69403 0.1324 0)
(2.67958 0.0253437 0)
(2.63903 -0.104731 0)
(2.60841 -0.164621 0)
(2.57569 -0.175477 0)
(2.55146 -0.158832 0)
(2.52962 -0.176775 0)
(2.44991 -0.330298 0)
(2.45815 -0.328974 0)
(1.2908 1.08095 0)
(1.46885 1.46209 0)
(1.69571 1.97575 0)
(1.82623 2.16588 0)
(2.35084 1.80144 0)
(2.52332 1.85345 0)
(2.74294 1.51823 0)
(2.77424 1.08675 0)
(2.79221 0.931013 0)
(2.77196 0.815498 0)
(2.75791 0.736533 0)
(2.73133 0.544192 0)
(2.69759 0.450648 0)
(2.69059 0.359206 0)
(2.66311 0.260824 0)
(2.65303 0.206842 0)
(2.64596 0.110218 0)
(2.61034 -0.0470353 0)
(2.54752 -0.205554 0)
(2.56244 -0.162243 0)
(1.29183 1.0537 0)
(1.36403 1.32693 0)
(1.49636 1.79168 0)
(1.58097 1.96187 0)
(1.7879 1.88511 0)
(2.08374 1.82593 0)
(2.27363 1.6854 0)
(2.44003 1.427 0)
(2.51514 1.37717 0)
(2.51878 1.33926 0)
(2.55474 1.15514 0)
(2.59771 0.993944 0)
(2.60571 0.804134 0)
(2.68099 0.715029 0)
(2.6811 0.491877 0)
(2.72206 0.362075 0)
(2.71076 0.161573 0)
(2.68229 0.0103676 0)
(2.6323 -0.00441578 0)
(2.61789 0.0160722 0)
(1.31692 1.16481 0)
(1.34552 1.33363 0)
(1.40992 1.7945 0)
(1.55413 1.97604 0)
(1.67241 1.98226 0)
(1.8675 1.9241 0)
(2.02394 1.91808 0)
(2.19017 1.70947 0)
(2.2603 1.56213 0)
(2.34539 1.50733 0)
(2.4574 1.27998 0)
(2.57789 1.16302 0)
(2.62793 0.881367 0)
(2.74734 0.773475 0)
(2.74487 0.504833 0)
(2.76182 0.40382 0)
(2.74887 0.27319 0)
(2.71877 0.245208 0)
(2.70074 0.370137 0)
(2.66246 0.254221 0)
(1.39434 1.32083 0)
(1.42071 1.44869 0)
(1.43467 1.87936 0)
(1.54539 2.01531 0)
(1.616 2.04175 0)
(1.7967 1.93801 0)
(1.90551 1.95488 0)
(2.09316 1.74501 0)
(2.22104 1.60859 0)
(2.40106 1.54036 0)
(2.52027 1.26824 0)
(2.67165 1.14445 0)
(2.7097 0.905146 0)
(2.74098 0.852423 0)
(2.7634 0.733912 0)
(2.75922 0.74666 0)
(2.74574 0.648071 0)
(2.72261 0.671794 0)
(2.72648 0.679975 0)
(2.71298 0.467432 0)
(1.58232 1.43632 0)
(1.60357 1.54122 0)
(1.52662 1.88106 0)
(1.6258 2.07396 0)
(1.64612 2.09735 0)
(1.84229 1.98587 0)
(1.92617 2.02453 0)
(2.17014 1.74395 0)
(2.35075 1.67878 0)
(2.53728 1.54899 0)