/*--------------------------------*- C++ -*----------------------------------*\
  =========                 |
  \\      /  F ield         | OpenFOAM: The Open Source CFD Toolbox
   \\    /   O peration     | Website:  https://openfoam.org
    \\  /    A nd           | Version:  7
     \\/     M anipulation  |
\*---------------------------------------------------------------------------*/
FoamFile
{
    version     2.0;
    format      ascii;
    class       volScalarField;
    location    "2.5";
    object      T;
}
// * * * * * * * * * * * * * * * * * * * * * * * * * * * * * * * * * * * * * //

dimensions      [0 0 0 1 0 0 0];

internalField   nonuniform List<scalar> 
3700
(
100.726
100.855
100.944
100.937
100.926
100.96
101.001
101.011
100.998
101.001
101.073
101.118
101.121
101.133
101.13
101.119
101.1
101.062
101.053
101.052
100.337
100.339
100.416
100.437
100.467
100.617
100.714
100.683
100.549
100.442
100.488
100.519
100.509
100.517
100.56
100.566
100.515
100.409
100.407
100.434
100.352
100.237
100.153
100.015
99.9203
99.9153
99.9403
100.028
100.062
100.068
100.057
100.033
100.009
99.9886
99.9801
99.9863
100.001
100.021
100.037
100.037
100.356
100.239
100.122
99.9558
99.8659
99.8598
99.8961
99.9942
100.053
100.078
100.097
100.094
100.093
100.082
100.062
100.032
100.022
100.037
100.061
100.092
100.299
100.189
100.058
99.8749
99.8309
99.8343
99.8798
99.9497
99.9878
100.038
100.097
100.109
100.125
100.134
100.135
100.12
100.092
100.073
100.074
100.119
100.128
100.072
99.9454
99.8338
99.8247
99.8455
99.8945
99.9373
99.9692
100.015
100.061
100.093
100.129
100.152
100.164
100.173
100.173
100.17
100.163
100.174
100.011
99.9591
99.847
99.8403
99.8768
99.9558
100.012
100.009
100.003
100.026
100.053
100.08
100.117
100.147
100.17
100.196
100.216
100.23
100.235
100.26
99.9296
99.8675
99.8224
99.8671
99.9527
100.06
100.111
100.108
100.121
100.137
100.13
100.136
100.145
100.158
100.174
100.205
100.241
100.274
100.29
100.329
99.8332
99.815
99.8597
99.9051
100.006
100.122
100.148
100.152
100.195
100.226
100.235
100.241
100.255
100.266
100.269
100.273
100.284
100.316
100.342
100.39
99.7453
99.8171
99.9028
99.9541
100.066
100.173
100.157
100.168
100.231
100.265
100.289
100.307
100.334
100.342
100.353
100.361
100.37
100.386
100.41
100.451
99.6972
99.8439
99.9614
100
100.113
100.205
100.179
100.214
100.266
100.288
100.32
100.346
100.379
100.394
100.413
100.43
100.446
100.462
100.5
100.494
99.6897
99.8832
99.9761
100.011
100.161
100.236
100.237
100.298
100.35
100.383
100.401
100.415
100.431
100.445
100.465
100.492
100.519
100.54
100.579
100.57
99.7501
99.8788
99.9477
100.068
100.21
100.268
100.314
100.384
100.432
100.477
100.493
100.508
100.519
100.53
100.545
100.567
100.593
100.619
100.655
100.655
99.8467
99.795
99.931
100.125
100.237
100.281
100.365
100.438
100.493
100.543
100.559
100.578
100.593
100.611
100.637
100.663
100.686
100.708
100.724
100.734
99.8456
99.788
99.9186
100.138
100.251
100.312
100.448
100.514
100.577
100.608
100.628
100.647
100.667
100.693
100.726
100.753
100.773
100.783
100.78
100.775
99.6898
99.8468
99.9534
100.131
100.325
100.546
100.623
100.668
100.703
100.72
100.732
100.747
100.766
100.79
100.812
100.823
100.821
100.814
100.789
100.744
99.4034
99.7783
100.118
100.418
100.608
100.701
100.739
100.774
100.797
100.811
100.822
100.835
100.85
100.855
100.855
100.844
100.793
100.68
100.516
100.276
99.5057
100.121
100.475
100.668
100.776
100.813
100.837
100.861
100.876
100.882
100.882
100.882
100.88
100.857
100.77
100.622
100.361
100.102
100.006
99.9979
100.124
100.526
100.742
100.84
100.885
100.903
100.918
100.925
100.92
100.91
100.894
100.839
100.723
100.469
100.147
100.01
99.9966
99.9985
99.9992
99.9998
100.698
100.838
100.914
100.95
100.96
100.952
100.952
100.931
100.847
100.765
100.579
100.237
100.031
99.9958
99.9978
99.9989
99.9998
100
100
100
101
100.998
100.994
100.989
100.979
100.95
100.879
100.455
99.8452
100
100
100
100
100
100
100
100
100
100
100
100.999
100.996
100.989
100.975
100.956
100.857
100.471
100.009
100
100
100
100
100
100
100
100
100
100
100
100
100.99
100.992
100.987
100.965
100.919
100.63
100.034
99.9995
100
100
100
100
100
100
100
100
100
100
100
100
100.983
100.99
100.986
100.952
100.8
100.239
99.9966
100
100
100
100
100
100
100
100
100
100
100
100
100
100.976
100.987
100.984
100.922
100.576
99.9919
100
100
100
100
100
100
100
100
100
100
100
100
100
100
100.974
100.985
100.98
100.831
100.244
100
100
100
100
100
100
100
100
100
100
100
100
100
100
100
100.974
100.981
100.967
100.693
99.9927
100
100
100
100
100
100
100
100
100
100
100
100
100
100
100
100.986
100.977
100.917
100.473
100
100
100
100
100
100
100
100
100
100
100
100
100
100
100
100
101.006
100.976
100.821
100.123
100
100
100
100
100
100
100
100
100
100
100
100
100
100
100
100
101.016
100.942
100.688
99.9964
100
100
100
100
100
100
100
100
100
100
100
100
100
100
100
100
101.024
100.912
100.514
100
100
100
100
100
100
100
100
100
100
100
100
100
100
100
100
100
101.027
100.859
100.331
100
100
100
100
100
100
100
100
100
100
100
100
100
100
100
100
100
101.03
100.797
100.118
100
100
100
100
100
100
100
100
100
100
100
100
100
100
100
100
100
101.023
100.728
100.001
100
100
100
100
100
100
100
100
100
100
100
100
100
100
100
100
100
101.01
100.663
100
100
100
100
100
100
100
100
100
100
100
100
100
100
100
100
100
100
100.986
100.578
100
100
100
100
100
100
100
100
100
100
100
100
100
100
100
100
100
100
100.949
100.422
100
100
100
100
100
100
100
100
100
100
100
100
100
100
100
100
100
100
100.899
100.212
100
100
100
100
100
100
100
100
100
100
100
100
100
100
100
100
100
100
100.859
100.004
100
100
100
100
100
100
100
100
100
100
100
100
100
100
100
100
100
100
100.812
100
100
100
100
100
100
100
100
100
100
100
100
100
100
100
100
100
100
100
100.812
100
100
100
100
100
100
100
100
100
100
100
100
100
100
100
100
100
100
100
100.859
100.004
100
100
100
100
100
100
100
100
100
100
100
100
100
100
100
100
100
100
100.899
100.212
100
100
100
100
100
100
100
100
100
100
100
100
100
100
100
100
100
100
100.949
100.422
100
100
100
100
100
100
100
100
100
100
100
100
100
100
100
100
100
100
100.986
100.579
100
100
100
100
100
100
100
100
100
100
100
100
100
100
100
100
100
100
101.01
100.663
100
100
100
100
100
100
100
100
100
100
100
100
100
100
100
100
100
100
101.023
100.728
100.001
100
100
100
100
100
100
100
100
100
100
100
100
100
100
100
100
100
101.03
100.797
100.118
100
100
100
100
100
100
100
100
100
100
100
100
100
100
100
100
100
101.027
100.859
100.331
100
100
100
100
100
100
100
100
100
100
100
100
100
100
100
100
100
101.024
100.912
100.514
100
100
100
100
100
100
100
100
100
100
100
100
100
100
100
100
100
101.016
100.942
100.688
99.9964
100
100
100
100
100
100
100
100
100
100
100
100
100
100
100
100
101.006
100.976
100.821
100.123
100
100
100
100
100
100
100
100
100
100
100
100
100
100
100
100
100.986
100.977
100.916
100.473
100
100
100
100
100
100
100
100
100
100
100
100
100
100
100
100
100.974
100.981
100.967
100.694
99.9927
100
100
100
100
100
100
100
100
100
100
100
100
100
100
100
100.974
100.985
100.98
100.831
100.246
100
100
100
100
100
100
100
100
100
100
100
100
100
100
100
100.976
100.987
100.983
100.922
100.576
99.9919
100
100
100
100
100
100
100
100
100
100
100
100
100
100
100.983
100.99
100.986
100.952
100.8
100.239
99.9966
100
100
100
100
100
100
100
100
100
100
100
100
100
100.99
100.992
100.987
100.965
100.919
100.629
100.034
99.9995
100
100
100
100
100
100
100
100
100
100
100
100
100.999
100.996
100.989
100.975
100.956
100.857
100.471
100.009
100
100
100
100
100
100
100
100
100
100
100
100
101
100.998
100.994
100.989
100.979
100.95
100.879
100.456
99.8444
100
100
100
100
100
100
100
100
100
100
100
100.698
100.838
100.914
100.95
100.96
100.952
100.952
100.932
100.847
100.764
100.578
100.236
100.031
99.9958
99.9977
99.9989
99.9998
100
100
100
100.121
100.528
100.743
100.84
100.886
100.903
100.918
100.925
100.92
100.91
100.894
100.839
100.723
100.469
100.147
100.01
99.9966
99.9985
99.9992
99.9998
99.4518
100.087
100.474
100.668
100.776
100.813
100.837
100.86
100.876
100.882
100.882
100.882
100.88
100.857
100.771
100.623
100.361
100.102
100.006
99.9979
99.4706
99.7389
100.081
100.414
100.611
100.702
100.74
100.775
100.798
100.811
100.822
100.836
100.85
100.855
100.855
100.844
100.793
100.679
100.516
100.275
99.721
99.789
99.9182
100.122
100.31
100.542
100.622
100.668
100.704
100.721
100.733
100.747
100.766
100.79
100.812
100.823
100.821
100.814
100.788
100.744
99.8402
99.7498
99.9037
100.122
100.233
100.302
100.436
100.508
100.575
100.608
100.628
100.647
100.667
100.693
100.726
100.753
100.773
100.783
100.779
100.775
99.8898
99.7378
99.8989
100.122
100.228
100.272
100.357
100.431
100.489
100.541
100.558
100.577
100.593
100.611
100.636
100.663
100.686
100.708
100.724
100.734
99.8868
99.8148
99.9098
100.073
100.208
100.266
100.314
100.381
100.43
100.475
100.491
100.507
100.518
100.529
100.544
100.566
100.593
100.619
100.655
100.655
99.8129
99.9305
99.9652
100.02
100.165
100.235
100.24
100.299
100.349
100.381
100.4
100.414
100.43
100.444
100.465
100.493
100.519
100.54
100.579
100.57
99.8165
99.949
100.006
100.026
100.12
100.204
100.175
100.208
100.261
100.287
100.32
100.346
100.379
100.395
100.414
100.43
100.446
100.462
100.501
100.495
99.8419
99.9341
99.9848
100.002
100.091
100.182
100.155
100.168
100.231
100.268
100.292
100.309
100.335
100.344
100.354
100.362
100.371
100.387
100.411
100.452
99.8951
99.9037
99.9354
99.948
100.043
100.145
100.156
100.158
100.198
100.229
100.237
100.243
100.258
100.268
100.271
100.275
100.287
100.318
100.343
100.391
99.9705
99.9031
99.8712
99.8946
99.9767
100.081
100.122
100.112
100.122
100.139
100.133
100.141
100.148
100.16
100.179
100.209
100.243
100.275
100.291
100.329
100.042
99.9562
99.8599
99.8524
99.881
99.9636
100.012
100.001
99.9965
100.025
100.055
100.084
100.121
100.151
100.172
100.196
100.216
100.23
100.235
100.26
100.096
100.037
99.9206
99.8364
99.8182
99.8424
99.8911
99.9285
99.9642
100.011
100.06
100.094
100.132
100.155
100.163
100.171
100.171
100.168
100.162
100.173
100.156
100.101
100.029
99.877
99.823
99.8284
99.8821
99.9413
99.9798
100.03
100.092
100.108
100.128
100.133
100.132
100.114
100.087
100.069
100.071
100.116
100.238
100.156
100.09
99.9594
99.8558
99.8476
99.8963
99.9808
100.034
100.064
100.091
100.091
100.09
100.075
100.053
100.022
100.015
100.033
100.059
100.089
100.258
100.169
100.115
100.012
99.9087
99.8957
99.934
100.01
100.039
100.053
100.045
100.023
99.9986
99.9788
99.9719
99.981
100
100.022
100.036
100.035
100.273
100.229
100.231
100.269
100.247
100.051
100.048
100.245
100.542
100.699
100.744
100.755
100.737
100.68
100.543
100.401
100.411
100.465
100.497
100.454
100.649
100.786
100.84
100.887
100.886
100.832
100.81
100.872
101.009
101.128
101.171
101.171
101.165
101.154
101.119
101.071
101.07
101.075
101.071
101.059
101.044
101.023
101.008
100.99
100.961
100.934
100.907
100.891
100.887
100.882
100.865
100.836
100.804
100.786
100.784
100.782
100.773
100.719
100.571
100.261
100.566
100.644
100.703
100.729
100.764
100.793
100.801
100.807
100.808
100.804
100.791
100.772
100.751
100.74
100.741
100.75
100.749
100.706
100.579
100.295
100.024
100.067
100.172
100.264
100.416
100.513
100.58
100.641
100.652
100.647
100.648
100.645
100.637
100.637
100.645
100.67
100.689
100.667
100.581
100.353
100.085
100.09
100.097
100.096
100.114
100.208
100.365
100.478
100.497
100.51
100.524
100.532
100.531
100.533
100.541
100.568
100.61
100.607
100.566
100.398
100.136
100.137
100.128
100.131
100.141
100.14
100.168
100.276
100.378
100.429
100.444
100.46
100.47
100.472
100.474
100.492
100.535
100.542
100.527
100.41
100.185
100.186
100.179
100.165
100.163
100.168
100.18
100.18
100.211
100.283
100.355
100.401
100.432
100.439
100.442
100.455
100.483
100.486
100.48
100.396
100.242
100.238
100.212
100.193
100.197
100.202
100.207
100.211
100.204
100.186
100.222
100.301
100.365
100.4
100.424
100.438
100.448
100.447
100.44
100.365
100.306
100.29
100.264
100.232
100.222
100.224
100.227
100.228
100.218
100.202
100.179
100.185
100.246
100.323
100.385
100.419
100.421
100.417
100.404
100.326
100.367
100.345
100.314
100.275
100.257
100.252
100.245
100.242
100.234
100.221
100.203
100.181
100.16
100.203
100.301
100.376
100.396
100.394
100.378
100.295
100.428
100.404
100.369
100.325
100.294
100.274
100.26
100.252
100.245
100.235
100.219
100.194
100.161
100.143
100.187
100.294
100.363
100.368
100.351
100.271
100.524
100.455
100.412
100.378
100.338
100.292
100.271
100.27
100.264
100.252
100.237
100.215
100.185
100.142
100.134
100.168
100.249
100.298
100.294
100.234
100.62
100.54
100.472
100.435
100.41
100.366
100.314
100.287
100.272
100.255
100.243
100.226
100.202
100.175
100.139
100.105
100.104
100.138
100.187
100.164
100.609
100.588
100.538
100.472
100.428
100.393
100.357
100.312
100.277
100.26
100.251
100.235
100.218
100.194
100.16
100.114
100.08
100.057
100.044
100.043
100.489
100.547
100.541
100.516
100.466
100.417
100.386
100.351
100.314
100.286
100.257
100.228
100.207
100.184
100.157
100.125
100.088
100.052
100.018
99.9516
100.251
100.376
100.446
100.483
100.474
100.448
100.407
100.364
100.328
100.297
100.258
100.22
100.197
100.178
100.156
100.134
100.101
100.058
100.017
99.938
100.043
100.145
100.253
100.336
100.387
100.415
100.405
100.38
100.342
100.306
100.272
100.242
100.213
100.176
100.139
100.116
100.092
100.056
100.015
99.9404
100.002
100.015
100.065
100.154
100.233
100.29
100.329
100.349
100.34
100.315
100.283
100.246
100.209
100.176
100.131
100.096
100.069
100.036
100.003
99.9474
100
100
100.003
100.025
100.078
100.149
100.208
100.25
100.28
100.291
100.282
100.257
100.22
100.188
100.154
100.112
100.071
100.031
99.9973
99.9551
100
100
100
100.001
100.006
100.031
100.08
100.139
100.188
100.217
100.241
100.24
100.228
100.204
100.17
100.128
100.091
100.055
100.018
99.9758
100
100
100
100
100
100.001
100.008
100.032
100.079
100.13
100.168
100.192
100.199
100.194
100.181
100.159
100.127
100.093
100.059
100.022
100
100
100
100
100
100
100
100.001
100.008
100.032
100.073
100.116
100.144
100.16
100.158
100.15
100.136
100.117
100.096
100.067
100
100
100
100
100
100
100
100
100
100.001
100.008
100.027
100.059
100.093
100.115
100.122
100.119
100.109
100.096
100.075
100
100
100
100
100
100
100
100
100
100
100
100.001
100.006
100.018
100.039
100.061
100.075
100.079
100.077
100.065
100
100
100
100
100
100
100
100
100
100
100
100
100
100.001
100.003
100.008
100.016
100.025
100.03
100.028
100
100
100
100
100
100
100
100
100
100
100
100
100
100
100
100
100.001
100.001
100.003
100.003
100.598
100.652
100.609
100.416
100.143
100.018
100.001
100
100
100
100
100
100
100
100
100.672
100.662
100.518
100.218
100.022
100
100
100
100
100
100
100
100
100
100
100.705
100.636
100.373
100.074
100.002
100
100
100
100
100
100
100
100
100
100
100.719
100.517
100.166
100.009
100
100
100
100
100
100
100
100
100
100
100
100.651
100.283
100.024
100
100
100
100
100
100
100
100
100
100
100
100
100.394
100.038
100
100
100
100
100
100
100
100
100
100
100
100
100
100.042
100
100
100
100
100
100
100
100
100
100
100
100
100
100
99.9995
100
100
100
100
100
100
100
100
100
100
100
100
100
100
100
100
100
100
100
100
100
100
100
100
100
100
100
100
100
100
100
100
100
100
100
100
100
100
100
100
100
100
100
100
100
100
100
100
100
100
100
100
100
100
100
100
100
100
100
100
100
100
100
100
100
100
100
100
100
100
100
100
100
100
100
100
100
100
100
100
100
100
100
100
100
100
100
100
100
100
100
100
100
100
100
100
100
100
100
100
100
100
100
100
100
100
100
100
100
100
100
100
100
100
100
100
100
100
100
100
100
100
100
100
100
100
100
100
100
100
100
100
100
100
100
100
100
100
100
100
100
100
100
100
100
100
100
100
100
100
100
100
100
100
100
100
100
100
100
100
100
100
100
100
100
100
100
100
100
100
100
100
100
100
100
100
100
100
100
100
100
100
100
100
100
100
100
100
100
100
100
100
100
100
100
100
100
100
100
100
100
100
100
100
100
100
100
100
100
100
100
100
100
100
100
100
100
100
100
100
100
100
100
100
100
100
100
100
100
100
100
100
100
100
100
100
100
100
100
100
100
100
100
100
100
100
100
100
100
100
100
100
100
100
100
100
100
100
100
100
100
100
100
100
100
100
100
100
100
100
100
100
100
100
100
100
100
100
100
100
100
100
100
100
100
100
100
100
100
100
100
100
100
100
100
100
100
100
100
100
100
100
100
100
100
100
100
100
100
100
100
100
100
100
100
100
100
100
100
100
100
100
100
100
100
100
100
100
100
100
100
100
100
100
100
100
100
100
100
100
100
100
100
100
100
100
100
100
100
100
100
100
100
100
100
100
100
100
100
100
100
100
100
100
100
100
100
100
100
100
100
100
100
100
100
100
100
100
100
100
100
100
100
100
100
100
100
100
100
100
100
100
100
100
100
100
100
100
100
100
100
100
100
100
100
100
100
100
100
100
100
100
100
100
100
100
100
100
100
100
100
100
100
100
100
100
100
100
100
100
100
100
100
100
100
100
100
100
100
100
100
100
100
100
100
100
100
100
100
100
100
100
100
100
100
100
100
100
100
100
100
100
100
100
100
100
100
100
100
100
100
100
100
100
100
100
100
100
100
100
100
100
100
100
100
100
100
100
100
100
100
100
100
100
100
100
100
100
100
100
100
100
100
100
100
100
100
100
100
100
100
100
100
100
100
100
100
100
100
100
100
100
100
100
100
100
100
100
100
100
100
100
100
100
100
100
100
100
100
100
100
100
100
100
100
100
100
100
100
100
100
100
100
100
100
100
100
100
100
100
100
100
100
100
100
100
100
100
100
100
100
100
100
100
100
100
100
100
100
100
100
100
100
100
100
100
100
100
100
100
100
100
100
100
100
100
100
100
100
100
100
100
100
100
100
100
100
100
100
100
100
100
100
100
100
100
100
100
100
100
100
100
100
100
100
100
100
100
100
100
100
100
100
100
100
100
100
100
100
100
100
100
100
100
100
100
100
100
100
100
100
100
100
100
100
100
100
100
100
100
100
100
100
100
100
100
100
100
100
100
100
100
100
100
100
100
100
100
100
100
100
100
100
100
100
100
100
100
100
100
100
100
100
100
100
100
100
100
100
100
100
100
100
100
100
100
100
100
100
100
100
100
100
100
100
100
100
100
100
100
100
100
100
100
100
100
100
100
100
100
100
100
100
100
100
100
100
100
100
100
100
100
100
100
100
100
100
100
100
100
100
100
100
100
100
100
100
100
100
100
100
100
100
100
100
100
100
100
100
100
100
100
100
100
100
100
100
100
100
100
100
100
100
100
100
100
100
100
100
100
100
100
100
100
100
100
100
100
100
100
100
100
100
100
100
100
100
100
100
100
100
100
100
100
100
100
100
100
100
100
100
100
100
100
100
100
100
100
100
100
100
100
100
100
100
100
100
100
100
100
100
100
100
100
100
100
100
100
100
100
100
100
100
100
100
100
100
100
100
100
100
100
100
100
100
100
100
100
100
100
100
100
100
100
99.9995
100
100
100
100
100
100
100
100
100
100
100
100
100
100
100.042
100
100
100
100
100
100
100
100
100
100
100
100
100
100
100.394
100.038
100
100
100
100
100
100
100
100
100
100
100
100
100
100.651
100.283
100.024
100
100
100
100
100
100
100
100
100
100
100
100
100.719
100.517
100.166
100.009
100
100
100
100
100
100
100
100
100
100
100
100.705
100.636
100.373
100.074
100.002
100
100
100
100
100
100
100
100
100
100
100.672
100.663
100.518
100.218
100.022
100
100
100
100
100
100
100
100
100
100
100.598
100.653
100.609
100.416
100.143
100.018
100.001
100
100
100
100
100
100
100
100
100.524
100.62
100.609
100.489
100.251
100.043
100.002
100
100
100
100
100
100
100
100
100.455
100.541
100.588
100.547
100.376
100.145
100.015
100
100
100
100
100
100
100
100
100.411
100.472
100.539
100.541
100.446
100.253
100.065
100.003
100
100
100
100
100
100
100
100.377
100.435
100.472
100.516
100.483
100.336
100.154
100.025
100.001
100
100
100
100
100
100
100.338
100.41
100.428
100.466
100.474
100.387
100.233
100.078
100.006
100
100
100
100
100
100
100.292
100.366
100.392
100.417
100.448
100.415
100.29
100.149
100.031
100.001
100
100
100
100
100
100.271
100.314
100.357
100.386
100.407
100.405
100.329
100.208
100.08
100.008
100
100
100
100
100
100.27
100.287
100.312
100.351
100.364
100.38
100.349
100.25
100.139
100.032
100.001
100
100
100
100
100.264
100.272
100.277
100.314
100.328
100.343
100.34
100.28
100.188
100.079
100.008
100
100
100
100
100.252
100.255
100.26
100.286
100.297
100.306
100.315
100.291
100.217
100.13
100.032
100.001
100
100
100
100.237
100.242
100.251
100.257
100.258
100.272
100.283
100.282
100.241
100.168
100.073
100.008
100
100
100
100.215
100.225
100.235
100.228
100.22
100.242
100.246
100.257
100.24
100.192
100.116
100.027
100.001
100
100
100.185
100.202
100.218
100.207
100.197
100.213
100.209
100.22
100.228
100.199
100.144
100.059
100.006
100
100
100.142
100.175
100.194
100.184
100.177
100.176
100.176
100.188
100.204
100.194
100.16
100.093
100.018
100.001
100
100.133
100.14
100.16
100.156
100.156
100.139
100.132
100.154
100.17
100.181
100.158
100.115
100.039
100.003
100
100.166
100.105
100.115
100.125
100.134
100.115
100.096
100.112
100.127
100.159
100.15
100.122
100.061
100.008
100
100.249
100.104
100.08
100.089
100.101
100.092
100.069
100.072
100.091
100.127
100.136
100.119
100.075
100.016
100.001
100.298
100.137
100.057
100.052
100.059
100.056
100.036
100.031
100.055
100.093
100.117
100.109
100.079
100.025
100.001
100.295
100.185
100.044
100.018
100.017
100.016
100.003
99.9969
100.018
100.059
100.096
100.096
100.077
100.03
100.003
100.235
100.164
100.042
99.9512
99.9383
99.9413
99.9471
99.9546
99.9759
100.022
100.067
100.075
100.065
100.028
100.003
100.428
100.404
100.37
100.325
100.294
100.274
100.26
100.252
100.245
100.235
100.219
100.194
100.162
100.143
100.186
100.293
100.362
100.368
100.352
100.272
100.366
100.345
100.314
100.275
100.257
100.252
100.245
100.241
100.234
100.22
100.203
100.181
100.16
100.203
100.299
100.376
100.396
100.394
100.378
100.295
100.306
100.289
100.265
100.232
100.221
100.223
100.227
100.228
100.218
100.202
100.179
100.185
100.245
100.322
100.383
100.42
100.421
100.417
100.404
100.326
100.241
100.238
100.213
100.193
100.197
100.202
100.207
100.211
100.204
100.186
100.221
100.299
100.363
100.399
100.423
100.439
100.448
100.448
100.44
100.366
100.184
100.186
100.179
100.165
100.163
100.168
100.18
100.18
100.21
100.283
100.354
100.4
100.432
100.44
100.443
100.455
100.484
100.488
100.482
100.397
100.135
100.137
100.129
100.131
100.14
100.14
100.168
100.277
100.375
100.428
100.444
100.459
100.47
100.473
100.475
100.493
100.536
100.542
100.527
100.41
100.083
100.091
100.096
100.095
100.114
100.209
100.367
100.477
100.497
100.51
100.524
100.533
100.533
100.535
100.542
100.568
100.61
100.606
100.565
100.398
100.02
100.062
100.164
100.261
100.417
100.515
100.582
100.639
100.654
100.649
100.649
100.648
100.642
100.641
100.648
100.672
100.689
100.666
100.58
100.353
100.57
100.64
100.689
100.724
100.768
100.797
100.802
100.804
100.81
100.807
100.797
100.779
100.758
100.746
100.746
100.753
100.749
100.704
100.578
100.297
101.047
101.021
101.002
100.987
100.962
100.941
100.909
100.89
100.888
100.888
100.875
100.846
100.813
100.791
100.785
100.784
100.774
100.718
100.571
100.266
)
;

boundaryField
{
    inlet
    {
        type            fixedValue;
        value           uniform 100;
    }
    outlet
    {
        type            inletOutlet;
        inletValue      uniform 100;
        value           nonuniform List<scalar> 
50
(
100.233
100.164
100.042
99.9513
99.9376
99.9401
99.9472
99.9551
99.9757
100.022
100.067
100.075
100.065
100.028
100.003
100.26
100.293
100.352
100.397
100.409
100.395
100.364
100.326
100.294
100.27
100.271
100.295
100.326
100.365
100.396
100.409
100.397
100.352
100.296
100.265
100.234
100.164
100.041
99.9509
99.9379
99.941
99.9469
99.9545
99.9759
100.022
100.067
100.075
100.065
100.028
100.003
)
;
    }
    airfoil
    {
        type            zeroGradient;
    }
    top
    {
        type            symmetryPlane;
    }
    bottom
    {
        type            symmetryPlane;
    }
    defaultFaces
    {
        type            empty;
    }
}


// ************************************************************************* //
