/*--------------------------------*- C++ -*----------------------------------*\
  =========                 |
  \\      /  F ield         | OpenFOAM: The Open Source CFD Toolbox
   \\    /   O peration     | Website:  https://openfoam.org
    \\  /    A nd           | Version:  7
     \\/     M anipulation  |
\*---------------------------------------------------------------------------*/
FoamFile
{
    version     2.0;
    format      ascii;
    class       volScalarField;
    location    "0.4";
    object      p;
}
// * * * * * * * * * * * * * * * * * * * * * * * * * * * * * * * * * * * * * //

dimensions      [1 -1 -2 0 0 0 0];

internalField   nonuniform List<scalar> 
3700
(
0.105937
0.140814
0.149685
0.166316
0.180934
0.19465
0.199901
0.203502
0.21589
0.225891
0.238946
0.265683
0.298351
0.338524
0.383863
0.431369
0.482258
0.529834
0.566874
0.60514
0.0759808
0.110342
0.127159
0.145758
0.157597
0.160821
0.158839
0.157704
0.149766
0.134789
0.133236
0.146348
0.165928
0.172169
0.175664
0.180994
0.190951
0.192365
0.204071
0.210421
0.0741636
0.0735312
0.073206
0.0769784
0.0782928
0.0741083
0.0653924
0.0589059
0.0547256
0.0508028
0.0506595
0.0492244
0.0493563
0.0504952
0.0538461
0.0606616
0.0727538
0.0865504
0.105071
0.126964
0.0799691
0.0627456
0.0541737
0.0540241
0.0498934
0.0456965
0.0411476
0.0443653
0.0485571
0.0566786
0.0667649
0.0701887
0.070763
0.0705376
0.0707282
0.0738174
0.0815817
0.0901676
0.108145
0.137979
0.0809045
0.0639676
0.0527439
0.0421826
0.0377209
0.0378749
0.0364987
0.0411226
0.0458925
0.0569287
0.0727327
0.0889761
0.100567
0.108173
0.111994
0.11554
0.121247
0.128384
0.141625
0.166344
0.0748147
0.0581047
0.0437863
0.0329239
0.0321644
0.0344045
0.0350162
0.0398593
0.043898
0.0544773
0.0709719
0.0920909
0.112552
0.131102
0.147695
0.163016
0.174483
0.186818
0.201981
0.237607
0.0597668
0.0426786
0.0311549
0.0295625
0.0317002
0.0362497
0.0390107
0.0493082
0.0515551
0.058705
0.070065
0.0883462
0.114103
0.142758
0.172394
0.200811
0.224116
0.250791
0.275611
0.327661
0.041915
0.0300449
0.0272362
0.0298535
0.0371406
0.0455317
0.0558898
0.0718089
0.0781458
0.0867885
0.0962697
0.112092
0.136059
0.170375
0.205205
0.238818
0.270647
0.309222
0.341995
0.425469
0.0326012
0.0252624
0.0262586
0.0287061
0.0388958
0.0538343
0.0720103
0.0928573
0.109971
0.128622
0.152913
0.187756
0.226804
0.263329
0.297716
0.33442
0.372948
0.419753
0.460402
0.583137
0.0241692
0.0215579
0.0244953
0.0270601
0.0351776
0.0558198
0.0789509
0.101856
0.129203
0.158162
0.196193
0.24363
0.303643
0.37039
0.43746
0.500244
0.563709
0.632963
0.704055
0.863758
0.0172961
0.0175199
0.021958
0.0255825
0.0319355
0.0525079
0.0788777
0.100937
0.141402
0.179682
0.227993
0.288376
0.369812
0.46941
0.57379
0.670297
0.761067
0.857565
0.986893
1.12372
0.0130816
0.0141962
0.0195317
0.0247995
0.0321851
0.0530879
0.085677
0.143973
0.210198
0.282031
0.346185
0.417326
0.504178
0.619629
0.751903
0.891926
1.03263
1.19288
1.40977
1.73995
0.0109158
0.012728
0.0185756
0.0275273
0.0448676
0.0939802
0.167278
0.28896
0.408923
0.531762
0.642173
0.755581
0.875906
1.01149
1.17287
1.36197
1.60575
1.87526
2.16312
2.24602
0.0105565
0.0136572
0.0241494
0.0459146
0.091552
0.191763
0.306645
0.46319
0.639795
0.819626
1.00245
1.19051
1.38875
1.58859
1.82805
2.08246
2.37421
2.60496
2.60494
2.51388
0.0145378
0.0208311
0.0362202
0.0872464
0.163102
0.310452
0.493845
0.721076
0.99525
1.25802
1.51537
1.77427
2.04777
2.33443
2.61117
2.89118
2.98048
2.92153
2.75598
2.2969
0.0154488
0.0278663
0.0486851
0.144346
0.290545
0.51226
0.874412
1.35438
1.79251
2.15452
2.46962
2.78532
3.03828
3.2972
3.39269
3.3341
3.18488
2.78693
2.02819
1.28773
0.011747
0.0458643
0.0914671
0.308039
0.727831
1.25762
1.90693
2.58037
3.06852
3.40658
3.64426
3.84468
3.83002
3.73933
3.53698
3.07019
2.24172
1.43524
1.05881
1.00054
0.0197163
0.131384
0.478143
1.14508
1.91214
2.73559
3.61039
4.20394
4.39743
4.34632
4.29669
4.18726
3.85953
3.12086
2.11818
1.33164
1.032
0.99836
0.999415
0.999796
0.301513
0.824994
1.87733
3.02056
3.93767
4.67389
5.39271
5.2693
4.87245
4.45837
3.84798
2.85397
1.80062
1.15831
0.99729
0.997415
0.998896
0.999759
0.999985
1
2.21566
3.4411
4.68439
5.36629
5.84029
6.05041
5.9736
4.4975
3.19528
2.27308
1.44071
1.04295
0.993131
0.99687
0.998728
0.999765
0.999997
1
1
1
6.59249
6.52966
6.476
6.45162
6.452
6.21201
3.54911
0.492833
1.00001
0.999955
0.999999
1
1
1
1
1
1
1
1
1
6.59408
6.53312
6.46744
6.4211
6.26704
4.32669
1.68592
0.999997
1
1
1
1
1
1
1
1
1
1
1
1
6.55308
6.58775
6.55743
6.43895
5.85567
2.44491
0.972721
1.00005
1
1
1
1
1
1
1
1
1
1
1
1
6.49133
6.65493
6.63275
6.2521
4.14062
1.28378
1
1
1
1
1
1
1
1
1
1
1
1
1
1
6.40799
6.67554
6.66499
6.02634
2.48951
0.978729
1
1
1
1
1
1
1
1
1
1
1
1
1
1
6.36704
6.68426
6.65417
4.76119
1.41624
1
1
1
1
1
1
1
1
1
1
1
1
1
1
1
6.35464
6.6941
6.6589
3.47373
0.974357
1
1
1
1
1
1
1
1
1
1
1
1
1
1
1
6.52269
6.61085
5.98883
2.04134
1
1
1
1
1
1
1
1
1
1
1
1
1
1
1
1
6.94709
6.6902
4.90317
1.17047
1
1
1
1
1
1
1
1
1
1
1
1
1
1
1
1
7.2252
6.35344
3.48697
0.987827
1
1
1
1
1
1
1
1
1
1
1
1
1
1
1
1
7.41563
6.01575
2.319
1
1
1
1
1
1
1
1
1
1
1
1
1
1
1
1
1
7.48948
5.40676
1.63077
1
1
1
1
1
1
1
1
1
1
1
1
1
1
1
1
1
7.54136
4.76717
1.16718
1
1
1
1
1
1
1
1
1
1
1
1
1
1
1
1
1
7.40594
3.97457
1.00698
1
1
1
1
1
1
1
1
1
1
1
1
1
1
1
1
1
7.18395
3.20017
1
1
1
1
1
1
1
1
1
1
1
1
1
1
1
1
1
1
6.92956
2.53584
1
1
1
1
1
1
1
1
1
1
1
1
1
1
1
1
1
1
6.68182
1.85632
1
1
1
1
1
1
1
1
1
1
1
1
1
1
1
1
1
1
6.24229
1.35769
1
1
1
1
1
1
1
1
1
1
1
1
1
1
1
1
1
1
5.81734
1.00563
1
1
1
1
1
1
1
1
1
1
1
1
1
1
1
1
1
1
4.63752
1.0001
1
1
1
1
1
1
1
1
1
1
1
1
1
1
1
1
1
1
4.63752
1.0001
1
1
1
1
1
1
1
1
1
1
1
1
1
1
1
1
1
1
5.81734
1.00563
1
1
1
1
1
1
1
1
1
1
1
1
1
1
1
1
1
1
6.24229
1.35769
1
1
1
1
1
1
1
1
1
1
1
1
1
1
1
1
1
1
6.68182
1.85632
1
1
1
1
1
1
1
1
1
1
1
1
1
1
1
1
1
1
6.92956
2.53584
1
1
1
1
1
1
1
1
1
1
1
1
1
1
1
1
1
1
7.18395
3.20017
1
1
1
1
1
1
1
1
1
1
1
1
1
1
1
1
1
1
7.40594
3.97457
1.00698
1
1
1
1
1
1
1
1
1
1
1
1
1
1
1
1
1
7.54136
4.76717
1.16718
1
1
1
1
1
1
1
1
1
1
1
1
1
1
1
1
1
7.48948
5.40676
1.63077
1
1
1
1
1
1
1
1
1
1
1
1
1
1
1
1
1
7.41563
6.01575
2.319
1
1
1
1
1
1
1
1
1
1
1
1
1
1
1
1
1
7.2252
6.35344
3.48697
0.987827
1
1
1
1
1
1
1
1
1
1
1
1
1
1
1
1
6.94709
6.6902
4.90317
1.17047
1
1
1
1
1
1
1
1
1
1
1
1
1
1
1
1
6.52269
6.61085
5.98883
2.04134
1
1
1
1
1
1
1
1
1
1
1
1
1
1
1
1
6.35464
6.6941
6.6589
3.47373
0.974357
1
1
1
1
1
1
1
1
1
1
1
1
1
1
1
6.36704
6.68426
6.65417
4.76119
1.41624
1
1
1
1
1
1
1
1
1
1
1
1
1
1
1
6.40799
6.67554
6.66499
6.02634
2.48951
0.978729
1
1
1
1
1
1
1
1
1
1
1
1
1
1
6.49133
6.65493
6.63275
6.2521
4.14062
1.28378
1
1
1
1
1
1
1
1
1
1
1
1
1
1
6.55308
6.58775
6.55743
6.43895
5.85567
2.44491
0.972721
1.00005
1
1
1
1
1
1
1
1
1
1
1
1
6.59408
6.53312
6.46744
6.4211
6.26704
4.32669
1.68592
0.999997
1
1
1
1
1
1
1
1
1
1
1
1
6.59249
6.52966
6.476
6.45162
6.452
6.21201
3.54911
0.492833
1.00001
0.999955
0.999999
1
1
1
1
1
1
1
1
1
2.21566
3.4411
4.68439
5.36629
5.84029
6.05041
5.9736
4.4975
3.19528
2.27308
1.44071
1.04295
0.993131
0.99687
0.998728
0.999765
0.999997
1
1
1
0.301513
0.824994
1.87733
3.02056
3.93767
4.67389
5.39271
5.2693
4.87245
4.45837
3.84798
2.85397
1.80062
1.15831
0.99729
0.997415
0.998896
0.999759
0.999985
1
0.0197163
0.131384
0.478143
1.14508
1.91214
2.73559
3.61038
4.20394
4.39743
4.34632
4.29669
4.18726
3.85953
3.12086
2.11818
1.33164
1.032
0.99836
0.999415
0.999796
0.011747
0.0458643
0.0914671
0.308039
0.727831
1.25762
1.90693
2.58037
3.06852
3.40658
3.64426
3.84468
3.83002
3.73933
3.53698
3.0702
2.24172
1.43524
1.05881
1.00054
0.0154488
0.0278663
0.0486851
0.144346
0.290545
0.51226
0.874413
1.35438
1.79251
2.15452
2.46963
2.78531
3.03829
3.2972
3.39269
3.3341
3.18488
2.78693
2.0282
1.28773
0.0145378
0.0208311
0.0362202
0.0872464
0.163102
0.310452
0.493845
0.721077
0.995249
1.25802
1.51537
1.77427
2.04775
2.33445
2.61119
2.89118
2.98048
2.92153
2.75598
2.29691
0.0105565
0.0136572
0.0241494
0.0459146
0.091552
0.191763
0.306644
0.46319
0.639794
0.819627
1.00245
1.1905
1.38877
1.58857
1.82803
2.08247
2.37422
2.60497
2.60494
2.51388
0.0109158
0.012728
0.0185756
0.0275273
0.0448676
0.0939802
0.167278
0.288959
0.408926
0.531757
0.64218
0.755579
0.875894
1.01151
1.17287
1.36195
1.60575
1.87524
2.16311
2.24603
0.0130816
0.0141962
0.0195317
0.0247995
0.0321851
0.0530879
0.0856771
0.143973
0.210197
0.282035
0.346177
0.417337
0.504178
0.619617
0.751914
0.89195
1.03257
1.19291
1.40984
1.73995
0.0172961
0.0175199
0.021958
0.0255824
0.0319354
0.0525079
0.0788776
0.100937
0.141401
0.179683
0.227994
0.288369
0.36982
0.469411
0.57378
0.670282
0.761151
0.857543
0.986771
1.12368
0.0241692
0.0215579
0.0244953
0.0270601
0.0351776
0.0558198
0.0789509
0.101856
0.129203
0.15816
0.196197
0.243626
0.303641
0.370386
0.437472
0.500252
0.563649
0.632957
0.70419
0.863857
0.0326012
0.0252624
0.0262586
0.0287061
0.0388958
0.0538342
0.0720102
0.0928572
0.109972
0.128621
0.152912
0.187763
0.226793
0.263337
0.297705
0.334419
0.372963
0.419781
0.460313
0.583064
0.041915
0.030045
0.0272362
0.0298535
0.0371406
0.0455317
0.0558898
0.0718089
0.0781458
0.0867888
0.0962689
0.112092
0.136069
0.170361
0.205211
0.238826
0.270668
0.309173
0.342007
0.425498
0.0597667
0.0426786
0.0311549
0.0295625
0.0317002
0.0362496
0.0390107
0.0493084
0.051555
0.0587048
0.0700657
0.088343
0.114108
0.142749
0.172405
0.200806
0.224123
0.250787
0.275601
0.327704
0.0748148
0.0581047
0.043786
0.0329234
0.0321645
0.0344047
0.0350162
0.0398594
0.043898
0.0544773
0.070972
0.0920928
0.112543
0.131115
0.147694
0.163001
0.174463
0.186855
0.202014
0.237581
0.0809045
0.0639676
0.0527444
0.0421832
0.0377216
0.0378744
0.036498
0.0411226
0.0458929
0.0569292
0.0727323
0.0889794
0.100562
0.108168
0.112009
0.115534
0.121232
0.128385
0.141648
0.166362
0.0799692
0.0627454
0.0541726
0.0540267
0.0498945
0.0456965
0.0411476
0.0443658
0.0485553
0.0566768
0.0667789
0.0701835
0.0707577
0.0705291
0.0707304
0.0738229
0.081587
0.0901665
0.108145
0.137979
0.074168
0.0735287
0.073186
0.0769386
0.0782807
0.0740713
0.0653339
0.0588349
0.0546877
0.0507829
0.0506628
0.049222
0.0493549
0.0504984
0.053844
0.0606638
0.0727537
0.0865567
0.105067
0.126968
0.0759855
0.110348
0.12717
0.145747
0.157608
0.160827
0.158888
0.15769
0.149697
0.134829
0.133176
0.145848
0.165704
0.172209
0.175773
0.181122
0.190979
0.192337
0.204128
0.21048
0.105897
0.140798
0.149712
0.166349
0.181007
0.194763
0.200107
0.203773
0.215993
0.226114
0.239059
0.265502
0.298221
0.338523
0.38391
0.431401
0.482254
0.529792
0.566895
0.605168
0.717518
0.678664
0.649862
0.688118
0.819998
0.946688
0.994158
0.999824
0.999999
1
1
1
1
1
1
1
1
1
1
1
0.370852
0.527811
0.59146
0.671808
0.806584
0.942026
0.993906
0.999837
0.999999
1
1
1
1
1
1
1
1
1
1
1
0.199196
0.334176
0.473026
0.632893
0.817577
0.950771
0.995285
0.999888
0.999999
1
1
1
1
1
1
1
1
1
1
1
0.234854
0.370128
0.498297
0.65125
0.829027
0.958088
0.996628
0.999934
1
1
1
1
1
1
1
1
1
1
1
1
0.249985
0.407398
0.540658
0.689897
0.857131
0.969299
0.998019
0.99997
1
1
1
1
1
1
1
1
1
1
1
1
0.287373
0.455384
0.607159
0.749706
0.893912
0.980529
0.99902
0.999989
1
1
1
1
1
1
1
1
1
1
1
1
0.361194
0.514088
0.680597
0.817332
0.93087
0.989108
0.999551
0.999996
1
1
1
1
1
1
1
1
1
1
1
1
0.463329
0.597841
0.755058
0.87605
0.958231
0.993936
0.999752
0.999997
1
1
1
1
1
1
1
1
1
1
1
1
0.60614
0.714478
0.834946
0.921617
0.973713
0.995745
0.99977
0.999996
1
1
1
1
1
1
1
1
1
1
1
1
0.836538
0.901776
0.971319
0.988421
0.99252
0.99656
0.999418
0.999973
1
1
1
1
1
1
1
1
1
1
1
1
1.3896
1.19773
1.07638
1.01218
0.999238
0.999253
0.999774
0.999985
1
1
1
1
1
1
1
1
1
1
1
1
1.36956
1.18184
1.05135
1.00534
1.00007
0.999964
0.999983
0.999998
1
1
1
1
1
1
1
1
1
1
1
1
1.12285
1.04883
1.00804
1.0004
1
0.999999
1
1
1
1
1
1
1
1
1
1
1
1
1
1
1.00847
1.00194
1.00016
1
1
1
1
1
1
1
1
1
1
1
1
1
1
1
1
1
1.00016
1.00002
1
1
1
1
1
1
1
1
1
1
1
1
1
1
1
1
1
1
1
1
1
1
1
1
1
1
1
1
1
1
1
1
1
1
1
1
1
1
1
1
1
1
1
1
1
1
1
1
1
1
1
1
1
1
1
1
1
1
1
1
1
1
1
1
1
1
1
1
1
1
1
1
1
1
1
1
1
1
1
1
1
1
1
1
1
1
1
1
1
1
1
1
1
1
1
1
1
1
1
1
1
1
1
1
1
1
1
1
1
1
1
1
1
1
1
1
1
1
1
1
1
1
1
1
1
1
1
1
1
1
1
1
1
1
1
1
1
1
1
1
1
1
1
1
1
1
1
1
1
1
1
1
1
1
1
1
1
1
1
1
1
1
1
1
1
1
1
1
1
1
1
1
1
1
1
1
1
1
1
1
1
1
1
1
1
1
1
1
1
1
1
1
1
1
1
1
1
1
1
1
1
1
1
1
1
1
1
1
1
1
1
1
1
1
1
1
1
1
1.58792
1.47501
1.15819
1.01668
1.00053
1.00001
1
1
1
1
1
1
1
1
1
1.81445
1.37739
1.03795
1.00052
1
1
1
1
1
1
1
1
1
1
1
1.92512
1.191
1.00653
1.00003
1
1
1
1
1
1
1
1
1
1
1
1.62955
1.04674
1.00046
1
1
1
1
1
1
1
1
1
1
1
1
1.22414
1.00402
1
1
1
1
1
1
1
1
1
1
1
1
1
1.01775
1.00004
1
1
1
1
1
1
1
1
1
1
1
1
1
0.999982
0.999996
1
1
1
1
1
1
1
1
1
1
1
1
1
0.999989
1
1
1
1
1
1
1
1
1
1
1
1
1
1
1
1
1
1
1
1
1
1
1
1
1
1
1
1
1
1
1
1
1
1
1
1
1
1
1
1
1
1
1
1
1
1
1
1
1
1
1
1
1
1
1
1
1
1
1
1
1
1
1
1
1
1
1
1
1
1
1
1
1
1
1
1
1
1
1
1
1
1
1
1
1
1
1
1
1
1
1
1
1
1
1
1
1
1
1
1
1
1
1
1
1
1
1
1
1
1
1
1
1
1
1
1
1
1
1
1
1
1
1
1
1
1
1
1
1
1
1
1
1
1
1
1
1
1
1
1
1
1
1
1
1
1
1
1
1
1
1
1
1
1
1
1
1
1
1
1
1
1
1
1
1
1
1
1
1
1
1
1
1
1
1
1
1
1
1
1
1
1
1
1
1
1
1
1
1
1
1
1
1
1
1
1
1
1
1
1
1
1
1
1
1
1
1
1
1
1
1
1
1
1
1
1
1
1
1
1
1
1
1
1
1
1
1
1
1
1
1
1
1
1
1
1
1
1
1
1
1
1
1
1
1
1
1
1
1
1
1
1
1
1
1
1
1
1
1
1
1
1
1
1
1
1
1
1
1
1
1
1
1
1
1
1
1
1
1
1
1
1
1
1
1
1
1
1
1
1
1
1
1
1
1
1
1
1
1
1
1
1
1
1
1
1
1
1
1
1
1
1
1
1
1
1
1
1
1
1
1
1
1
1
1
1
1
1
1
1
1
1
1
1
1
1
1
1
1
1
1
1
1
1
1
1
1
1
1
1
1
1
1
1
1
1
1
1
1
1
1
1
1
1
1
1
1
1
1
1
1
1
1
1
1
1
1
1
1
1
1
1
1
1
1
1
1
1
1
1
1
1
1
1
1
1
1
1
1
1
1
1
1
1
1
1
1
1
1
1
1
1
1
1
1
1
1
1
1
1
1
1
1
1
1
1
1
1
1
1
1
1
1
1
1
1
1
1
1
1
1
1
1
1
1
1
1
1
1
1
1
1
1
1
1
1
1
1
1
1
1
1
1
1
1
1
1
1
1
1
1
1
1
1
1
1
1
1
1
1
1
1
1
1
1
1
1
1
1
1
1
1
1
1
1
1
1
1
1
1
1
1
1
1
1
1
1
1
1
1
1
1
1
1
1
1
1
1
1
1
1
1
1
1
1
1
1
1
1
1
1
1
1
1
1
1
1
1
1
1
1
1
1
1
1
1
1
1
1
1
1
1
1
1
1
1
1
1
1
1
1
1
1
1
1
1
1
1
1
1
1
1
1
1
1
1
1
1
1
1
1
1
1
1
1
1
1
1
1
1
1
1
1
1
1
1
1
1
1
1
1
1
1
1
1
1
1
1
1
1
1
1
1
1
1
1
1
1
1
1
1
1
1
1
1
1
1
1
1
1
1
1
1
1
1
1
1
1
1
1
1
1
1
1
1
1
1
1
1
1
1
1
1
1
1
1
1
1
1
1
1
1
1
1
1
1
1
1
1
1
1
1
1
1
1
1
1
1
1
1
1
1
1
1
1
1
1
1
1
1
1
1
1
1
1
1
1
1
1
1
1
1
1
1
1
1
1
1
1
1
1
1
1
1
1
1
1
1
1
1
1
1
1
1
1
1
1
1
1
1
1
1
1
1
1
1
1
1
1
1
1
1
1
1
1
1
1
1
1
1
1
1
1
1
1
1
1
1
1
1
1
1
1
1
1
1
1
1
1
1
1
1
1
1
1
1
1
1
1
1
1
1
1
1
1
1
1
1
1
1
1
1
1
1
1
1
1
1
1
1
1
1
1
1
1
1
1
1
1
1
1
1
1
1
1
1
1
1
1
1
1
1
1
1
1
1
1
1
1
1
1
1
1
1
1
1
1
1
1
1
1
1
1
1
1
1
1
1
1
1
1
1
1
1
1
1
1
1
1
1
1
1
1
1
1
1
1
1
1
1
1
1
1
1
0.999989
1
1
1
1
1
1
1
1
1
1
1
1
1
1
0.999982
0.999996
1
1
1
1
1
1
1
1
1
1
1
1
1
1.01775
1.00004
1
1
1
1
1
1
1
1
1
1
1
1
1
1.22414
1.00402
1
1
1
1
1
1
1
1
1
1
1
1
1
1.62955
1.04674
1.00046
1
1
1
1
1
1
1
1
1
1
1
1
1.92512
1.191
1.00653
1.00003
1
1
1
1
1
1
1
1
1
1
1
1.81445
1.3774
1.03795
1.00052
1
1
1
1
1
1
1
1
1
1
1
1.58792
1.47501
1.15819
1.01668
1.00053
1.00001
1
1
1
1
1
1
1
1
1
1.38961
1.36956
1.12285
1.00847
1.00016
1
1
1
1
1
1
1
1
1
1
1.19774
1.18184
1.04883
1.00194
1.00002
1
1
1
1
1
1
1
1
1
1
1.07638
1.05135
1.00804
1.00016
1
1
1
1
1
1
1
1
1
1
1
1.01218
1.00534
1.0004
1
1
1
1
1
1
1
1
1
1
1
1
0.999237
1.00007
1
1
1
1
1
1
1
1
1
1
1
1
1
0.999253
0.999964
0.999999
1
1
1
1
1
1
1
1
1
1
1
1
0.999774
0.999983
1
1
1
1
1
1
1
1
1
1
1
1
1
0.999985
0.999998
1
1
1
1
1
1
1
1
1
1
1
1
1
1
1
1
1
1
1
1
1
1
1
1
1
1
1
1
1
1
1
1
1
1
1
1
1
1
1
1
1
1
1
1
1
1
1
1
1
1
1
1
1
1
1
1
1
1
1
1
1
1
1
1
1
1
1
1
1
1
1
1
1
1
1
1
1
1
1
1
1
1
1
1
1
1
1
1
1
1
1
1
1
1
1
1
1
1
1
1
1
1
1
1
1
1
1
1
1
1
1
1
1
1
1
1
1
1
1
1
1
1
1
1
1
1
1
1
1
1
1
1
1
1
1
1
1
1
1
1
1
1
1
1
1
1
1
1
1
1
1
1
1
1
1
1
1
1
1
1
1
1
1
1
1
1
1
1
1
1
1
1
1
1
1
1
1
1
1
1
1
1
1
1
1
1
1
1
1
1
1
1
1
0.836515
0.901756
0.971304
0.988404
0.992513
0.996558
0.999418
0.999973
1
1
1
1
1
1
1
1
1
1
1
1
0.606164
0.714472
0.834936
0.921627
0.973724
0.995747
0.99977
0.999996
1
1
1
1
1
1
1
1
1
1
1
1
0.463313
0.597917
0.755149
0.876159
0.958303
0.99395
0.999753
0.999997
1
1
1
1
1
1
1
1
1
1
1
1
0.361179
0.513739
0.680477
0.817481
0.931041
0.98916
0.999555
0.999996
1
1
1
1
1
1
1
1
1
1
1
1
0.287281
0.456026
0.607963
0.750127
0.894047
0.980586
0.999028
0.999989
1
1
1
1
1
1
1
1
1
1
1
1
0.250106
0.406882
0.539255
0.688419
0.856185
0.969106
0.998016
0.99997
1
1
1
1
1
1
1
1
1
1
1
1
0.234969
0.369924
0.498276
0.651253
0.828339
0.957702
0.996581
0.999932
1
1
1
1
1
1
1
1
1
1
1
1
0.199123
0.334183
0.4732
0.630442
0.815008
0.949522
0.995101
0.999881
0.999999
1
1
1
1
1
1
1
1
1
1
1
0.370611
0.528007
0.592593
0.67569
0.809414
0.942409
0.993955
0.999833
0.999999
1
1
1
1
1
1
1
1
1
1
1
0.717363
0.678502
0.650089
0.689725
0.822474
0.946374
0.993381
0.999773
0.999998
1
1
1
1
1
1
1
1
1
1
1
)
;

boundaryField
{
    inlet
    {
        type            fixedValue;
        value           uniform 1;
    }
    outlet
    {
        type            zeroGradient;
    }
    airfoil
    {
        type            zeroGradient;
    }
    top
    {
        type            symmetryPlane;
    }
    bottom
    {
        type            symmetryPlane;
    }
    defaultFaces
    {
        type            empty;
    }
}


// ************************************************************************* //
