/*--------------------------------*- C++ -*----------------------------------*\
  =========                 |
  \\      /  F ield         | OpenFOAM: The Open Source CFD Toolbox
   \\    /   O peration     | Website:  https://openfoam.org
    \\  /    A nd           | Version:  7
     \\/     M anipulation  |
\*---------------------------------------------------------------------------*/
FoamFile
{
    version     2.0;
    format      ascii;
    class       volScalarField;
    location    "3.7";
    object      rho;
}
// * * * * * * * * * * * * * * * * * * * * * * * * * * * * * * * * * * * * * //

dimensions      [1 -3 0 0 0 0 0];

internalField   nonuniform List<scalar> 
3700
(
0.179981
0.311048
0.396065
0.45009
0.522884
0.570637
0.57492
0.579275
0.584443
0.603276
0.615189
0.614583
0.600734
0.606392
0.643614
0.665962
0.684504
0.711166
0.736623
0.738605
0.105397
0.130862
0.169405
0.17903
0.191941
0.198377
0.188446
0.18844
0.174482
0.187405
0.213169
0.236052
0.242851
0.22975
0.226834
0.225465
0.226717
0.235936
0.271326
0.287076
0.0913447
0.0973558
0.107748
0.1053
0.093024
0.0724694
0.067131
0.0739368
0.0833992
0.0955796
0.11309
0.126873
0.138126
0.144083
0.144079
0.144132
0.145207
0.148159
0.157893
0.180218
0.097006
0.0978847
0.103564
0.093465
0.0740091
0.0647123
0.0663692
0.0727647
0.0817773
0.09602
0.115849
0.133745
0.159953
0.186978
0.201778
0.213945
0.215132
0.212607
0.210471
0.226877
0.100489
0.0943229
0.082006
0.0739621
0.0706709
0.0752868
0.0809471
0.0884127
0.0974042
0.110621
0.11852
0.13245
0.160052
0.197248
0.22791
0.257181
0.277759
0.290246
0.290033
0.295845
0.0889049
0.0787708
0.0697987
0.0748401
0.0845935
0.09379
0.106877
0.12578
0.143146
0.169844
0.159434
0.163916
0.169621
0.19622
0.237753
0.281528
0.324464
0.364644
0.399039
0.434666
0.0777051
0.0744122
0.069839
0.0734684
0.088982
0.103421
0.118227
0.147853
0.186666
0.224154
0.235578
0.24939
0.245246
0.25518
0.26826
0.302858
0.357265
0.429261
0.491507
0.588098
0.0757359
0.0723787
0.068666
0.0695393
0.0863206
0.102795
0.116519
0.150445
0.204605
0.256145
0.302782
0.333207
0.365758
0.396314
0.413969
0.439484
0.466919
0.526076
0.605377
0.76519
0.0751721
0.0678304
0.0634121
0.0677245
0.0816376
0.0990206
0.116639
0.144565
0.200942
0.268488
0.340148
0.39477
0.469573
0.528175
0.585068
0.638853
0.688039
0.742288
0.808836
1.01091
0.0797045
0.0630769
0.0574231
0.0733201
0.0957893
0.116796
0.142258
0.17122
0.216509
0.274373
0.361332
0.44672
0.557266
0.646798
0.743937
0.84712
0.946191
1.0343
1.13726
1.32405
0.0817104
0.058679
0.0585054
0.0975424
0.134233
0.166488
0.212906
0.275248
0.348921
0.42932
0.508905
0.602153
0.707852
0.813377
0.927916
1.07775
1.24704
1.39699
1.63096
1.57716
0.0806486
0.056961
0.0690769
0.109477
0.15164
0.202498
0.287268
0.398677
0.526308
0.674912
0.801285
0.930631
1.05528
1.17515
1.28609
1.43755
1.64713
1.85454
2.17781
2.12523
0.0767738
0.0543925
0.0696084
0.0906273
0.141404
0.20844
0.324376
0.474286
0.663739
0.897503
1.09403
1.29079
1.48127
1.6579
1.8497
2.06818
2.29623
2.53292
2.90402
2.89891
0.0562666
0.0397514
0.0571934
0.075305
0.122903
0.198098
0.367602
0.586842
0.885969
1.21554
1.51152
1.781
2.04624
2.29633
2.61096
2.9353
3.25349
3.57947
3.88859
4.1727
0.0340891
0.0299275
0.0438585
0.074498
0.154584
0.415027
0.784153
1.17656
1.64211
2.05923
2.39895
2.69936
3.00256
3.32112
3.7402
4.13475
4.51476
4.85239
5.06387
5.24862
0.0180094
0.0307348
0.039784
0.157822
0.512291
1.07065
1.60671
2.18012
2.80134
3.30927
3.67368
4.02949
4.39512
4.79821
5.24837
5.53691
5.69194
5.73145
5.60031
5.42428
0.00998241
0.0412728
0.159469
0.595914
1.33165
2.07292
2.78526
3.56851
4.40279
4.92904
5.22785
5.54184
5.82723
6.06494
6.21187
6.11132
5.81345
5.07809
3.89088
2.63718
0.0492699
0.237515
0.78896
1.69904
2.89628
3.97376
4.91383
5.86223
6.64277
6.7411
6.59992
6.58192
6.52235
6.29266
5.59174
4.26731
2.91687
1.86331
1.42579
1.39014
0.425531
1.18888
2.69791
4.41075
5.81217
6.71057
7.53294
8.20043
8.00963
7.37818
6.76697
6.00914
4.73256
3.25104
1.99826
1.44233
1.38529
1.39297
1.39628
1.39923
3.21676
5.04684
6.75531
7.87924
8.58589
8.93533
9.14899
8.66956
6.31777
4.45559
3.29227
2.18235
1.51458
1.38248
1.39019
1.39492
1.39886
1.39997
1.40003
1.40002
9.62242
9.52924
9.42824
9.51789
9.73228
9.42541
8.31961
3.09436
0.947252
1.40001
1.40001
1.40001
1.40001
1.40001
1.40001
1.40001
1.40001
1.40001
1.40001
1.40001
9.60783
9.4912
9.33566
9.26632
9.54257
7.93333
3.71258
1.43246
1.40001
1.40001
1.40001
1.40001
1.40001
1.40001
1.40001
1.40001
1.40001
1.40001
1.40001
1.40001
9.45463
9.51439
9.44234
9.19579
8.83662
4.83206
1.4908
1.398
1.40001
1.40001
1.40001
1.40001
1.40001
1.40001
1.40001
1.40001
1.40001
1.40001
1.40001
1.40001
9.2553
9.50024
9.49222
9.24484
6.54127
1.96266
1.39087
1.40018
1.4
1.40001
1.40001
1.40001
1.40001
1.40001
1.40001
1.40001
1.40001
1.40001
1.40001
1.40001
9.02363
9.38883
9.45972
8.59407
3.64752
1.36732
1.4005
1.4
1.40001
1.40001
1.40001
1.40001
1.40001
1.40001
1.40001
1.40001
1.40001
1.40001
1.40001
1.40001
8.90965
9.29098
9.29508
6.82065
1.99969
1.40001
1.40001
1.40001
1.40001
1.40001
1.40001
1.40001
1.40001
1.40001
1.40001
1.40001
1.40001
1.40001
1.40001
1.40001
8.86416
9.29513
9.16816
5.00135
1.41756
1.40001
1.40001
1.40001
1.40001
1.40001
1.40001
1.40001
1.40001
1.40001
1.40001
1.40001
1.40001
1.40001
1.40001
1.40001
9.10231
9.37402
8.55057
2.80606
1.39228
1.40001
1.40001
1.40001
1.40001
1.40001
1.40001
1.40001
1.40001
1.40001
1.40001
1.40001
1.40001
1.40001
1.40001
1.40001
9.66768
9.17475
6.6982
1.70141
1.40001
1.40001
1.40001
1.40001
1.40001
1.40001
1.40001
1.40001
1.40001
1.40001
1.40001
1.40001
1.40001
1.40001
1.40001
1.40001
10.0926
8.85272
4.73174
1.38287
1.40001
1.40001
1.40001
1.40001
1.40001
1.40001
1.40001
1.40001
1.40001
1.40001
1.40001
1.40001
1.40001
1.40001
1.40001
1.40001
10.3468
8.32881
3.11674
1.40001
1.40001
1.40001
1.40001
1.40001
1.40001
1.40001
1.40001
1.40001
1.40001
1.40001
1.40001
1.40001
1.40001
1.40001
1.40001
1.40001
10.4231
7.43219
2.23375
1.40001
1.40001
1.40001
1.40001
1.40001
1.40001
1.40001
1.40001
1.40001
1.40001
1.40001
1.40001
1.40001
1.40001
1.40001
1.40001
1.40001
10.4813
6.60084
1.62881
1.40001
1.40001
1.40001
1.40001
1.40001
1.40001
1.40001
1.40001
1.40001
1.40001
1.40001
1.40001
1.40001
1.40001
1.40001
1.40001
1.40001
10.2128
5.53792
1.40001
1.40001
1.40001
1.40001
1.40001
1.40001
1.40001
1.40001
1.40001
1.40001
1.40001
1.40001
1.40001
1.40001
1.40001
1.40001
1.40001
1.40001
9.84147
4.5514
1.40001
1.40001
1.40001
1.40001
1.40001
1.40001
1.40001
1.40001
1.40001
1.40001
1.40001
1.40001
1.40001
1.40001
1.40001
1.40001
1.40001
1.40001
9.65604
3.56648
1.40001
1.40001
1.40001
1.40001
1.40001
1.40001
1.40001
1.40001
1.40001
1.40001
1.40001
1.40001
1.40001
1.40001
1.40001
1.40001
1.40001
1.40001
9.3289
2.66861
1.40001
1.40001
1.40001
1.40001
1.40001
1.40001
1.40001
1.40001
1.40001
1.40001
1.40001
1.40001
1.40001
1.40001
1.40001
1.40001
1.40001
1.40001
8.76362
1.9087
1.40001
1.40001
1.40001
1.40001
1.40001
1.40001
1.40001
1.40001
1.40001
1.40001
1.40001
1.40001
1.40001
1.40001
1.40001
1.40001
1.40001
1.40001
7.80202
1.40803
1.40001
1.40001
1.40001
1.40001
1.40001
1.40001
1.40001
1.40001
1.40001
1.40001
1.40001
1.40001
1.40001
1.40001
1.40001
1.40001
1.40001
1.40001
6.40912
1.40008
1.40001
1.40001
1.40001
1.40001
1.40001
1.40001
1.40001
1.40001
1.40001
1.40001
1.40001
1.40001
1.40001
1.40001
1.40001
1.40001
1.40001
1.40001
6.44694
1.40008
1.40001
1.40001
1.40001
1.40001
1.40001
1.40001
1.40001
1.40001
1.40001
1.40001
1.40001
1.40001
1.40001
1.40001
1.40001
1.40001
1.40001
1.40001
7.79385
1.40732
1.40001
1.40001
1.40001
1.40001
1.40001
1.40001
1.40001
1.40001
1.40001
1.40001
1.40001
1.40001
1.40001
1.40001
1.40001
1.40001
1.40001
1.40001
8.76631
1.88924
1.40001
1.40001
1.40001
1.40001
1.40001
1.40001
1.40001
1.40001
1.40001
1.40001
1.40001
1.40001
1.40001
1.40001
1.40001
1.40001
1.40001
1.40001
9.32504
2.66086
1.40001
1.40001
1.40001
1.40001
1.40001
1.40001
1.40001
1.40001
1.40001
1.40001
1.40001
1.40001
1.40001
1.40001
1.40001
1.40001
1.40001
1.40001
9.65902
3.57364
1.40001
1.40001
1.40001
1.40001
1.40001
1.40001
1.40001
1.40001
1.40001
1.40001
1.40001
1.40001
1.40001
1.40001
1.40001
1.40001
1.40001
1.40001
9.82904
4.56949
1.40001
1.40001
1.40001
1.40001
1.40001
1.40001
1.40001
1.40001
1.40001
1.40001
1.40001
1.40001
1.40001
1.40001
1.40001
1.40001
1.40001
1.40001
10.2244
5.52708
1.40001
1.40001
1.40001
1.40001
1.40001
1.40001
1.40001
1.40001
1.40001
1.40001
1.40001
1.40001
1.40001
1.40001
1.40001
1.40001
1.40001
1.40001
10.4918
6.60627
1.62817
1.40001
1.40001
1.40001
1.40001
1.40001
1.40001
1.40001
1.40001
1.40001
1.40001
1.40001
1.40001
1.40001
1.40001
1.40001
1.40001
1.40001
10.4263
7.44159
2.24633
1.40001
1.40001
1.40001
1.40001
1.40001
1.40001
1.40001
1.40001
1.40001
1.40001
1.40001
1.40001
1.40001
1.40001
1.40001
1.40001
1.40001
10.3343
8.32461
3.13592
1.40001
1.40001
1.40001
1.40001
1.40001
1.40001
1.40001
1.40001
1.40001
1.40001
1.40001
1.40001
1.40001
1.40001
1.40001
1.40001
1.40001
10.0739
8.85471
4.73187
1.38289
1.40001
1.40001
1.40001
1.40001
1.40001
1.40001
1.40001
1.40001
1.40001
1.40001
1.40001
1.40001
1.40001
1.40001
1.40001
1.40001
9.65034
9.16378
6.69429
1.70289
1.40001
1.40001
1.40001
1.40001
1.40001
1.40001
1.40001
1.40001
1.40001
1.40001
1.40001
1.40001
1.40001
1.40001
1.40001
1.40001
9.10585
9.3732
8.53866
2.79955
1.39254
1.40001
1.40001
1.40001
1.40001
1.40001
1.40001
1.40001
1.40001
1.40001
1.40001
1.40001
1.40001
1.40001
1.40001
1.40001
8.87159
9.30985
9.18981
5.00013
1.41315
1.40001
1.40001
1.40001
1.40001
1.40001
1.40001
1.40001
1.40001
1.40001
1.40001
1.40001
1.40001
1.40001
1.40001
1.40001
8.91774
9.2949
9.29876
6.82801
2.00909
1.40001
1.40001
1.40001
1.40001
1.40001
1.40001
1.40001
1.40001
1.40001
1.40001
1.40001
1.40001
1.40001
1.40001
1.40001
9.02686
9.3846
9.45122
8.56786
3.64344
1.36746
1.4005
1.4
1.40001
1.40001
1.40001
1.40001
1.40001
1.40001
1.40001
1.40001
1.40001
1.40001
1.40001
1.40001
9.25309
9.49747
9.49079
9.25571
6.53546
1.95549
1.39095
1.40018
1.4
1.40001
1.40001
1.40001
1.40001
1.40001
1.40001
1.40001
1.40001
1.40001
1.40001
1.40001
9.45574
9.51396
9.45075
9.21747
8.84891
4.83342
1.49287
1.39792
1.40001
1.40001
1.40001
1.40001
1.40001
1.40001
1.40001
1.40001
1.40001
1.40001
1.40001
1.40001
9.61133
9.48963
9.33761
9.27411
9.51667
7.92536
3.7208
1.43346
1.40001
1.40001
1.40001
1.40001
1.40001
1.40001
1.40001
1.40001
1.40001
1.40001
1.40001
1.40001
9.61206
9.51881
9.42117
9.5099
9.72662
9.42924
8.31631
3.09154
0.948466
1.40001
1.40001
1.40001
1.40001
1.40001
1.40001
1.40001
1.40001
1.40001
1.40001
1.40001
3.21142
5.0329
6.74064
7.86712
8.57952
8.94183
9.15497
8.67354
6.31903
4.45586
3.29157
2.1806
1.5136
1.38248
1.39013
1.39489
1.39886
1.39997
1.40003
1.40002
0.432305
1.21151
2.70678
4.40147
5.80189
6.70833
7.53585
8.20609
8.01608
7.38405
6.77117
6.01111
4.73161
3.24944
1.99758
1.44226
1.38529
1.39296
1.39628
1.39922
0.0381375
0.217617
0.786821
1.69661
2.88577
3.97004
4.91639
5.86644
6.652
6.74735
6.60781
6.58173
6.52279
6.29267
5.5909
4.26621
2.91608
1.86316
1.42583
1.39012
0.0114736
0.0324949
0.175406
0.616019
1.34613
2.06887
2.77743
3.56317
4.40149
4.92767
5.22712
5.54177
5.82757
6.06398
6.20854
6.10791
5.81039
5.07602
3.89053
2.63828
0.0210183
0.0288682
0.0328518
0.163416
0.525678
1.08102
1.61183
2.18039
2.79725
3.30563
3.67023
4.02769
4.39487
4.798
5.2468
5.53477
5.69025
5.73127
5.60058
5.42523
0.0356465
0.0265784
0.0315019
0.0654794
0.152996
0.438366
0.802136
1.19094
1.65395
2.06697
2.40405
2.70359
3.00655
3.32425
3.74122
4.13378
4.51299
4.85047
5.06285
5.24877
0.0543885
0.0344142
0.0400097
0.068941
0.119004
0.195902
0.366805
0.585527
0.884997
1.21115
1.50696
1.77726
2.0439
2.29418
2.60957
2.93348
3.25104
3.57736
3.88653
4.17416
0.0793269
0.0512665
0.061636
0.0846267
0.136235
0.201506
0.32123
0.466316
0.653387
0.889692
1.08856
1.28834
1.48142
1.65877
1.85149
2.06988
2.29609
2.53236
2.90457
2.90029
0.0872424
0.0573426
0.0667753
0.106202
0.14993
0.198511
0.286049
0.396802
0.525385
0.676796
0.804341
0.934969
1.06085
1.18094
1.29059
1.4391
1.64579
1.85261
2.17722
2.12589
0.0883399
0.05698
0.056608
0.0972239
0.135193
0.165809
0.215067
0.280866
0.35657
0.43847
0.518313
0.609057
0.710588
0.813449
0.924912
1.07292
1.244
1.39676
1.63268
1.57761
0.0877629
0.0588349
0.0529309
0.0726284
0.097287
0.116599
0.143446
0.175028
0.220668
0.275085
0.358081
0.442545
0.551967
0.64182
0.739849
0.844855
0.94589
1.03619
1.14018
1.32575
0.082166
0.0646923
0.0575043
0.0653998
0.0820818
0.0991079
0.116178
0.143242
0.198255
0.26473
0.336102
0.39094
0.46674
0.526409
0.585204
0.640887
0.692018
0.745216
0.810707
1.01182
0.0817948
0.0710079
0.0650233
0.0682142
0.0870233
0.103015
0.114845
0.148377
0.202254
0.253689
0.301364
0.332712
0.367613
0.39971
0.418778
0.444665
0.471401
0.526458
0.602743
0.76305
0.0827629
0.0746072
0.0688297
0.0740447
0.0903595
0.104024
0.116581
0.146063
0.185971
0.223503
0.23812
0.253114
0.249273
0.259538
0.270502
0.301176
0.353082
0.425451
0.488174
0.58696
0.0913895
0.0792213
0.0686934
0.0752426
0.0855409
0.0942417
0.106747
0.125902
0.144861
0.172612
0.162303
0.166938
0.17064
0.193636
0.233656
0.27788
0.321506
0.362798
0.398016
0.436423
0.103471
0.0938593
0.0780896
0.0729674
0.0706228
0.0758648
0.082267
0.0899398
0.0995237
0.113283
0.119346
0.131385
0.156858
0.193862
0.225675
0.255527
0.277161
0.291336
0.292438
0.297999
0.100113
0.0993486
0.102838
0.0910611
0.0711148
0.0643762
0.0670383
0.0728926
0.081639
0.09516
0.114911
0.131884
0.157552
0.185381
0.201907
0.214715
0.216884
0.215166
0.212745
0.227038
0.0929384
0.097205
0.107167
0.105831
0.0910035
0.0714185
0.0682378
0.0739178
0.0830443
0.0948482
0.111733
0.125778
0.138531
0.145881
0.146411
0.146208
0.147119
0.149438
0.156544
0.179001
0.101682
0.118845
0.142836
0.179653
0.179597
0.153032
0.134482
0.150095
0.173366
0.180856
0.193981
0.227067
0.26927
0.308002
0.319132
0.307835
0.302871
0.290211
0.280642
0.278335
0.172609
0.301163
0.357349
0.444198
0.518164
0.536342
0.537501
0.559107
0.591882
0.601718
0.61591
0.633901
0.632558
0.654752
0.682394
0.688455
0.706122
0.72092
0.715591
0.726863
0.799946
0.878022
0.954119
1.12018
1.1664
1.20844
1.18972
1.17156
1.18904
1.25204
1.31801
1.32758
1.3114
1.28521
1.28531
1.31481
1.34691
1.3313
1.27634
1.22059
0.435356
0.587639
0.740922
0.935516
1.08443
1.17846
1.18813
1.18081
1.19975
1.25065
1.30543
1.33019
1.32428
1.29763
1.28775
1.30304
1.32289
1.31465
1.27951
1.23007
0.195657
0.222318
0.320865
0.45478
0.719346
0.97779
1.0833
1.18544
1.22659
1.23568
1.26791
1.30066
1.31009
1.31675
1.31417
1.30443
1.29471
1.28663
1.26418
1.23227
0.264284
0.305416
0.325355
0.327805
0.350596
0.462653
0.756945
1.04894
1.1492
1.20019
1.24496
1.27485
1.30052
1.32954
1.33623
1.31671
1.29439
1.27803
1.26203
1.23791
0.321655
0.378609
0.374813
0.377635
0.391219
0.405498
0.446192
0.613908
0.90944
1.11431
1.17494
1.23409
1.29388
1.34461
1.3495
1.33043
1.29574
1.27322
1.26249
1.24602
0.425903
0.45842
0.469981
0.449134
0.438246
0.446206
0.478799
0.484126
0.541963
0.727316
0.972406
1.13036
1.24715
1.33178
1.34876
1.33856
1.30522
1.27825
1.26633
1.25008
0.558406
0.575632
0.555069
0.499901
0.495111
0.503046
0.524218
0.549123
0.548574
0.539443
0.627818
0.886794
1.11583
1.28941
1.34567
1.33539
1.30932
1.27006
1.26427
1.24924
0.732506
0.713086
0.672791
0.589138
0.543783
0.54701
0.574345
0.589202
0.58603
0.576618
0.552534
0.605798
0.860247
1.13361
1.29956
1.32242
1.29602
1.26506
1.26565
1.2506
0.942157
0.873517
0.798128
0.703069
0.635165
0.627484
0.627238
0.631602
0.635492
0.620073
0.595084
0.570469
0.611273
0.85812
1.14698
1.29608
1.25708
1.25708
1.26925
1.25035
1.19562
1.06742
0.971529
0.847691
0.728676
0.690196
0.67193
0.668246
0.675294
0.663549
0.640282
0.608542
0.598056
0.635269
0.85829
1.17319
1.21792
1.26825
1.28088
1.25366
1.76211
1.26611
1.1382
1.06102
0.951015
0.819279
0.742623
0.737503
0.745958
0.739947
0.717346
0.684168
0.652397
0.646251
0.670131
0.80698
1.05685
1.21399
1.24465
1.22947
2.86621
2.05436
1.51409
1.3593
1.28109
1.14685
0.954535
0.862048
0.836206
0.817771
0.79363
0.76819
0.738942
0.711383
0.683553
0.689365
0.744969
0.882111
1.03164
1.15098
3.48106
3.04295
2.3869
1.82697
1.52675
1.36863
1.20193
1.0024
0.933595
0.940217
0.935493
0.90255
0.852715
0.812086
0.770136
0.734397
0.746048
0.74959
0.772977
0.918143
3.2954
3.27083
3.12106
2.69401
2.14018
1.74134
1.55715
1.36775
1.18146
1.12621
1.07823
1.00681
0.929852
0.871967
0.820407
0.809903
0.802529
0.789142
0.768624
0.759083
2.347
2.99929
3.09571
3.05375
2.86752
2.45722
2.06377
1.77855
1.49975
1.31921
1.19638
1.09601
1.0586
1.00701
0.945889
0.932659
0.910626
0.873402
0.827345
0.765601
1.55213
2.01167
2.57664
2.94895
2.94712
2.8954
2.68916
2.35108
2.00774
1.72408
1.50792
1.33852
1.28497
1.21439
1.11063
1.03314
0.966229
0.912831
0.885884
0.840139
1.40635
1.46177
1.68538
2.16585
2.60328
2.81951
2.80998
2.74686
2.5711
2.26067
1.95665
1.69199
1.50668
1.36158
1.24406
1.16046
1.07575
1.01352
1.01037
0.965763
1.40013
1.40154
1.41478
1.50855
1.77713
2.19627
2.54908
2.70401
2.6956
2.63382
2.46668
2.21634
1.92587
1.69045
1.53249
1.41172
1.31872
1.22677
1.15471
1.05232
1.40001
1.40002
1.40021
1.40344
1.4264
1.54178
1.80381
2.17806
2.47168
2.5936
2.58512
2.53947
2.39217
2.17156
1.9381
1.69776
1.54239
1.4088
1.28159
1.13515
1.40001
1.40001
1.40001
1.40004
1.40046
1.40555
1.43422
1.54964
1.80151
2.12763
2.38069
2.50024
2.49267
2.45276
2.3439
2.15106
1.92985
1.72883
1.56917
1.36165
1.40001
1.40001
1.40001
1.40001
1.40001
1.40007
1.40069
1.40646
1.43715
1.54892
1.76802
2.06192
2.29046
2.40996
2.40609
2.38158
2.29601
2.13187
1.94909
1.64946
1.40001
1.40001
1.40001
1.40001
1.40001
1.40001
1.40001
1.40009
1.40081
1.40685
1.43518
1.5309
1.72571
1.99078
2.19894
2.32954
2.32768
2.30739
2.24817
2.01682
1.40001
1.40001
1.40001
1.40001
1.40001
1.40001
1.40001
1.40001
1.40001
1.4001
1.4008
1.40596
1.43019
1.51282
1.67656
1.91347
2.11299
2.24333
2.24102
2.1843
1.40001
1.40001
1.40001
1.40001
1.40001
1.40001
1.40001
1.40001
1.40001
1.40001
1.40001
1.40008
1.4007
1.40487
1.42459
1.4888
1.62802
1.83925
2.01825
2.12695
1.40001
1.40001
1.40001
1.40001
1.40001
1.40001
1.40001
1.40001
1.40001
1.40001
1.40001
1.40001
1.40001
1.40007
1.40057
1.40357
1.4195
1.47221
1.59189
1.89513
2.25702
3.43333
3.59685
2.90869
1.83184
1.45147
1.40262
1.40007
1.40001
1.40001
1.40001
1.40001
1.40001
1.40001
1.40001
3.26265
3.92164
3.5233
2.15392
1.46737
1.40114
1.40001
1.4
1.40001
1.40001
1.40001
1.40001
1.40001
1.40001
1.40001
4.07743
3.99384
2.76377
1.61149
1.40717
1.40007
1.40001
1.40001
1.40001
1.40001
1.40001
1.40001
1.40001
1.40001
1.40001
4.52079
3.56002
1.90683
1.42702
1.40027
1.40001
1.40001
1.40001
1.40001
1.40001
1.40001
1.40001
1.40001
1.40001
1.40001
4.6181
2.35297
1.46612
1.4007
1.40001
1.40001
1.40001
1.40001
1.40001
1.40001
1.40001
1.40001
1.40001
1.40001
1.40001
2.8791
1.50197
1.40069
1.4
1.4
1.40001
1.40001
1.40001
1.40001
1.40001
1.40001
1.40001
1.40001
1.40001
1.40001
1.54107
1.40075
1.4
1.4
1.40001
1.40001
1.40001
1.40001
1.40001
1.40001
1.40001
1.40001
1.40001
1.40001
1.40001
1.39742
1.39982
1.4
1.40001
1.40001
1.40001
1.40001
1.40001
1.40001
1.40001
1.40001
1.40001
1.40001
1.40001
1.40001
1.39996
1.40001
1.40001
1.40001
1.40001
1.40001
1.40001
1.40001
1.40001
1.40001
1.40001
1.40001
1.40001
1.40001
1.40001
1.40001
1.40001
1.40001
1.40001
1.40001
1.40001
1.40001
1.40001
1.40001
1.40001
1.40001
1.40001
1.40001
1.40001
1.40001
1.40001
1.40001
1.40001
1.40001
1.40001
1.40001
1.40001
1.40001
1.40001
1.40001
1.40001
1.40001
1.40001
1.40001
1.40001
1.40001
1.40001
1.40001
1.40001
1.40001
1.40001
1.40001
1.40001
1.40001
1.40001
1.40001
1.40001
1.40001
1.40001
1.40001
1.40001
1.40001
1.40001
1.40001
1.40001
1.40001
1.40001
1.40001
1.40001
1.40001
1.40001
1.40001
1.40001
1.40001
1.40001
1.40001
1.40001
1.40001
1.40001
1.40001
1.40001
1.40001
1.40001
1.40001
1.40001
1.40001
1.40001
1.40001
1.40001
1.40001
1.40001
1.40001
1.40001
1.40001
1.40001
1.40001
1.40001
1.40001
1.40001
1.40001
1.40001
1.40001
1.40001
1.40001
1.40001
1.40001
1.40001
1.40001
1.40001
1.40001
1.40001
1.40001
1.40001
1.40001
1.40001
1.40001
1.40001
1.40001
1.40001
1.40001
1.40001
1.40001
1.40001
1.40001
1.40001
1.40001
1.40001
1.40001
1.40001
1.40001
1.40001
1.40001
1.40001
1.40001
1.40001
1.40001
1.40001
1.40001
1.40001
1.40001
1.40001
1.40001
1.40001
1.40001
1.40001
1.40001
1.40001
1.40001
1.40001
1.40001
1.40001
1.40001
1.40001
1.40001
1.40001
1.40001
1.40001
1.40001
1.40001
1.40001
1.40001
1.40001
1.40001
1.40001
1.40001
1.40001
1.40001
1.40001
1.40001
1.40001
1.40001
1.40001
1.40001
1.40001
1.40001
1.40001
1.40001
1.40001
1.40001
1.40001
1.40001
1.40001
1.40001
1.40001
1.40001
1.40001
1.40001
1.40001
1.40001
1.40001
1.40001
1.40001
1.40001
1.40001
1.40001
1.40001
1.40001
1.40001
1.40001
1.40001
1.40001
1.40001
1.40001
1.40001
1.40001
1.40001
1.40001
1.40001
1.40001
1.40001
1.40001
1.40001
1.40001
1.40001
1.40001
1.40001
1.40001
1.40001
1.40001
1.40001
1.40001
1.40001
1.40001
1.40001
1.40001
1.40001
1.40001
1.40001
1.40001
1.40001
1.40001
1.40001
1.40001
1.40001
1.40001
1.40001
1.40001
1.40001
1.40001
1.40001
1.40001
1.40001
1.40001
1.40001
1.40001
1.40001
1.40001
1.40001
1.40001
1.40001
1.40001
1.40001
1.40001
1.40001
1.40001
1.40001
1.40001
1.40001
1.40001
1.40001
1.40001
1.40001
1.40001
1.40001
1.40001
1.40001
1.40001
1.40001
1.40001
1.40001
1.40001
1.40001
1.40001
1.40001
1.40001
1.40001
1.40001
1.40001
1.40001
1.40001
1.40001
1.40001
1.40001
1.40001
1.40001
1.40001
1.40001
1.40001
1.40001
1.40001
1.40001
1.40001
1.40001
1.40001
1.40001
1.40001
1.40001
1.40001
1.40001
1.40001
1.40001
1.40001
1.40001
1.40001
1.40001
1.40001
1.40001
1.40001
1.40001
1.40001
1.40001
1.40001
1.40001
1.40001
1.40001
1.40001
1.40001
1.40001
1.40001
1.40001
1.40001
1.40001
1.40001
1.40001
1.40001
1.40001
1.40001
1.40001
1.40001
1.40001
1.40001
1.40001
1.40001
1.40001
1.40001
1.40001
1.40001
1.40001
1.40001
1.40001
1.40001
1.40001
1.40001
1.40001
1.40001
1.40001
1.40001
1.40001
1.40001
1.40001
1.40001
1.40001
1.40001
1.40001
1.40001
1.40001
1.40001
1.40001
1.40001
1.40001
1.40001
1.40001
1.40001
1.40001
1.40001
1.40001
1.40001
1.40001
1.40001
1.40001
1.40001
1.40001
1.40001
1.40001
1.40001
1.40001
1.40001
1.40001
1.40001
1.40001
1.40001
1.40001
1.40001
1.40001
1.40001
1.40001
1.40001
1.40001
1.40001
1.40001
1.40001
1.40001
1.40001
1.40001
1.40001
1.40001
1.40001
1.40001
1.40001
1.40001
1.40001
1.40001
1.40001
1.40001
1.40001
1.40001
1.40001
1.40001
1.40001
1.40001
1.40001
1.40001
1.40001
1.40001
1.40001
1.40001
1.40001
1.40001
1.40001
1.40001
1.40001
1.40001
1.40001
1.40001
1.40001
1.40001
1.40001
1.40001
1.40001
1.40001
1.40001
1.40001
1.40001
1.40001
1.40001
1.40001
1.40001
1.40001
1.40001
1.40001
1.40001
1.40001
1.40001
1.40001
1.40001
1.40001
1.40001
1.40001
1.40001
1.40001
1.40001
1.40001
1.40001
1.40001
1.40001
1.40001
1.40001
1.40001
1.40001
1.40001
1.40001
1.40001
1.40001
1.40001
1.40001
1.40001
1.40001
1.40001
1.40001
1.40001
1.40001
1.40001
1.40001
1.40001
1.40001
1.40001
1.40001
1.40001
1.40001
1.40001
1.40001
1.40001
1.40001
1.40001
1.40001
1.40001
1.40001
1.40001
1.40001
1.40001
1.40001
1.40001
1.40001
1.40001
1.40001
1.40001
1.40001
1.40001
1.40001
1.40001
1.40001
1.40001
1.40001
1.40001
1.40001
1.40001
1.40001
1.40001
1.40001
1.40001
1.40001
1.40001
1.40001
1.40001
1.40001
1.40001
1.40001
1.40001
1.40001
1.40001
1.40001
1.40001
1.40001
1.40001
1.40001
1.40001
1.40001
1.40001
1.40001
1.40001
1.40001
1.40001
1.40001
1.40001
1.40001
1.40001
1.40001
1.40001
1.40001
1.40001
1.40001
1.40001
1.40001
1.40001
1.40001
1.40001
1.40001
1.40001
1.40001
1.40001
1.40001
1.40001
1.40001
1.40001
1.40001
1.40001
1.40001
1.40001
1.40001
1.40001
1.40001
1.40001
1.40001
1.40001
1.40001
1.40001
1.40001
1.40001
1.40001
1.40001
1.40001
1.40001
1.40001
1.40001
1.40001
1.40001
1.40001
1.40001
1.40001
1.40001
1.40001
1.40001
1.40001
1.40001
1.40001
1.40001
1.40001
1.40001
1.40001
1.40001
1.40001
1.40001
1.40001
1.40001
1.40001
1.40001
1.40001
1.40001
1.40001
1.40001
1.40001
1.40001
1.40001
1.40001
1.40001
1.40001
1.40001
1.40001
1.40001
1.40001
1.40001
1.40001
1.40001
1.40001
1.40001
1.40001
1.40001
1.40001
1.40001
1.40001
1.40001
1.40001
1.40001
1.40001
1.40001
1.40001
1.40001
1.40001
1.40001
1.40001
1.40001
1.40001
1.40001
1.40001
1.40001
1.40001
1.40001
1.40001
1.40001
1.40001
1.40001
1.40001
1.40001
1.40001
1.40001
1.40001
1.40001
1.40001
1.40001
1.40001
1.40001
1.40001
1.40001
1.40001
1.40001
1.40001
1.40001
1.40001
1.40001
1.40001
1.40001
1.40001
1.40001
1.40001
1.40001
1.40001
1.40001
1.40001
1.40001
1.40001
1.40001
1.40001
1.40001
1.40001
1.40001
1.40001
1.40001
1.40001
1.40001
1.40001
1.40001
1.40001
1.40001
1.40001
1.40001
1.40001
1.40001
1.40001
1.40001
1.40001
1.40001
1.40001
1.40001
1.40001
1.40001
1.40001
1.40001
1.40001
1.40001
1.40001
1.40001
1.40001
1.40001
1.40001
1.40001
1.40001
1.40001
1.40001
1.40001
1.40001
1.40001
1.40001
1.40001
1.40001
1.40001
1.40001
1.40001
1.40001
1.40001
1.40001
1.40001
1.40001
1.40001
1.40001
1.40001
1.40001
1.40001
1.40001
1.40001
1.40001
1.40001
1.40001
1.40001
1.40001
1.40001
1.40001
1.40001
1.40001
1.40001
1.40001
1.40001
1.40001
1.40001
1.40001
1.40001
1.40001
1.40001
1.40001
1.40001
1.40001
1.40001
1.40001
1.40001
1.40001
1.40001
1.40001
1.40001
1.40001
1.40001
1.40001
1.40001
1.40001
1.40001
1.40001
1.40001
1.40001
1.40001
1.40001
1.40001
1.40001
1.40001
1.40001
1.40001
1.40001
1.40001
1.40001
1.40001
1.40001
1.40001
1.40001
1.40001
1.40001
1.40001
1.40001
1.40001
1.40001
1.40001
1.40001
1.40001
1.40001
1.40001
1.40001
1.40001
1.40001
1.40001
1.40001
1.40001
1.40001
1.40001
1.40001
1.40001
1.40001
1.40001
1.40001
1.40001
1.40001
1.40001
1.40001
1.40001
1.40001
1.40001
1.40001
1.40001
1.40001
1.40001
1.40001
1.40001
1.40001
1.40001
1.40001
1.40001
1.40001
1.40001
1.40001
1.40001
1.40001
1.40001
1.40001
1.40001
1.40001
1.40001
1.40001
1.40001
1.40001
1.40001
1.40001
1.40001
1.40001
1.40001
1.40001
1.40001
1.40001
1.40001
1.40001
1.40001
1.39996
1.40001
1.40001
1.40001
1.40001
1.40001
1.40001
1.40001
1.40001
1.40001
1.40001
1.40001
1.40001
1.40001
1.40001
1.39742
1.39982
1.4
1.40001
1.40001
1.40001
1.40001
1.40001
1.40001
1.40001
1.40001
1.40001
1.40001
1.40001
1.40001
1.54134
1.40076
1.4
1.4
1.40001
1.40001
1.40001
1.40001
1.40001
1.40001
1.40001
1.40001
1.40001
1.40001
1.40001
2.87941
1.50192
1.40068
1.4
1.4
1.40001
1.40001
1.40001
1.40001
1.40001
1.40001
1.40001
1.40001
1.40001
1.40001
4.61822
2.35236
1.46612
1.40071
1.40001
1.40001
1.40001
1.40001
1.40001
1.40001
1.40001
1.40001
1.40001
1.40001
1.40001
4.52178
3.56006
1.90619
1.42692
1.40027
1.40001
1.40001
1.40001
1.40001
1.40001
1.40001
1.40001
1.40001
1.40001
1.40001
4.07762
3.9951
2.76465
1.61156
1.40717
1.40007
1.40001
1.40001
1.40001
1.40001
1.40001
1.40001
1.40001
1.40001
1.40001
3.26431
3.92202
3.52375
2.1543
1.46745
1.40114
1.40001
1.4
1.40001
1.40001
1.40001
1.40001
1.40001
1.40001
1.40001
2.25547
3.43357
3.59706
2.90879
1.83198
1.4515
1.40262
1.40007
1.40001
1.40001
1.40001
1.40001
1.40001
1.40001
1.40001
1.76653
2.86476
3.48211
3.29611
2.34701
1.55218
1.40635
1.40013
1.40001
1.40001
1.40001
1.40001
1.40001
1.40001
1.40001
1.28197
2.04262
3.04224
3.2707
2.99918
2.01148
1.46174
1.40154
1.40002
1.40001
1.40001
1.40001
1.40001
1.40001
1.40001
1.13433
1.53155
2.38614
3.12156
3.09589
2.57654
1.68532
1.41478
1.40021
1.40001
1.40001
1.40001
1.40001
1.40001
1.40001
1.05468
1.37986
1.82562
2.69388
3.05374
2.94886
2.16584
1.50859
1.40344
1.40004
1.40001
1.40001
1.40001
1.40001
1.40001
0.937715
1.28944
1.53086
2.13722
2.86729
2.94705
2.60336
1.77725
1.42642
1.40046
1.40001
1.40001
1.40001
1.40001
1.40001
0.804862
1.14012
1.37172
1.73883
2.45721
2.89535
2.81952
2.19643
1.54181
1.40555
1.40007
1.40001
1.40001
1.40001
1.40001
0.741864
0.946583
1.20699
1.55855
2.06388
2.68883
2.8099
2.5491
1.8039
1.43423
1.40069
1.40001
1.40001
1.40001
1.40001
0.742447
0.856553
1.00989
1.37351
1.77813
2.3506
2.74651
2.70382
2.17805
1.54969
1.40646
1.40009
1.40001
1.40001
1.40001
0.754251
0.834365
0.935183
1.18372
1.49801
2.00623
2.57096
2.69547
2.47166
1.80149
1.43714
1.40081
1.40001
1.40001
1.40001
0.747519
0.816638
0.938799
1.12549
1.31898
1.72274
2.26026
2.63378
2.59361
2.12761
1.54889
1.40685
1.4001
1.40001
1.40001
0.722368
0.791866
0.931498
1.0766
1.19711
1.50759
1.95641
2.46668
2.58511
2.38068
1.76803
1.43518
1.4008
1.40001
1.40001
0.683956
0.768883
0.899688
1.00489
1.09695
1.33898
1.69247
2.21628
2.53943
2.50023
2.06196
1.53093
1.40596
1.40008
1.40001
0.65116
0.741255
0.852534
0.928514
1.05881
1.28533
1.50708
1.92586
2.39215
2.49267
2.29043
1.7257
1.43019
1.4007
1.40001
0.646618
0.712826
0.812571
0.871409
1.00799
1.21462
1.36139
1.69031
2.17158
2.45277
2.41
1.99076
1.5128
1.40487
1.40007
0.670358
0.683681
0.770692
0.818702
0.94589
1.11
1.24356
1.53323
1.93848
2.34395
2.40613
2.19894
1.67654
1.42459
1.40057
0.806918
0.689496
0.73527
0.809299
0.932696
1.03262
1.16001
1.41179
1.69791
2.15129
2.38163
2.32958
1.91348
1.4888
1.40357
1.0556
0.744554
0.746867
0.802716
0.910562
0.966043
1.07626
1.31898
1.54179
1.92981
2.29614
2.32772
2.11302
1.62804
1.4195
1.21363
0.881313
0.749835
0.78944
0.872979
0.912616
1.01326
1.22722
1.40874
1.72849
2.13175
2.3074
2.24336
1.83927
1.47222
1.24412
1.0312
0.773615
0.769553
0.826531
0.885488
1.00986
1.15461
1.28192
1.56925
1.94894
2.24816
2.24104
2.01828
1.59191
1.22911
1.15033
0.918024
0.759503
0.765394
0.840072
0.965571
1.05186
1.1351
1.3619
1.64957
2.01685
2.18433
2.127
1.89517
1.1931
1.06499
0.965296
0.837134
0.725748
0.694091
0.67974
0.667293
0.679559
0.66906
0.646101
0.609299
0.596357
0.63429
0.860519
1.1748
1.21853
1.2676
1.28012
1.25361
0.931943
0.870911
0.798286
0.686721
0.619672
0.622005
0.625358
0.628068
0.634138
0.62176
0.597381
0.569902
0.607604
0.854505
1.14747
1.29695
1.25788
1.25718
1.26813
1.25033
0.7277
0.711816
0.67413
0.589269
0.549506
0.552982
0.575906
0.588426
0.584157
0.573341
0.550455
0.6024
0.850999
1.12516
1.29863
1.32456
1.29863
1.26612
1.26596
1.25097
0.557783
0.576059
0.550083
0.49655
0.497674
0.513201
0.522479
0.538707
0.534332
0.531222
0.624735
0.883939
1.11125
1.28191
1.34346
1.33519
1.31109
1.27151
1.26537
1.24974