/*--------------------------------*- C++ -*----------------------------------*\
  =========                 |
  \\      /  F ield         | OpenFOAM: The Open Source CFD Toolbox
   \\    /   O peration     | Website:  https://openfoam.org
    \\  /    A nd           | Version:  7
     \\/     M anipulation  |
\*---------------------------------------------------------------------------*/
FoamFile
{
    version     2.0;
    format      ascii;
    class       volScalarField;
    location    "3.7";
    object      T;
}
// * * * * * * * * * * * * * * * * * * * * * * * * * * * * * * * * * * * * * //

dimensions      [0 0 0 1 0 0 0];

internalField   nonuniform List<scalar> 
3700
(
100.576
100.78
100.885
100.922
100.993
101.063
101.07
101.059
101.039
101.044
101.111
101.144
101.13
101.111
101.092
101.077
101.07
101.069
101.064
101.056
100.188
100.296
100.441
100.425
100.477
100.625
100.665
100.608
100.462
100.482
100.55
100.572
100.548
100.47
100.429
100.411
100.392
100.401
100.461
100.443
100.069
100.088
100.111
100.09
100.01
99.8965
99.8648
99.8921
99.9217
99.9686
100.014
100.031
100.039
100.038
100.025
100.01
99.9994
99.9988
100.013
100.038
100.043
100.046
100.06
100.02
99.9145
99.848
99.8479
99.8735
99.9023
99.9494
99.9972
100.03
100.061
100.085
100.092
100.091
100.078
100.051
100.024
100.043
100.024
100.011
99.9794
99.9306
99.89
99.879
99.8797
99.8913
99.9094
99.9488
99.9814
100.011
100.05
100.089
100.112
100.128
100.135
100.133
100.118
100.104
99.9772
99.9772
99.9511
99.98
100.007
100.012
100.02
100.032
100.026
100.039
100.014
100.023
100.042
100.075
100.107
100.133
100.159
100.178
100.186
100.201
99.9513
99.9762
99.9944
100.035
100.075
100.085
100.092
100.119
100.141
100.145
100.134
100.128
100.111
100.111
100.111
100.127
100.159
100.203
100.228
100.264
99.965
99.9991
100.013
100.036
100.084
100.096
100.1
100.14
100.187
100.206
100.216
100.212
100.219
100.22
100.217
100.216
100.216
100.234
100.265
100.319
100.006
100.005
99.9875
100
100.04
100.064
100.09
100.125
100.183
100.225
100.25
100.259
100.283
100.291
100.301
100.309
100.314
100.323
100.334
100.381
100.071
99.9728
99.9127
99.9753
100.02
100.052
100.078
100.121
100.174
100.221
100.255
100.28
100.314
100.332
100.352
100.372
100.386
100.398
100.417
100.451
100.089
99.9162
99.8939
100.002
100.057
100.1
100.145
100.203
100.246
100.297
100.316
100.339
100.355
100.369
100.389
100.417
100.447
100.468
100.506
100.496
100.072
99.886
99.9042
100.036
100.099
100.155
100.231
100.297
100.347
100.393
100.413
100.434
100.447
100.456
100.465
100.48
100.508
100.535
100.578
100.572
100.056
99.856
99.9004
99.9998
100.098
100.178
100.268
100.341
100.407
100.46
100.483
100.503
100.519
100.532
100.551
100.572
100.597
100.619
100.651
100.652
100.01
99.778
99.8344
99.9391
100.074
100.198
100.313
100.387
100.465
100.516
100.544
100.565
100.584
100.603
100.631
100.66
100.688
100.712
100.726
100.735
99.8902
99.7028
99.7953
99.9635
100.212
100.428
100.505
100.557
100.605
100.631
100.645
100.658
100.673
100.693
100.721
100.748
100.77
100.783
100.779
100.775
99.6715
99.7071
99.8284
100.198
100.465
100.591
100.638
100.678
100.708
100.725
100.737
100.754
100.774
100.796
100.813
100.823
100.821
100.814
100.789
100.744
99.3753
99.6765
100.179
100.489
100.643
100.697
100.731
100.765
100.789
100.804
100.816
100.834
100.852
100.856
100.854
100.843
100.791
100.678
100.518
100.278
99.5259
100.13
100.499
100.667
100.762
100.808
100.838
100.86
100.872
100.879
100.881
100.883
100.882
100.859
100.772
100.62
100.357
100.101
100.006
99.9978
100.123
100.523
100.731
100.834
100.886
100.905
100.922
100.922
100.917
100.907
100.894
100.842
100.729
100.474
100.149
100.011
99.9967
99.9985
99.9992
99.9998
100.695
100.835
100.911
100.946
100.961
100.957
100.955
100.929
100.846
100.765
100.578
100.234
100.03
99.9957
99.9977
99.9989
99.9998
100
100
100
100.997
100.994
100.989
100.987
100.983
100.958
100.886
100.438
99.8594
100
100
100
100
100
100
100
100
100
100
100
100.997
100.993
100.985
100.972
100.962
100.865
100.504
100.017
100
100
100
100
100
100
100
100
100
100
100
100
100.993
100.994
100.987
100.963
100.92
100.647
100.05
99.999
100
100
100
100
100
100
100
100
100
100
100
100
100.987
100.993
100.987
100.953
100.782
100.226
99.9965
100
100
100
100
100
100
100
100
100
100
100
100
100
100.98
100.989
100.984
100.92
100.544
99.9924
100
100
100
100
100
100
100
100
100
100
100
100
100
100
100.976
100.985
100.98
100.837
100.257
100
100
100
100
100
100
100
100
100
100
100
100
100
100
100
100.974
100.984
100.973
100.718
100.016
100
100
100
100
100
100
100
100
100
100
100
100
100
100
100
100.982
100.982
100.928
100.459
99.9967
100
100
100
100
100
100
100
100
100
100
100
100
100
100
100
101.001
100.963
100.814
100.155
100
100
100
100
100
100
100
100
100
100
100
100
100
100
100
100
101.014
100.94
100.669
99.9964
100
100
100
100
100
100
100
100
100
100
100
100
100
100
100
100
101.024
100.903
100.491
100
100
100
100
100
100
100
100
100
100
100
100
100
100
100
100
100
101.029
100.851
100.318
100
100
100
100
100
100
100
100
100
100
100
100
100
100
100
100
100
101.033
100.797
100.113
100
100
100
100
100
100
100
100
100
100
100
100
100
100
100
100
100
101.032
100.731
100
100
100
100
100
100
100
100
100
100
100
100
100
100
100
100
100
100
101.014
100.676
100
100
100
100
100
100
100
100
100
100
100
100
100
100
100
100
100
100
100.994
100.579
100
100
100
100
100
100
100
100
100
100
100
100
100
100
100
100
100
100
100.954
100.441
100
100
100
100
100
100
100
100
100
100
100
100
100
100
100
100
100
100
100.901
100.233
100
100
100
100
100
100
100
100
100
100
100
100
100
100
100
100
100
100
100.844
100.005
100
100
100
100
100
100
100
100
100
100
100
100
100
100
100
100
100
100
100.799
100
100
100
100
100
100
100
100
100
100
100
100
100
100
100
100
100
100
100
100.805
100
100
100
100
100
100
100
100
100
100
100
100
100
100
100
100
100
100
100
100.845
100.004
100
100
100
100
100
100
100
100
100
100
100
100
100
100
100
100
100
100
100.899
100.224
100
100
100
100
100
100
100
100
100
100
100
100
100
100
100
100
100
100
100.953
100.44
100
100
100
100
100
100
100
100
100
100
100
100
100
100
100
100
100
100
100.994
100.58
100
100
100
100
100
100
100
100
100
100
100
100
100
100
100
100
100
100
101.013
100.678
100
100
100
100
100
100
100
100
100
100
100
100
100
100
100
100
100
100
101.032
100.73
100
100
100
100
100
100
100
100
100
100
100
100
100
100
100
100
100
100
101.033
100.797
100.113
100
100
100
100
100
100
100
100
100
100
100
100
100
100
100
100
100
101.029
100.851
100.321
100
100
100
100
100
100
100
100
100
100
100
100
100
100
100
100
100
101.024
100.904
100.495
100
100
100
100
100
100
100
100
100
100
100
100
100
100
100
100
100
101.014
100.94
100.669
99.9964
100
100
100
100
100
100
100
100
100
100
100
100
100
100
100
100
101.001
100.963
100.813
100.156
100
100
100
100
100
100
100
100
100
100
100
100
100
100
100
100
100.983
100.982
100.927
100.458
99.9968
100
100
100
100
100
100
100
100
100
100
100
100
100
100
100
100.974
100.984
100.974
100.717
100.014
100
100
100
100
100
100
100
100
100
100
100
100
100
100
100
100.976
100.985
100.98
100.837
100.261
100
100
100
100
100
100
100
100
100
100
100
100
100
100
100
100.98
100.988
100.984
100.92
100.543
99.9925
100
100
100
100
100
100
100
100
100
100
100
100
100
100
100.987
100.993
100.987
100.953
100.781
100.224
99.9965
100
100
100
100
100
100
100
100
100
100
100
100
100
100.993
100.994
100.987
100.964
100.92
100.646
100.051
99.999
100
100
100
100
100
100
100
100
100
100
100
100
100.997
100.993
100.985
100.972
100.961
100.864
100.505
100.018
100
100
100
100
100
100
100
100
100
100
100
100
100.996
100.993
100.989
100.986
100.982
100.958
100.886
100.437
99.8597
100
100
100
100
100
100
100
100
100
100
100
100.694
100.834
100.911
100.945
100.961
100.957
100.955
100.93
100.846
100.765
100.577
100.234
100.03
99.9957
99.9977
99.9989
99.9998
100
100
100
100.117
100.526
100.731
100.833
100.886
100.905
100.923
100.922
100.917
100.907
100.894
100.842
100.729
100.473
100.149
100.01
99.9967
99.9985
99.9992
99.9998
99.4551
100.109
100.502
100.668
100.76
100.807
100.839
100.861
100.873
100.88
100.881
100.883
100.882
100.859
100.772
100.62
100.357
100.101
100.006
99.9978
99.3967
99.6572
100.2
100.493
100.644
100.696
100.73
100.765
100.79
100.803
100.816
100.833
100.851
100.856
100.854
100.843
100.791
100.678
100.518
100.279
99.6481
99.6724
99.833
100.223
100.473
100.592
100.639
100.678
100.708
100.724
100.736
100.753
100.774
100.796
100.814
100.823
100.821
100.814
100.789
100.744
99.8138
99.6495
99.6872
99.9367
100.206
100.438
100.511
100.562
100.607
100.631
100.645
100.658
100.673
100.693
100.722
100.748
100.769
100.783
100.779
100.774
99.9465
99.7138
99.7333
99.9191
100.059
100.21
100.319
100.389
100.465
100.514
100.542
100.563
100.583
100.602
100.631
100.66
100.688
100.711
100.726
100.735
100.034
99.8115
99.8639
99.983
100.086
100.174
100.268
100.338
100.403
100.457
100.481
100.502
100.519
100.532
100.551
100.573
100.597
100.619
100.651
100.652
100.084
99.8721
99.8908
100.029
100.092
100.151
100.23
100.297
100.347
100.393
100.414
100.435
100.448
100.457
100.466
100.481
100.508
100.535
100.578
100.572
100.12
99.9005
99.8723
99.997
100.055
100.095
100.147
100.209
100.25
100.3
100.32
100.342
100.356
100.37
100.388
100.415
100.446
100.468
100.506
100.496
100.122
99.9496
99.8819
99.9631
100.016
100.043
100.073
100.12
100.172
100.218
100.252
100.278
100.312
100.33
100.351
100.371
100.386
100.399
100.418
100.452
100.067
100
99.9445
99.9839
100.032
100.055
100.084
100.122
100.178
100.222
100.248
100.258
100.282
100.291
100.302
100.31
100.315
100.324
100.335
100.382
100.012
100.008
99.9982
100.033
100.084
100.093
100.093
100.134
100.184
100.205
100.217
100.213
100.221
100.222
100.22
100.22
100.219
100.235
100.264
100.318
99.9867
99.998
99.9981
100.042
100.081
100.087
100.087
100.115
100.143
100.148
100.139
100.133
100.116
100.115
100.113
100.125
100.155
100.2
100.226
100.264
99.9986
99.9945
99.9621
99.9982
100.02
100.02
100.024
100.036
100.034
100.046
100.02
100.026
100.04
100.071
100.103
100.13
100.157
100.178
100.186
100.202
100.037
100.017
99.975
99.93
99.8973
99.8898
99.8891
99.8983
99.9145
99.9514
99.9807
100.009
100.046
100.086
100.11
100.126
100.136
100.135
100.122
100.108
100.05
100.045
100.053
100.007
99.9014
99.8473
99.8508
99.875
99.9036
99.9487
99.9947
100.027
100.059
100.084
100.094
100.093
100.083
100.057
100.029
100.042
100.067
100.08
100.104
100.087
100.002
99.8923
99.8672
99.8923
99.9226
99.9663
100.011
100.03
100.042
100.044
100.033
100.016
100.004
100
100.011
100.036
100.149
100.219
100.307
100.459
100.457
100.384
100.363
100.434
100.514
100.457
100.414
100.465
100.598
100.698
100.7
100.667
100.624
100.565
100.466
100.398
100.542
100.741
100.798
100.919
100.996
101.006
101.002
101.02
101.053
101.049
101.056
101.102
101.158
101.17
101.164
101.151
101.131
101.103
101.062
101.038
101.064
101.035
100.996
100.987
100.976
100.96
100.927
100.893
100.877
100.874
100.872
100.864
100.849
100.835
100.828
100.828
100.829
100.819
100.799
100.769
100.639
100.656
100.675
100.709
100.776
100.805
100.802
100.8
100.803
100.804
100.804
100.803
100.799
100.793
100.789
100.789
100.788
100.779
100.766
100.743
100.032
100.061
100.165
100.264
100.416
100.511
100.568
100.629
100.654
100.656
100.665
100.677
100.685
100.696
100.702
100.701
100.698
100.693
100.687
100.675
100.081
100.094
100.099
100.09
100.104
100.196
100.352
100.465
100.504
100.522
100.538
100.557
100.574
100.588
100.598
100.598
100.597
100.595
100.593
100.587
100.121
100.142
100.128
100.114
100.116
100.126
100.161
100.27
100.394
100.445
100.455
100.477
100.504
100.52
100.524
100.524
100.521
100.519
100.517
100.513
100.182
100.185
100.181
100.159
100.149
100.154
100.173
100.179
100.221
100.309
100.381
100.421
100.456
100.482
100.486
100.485
100.48
100.475
100.471
100.464
100.241
100.239
100.221
100.189
100.185
100.189
100.199
100.21
100.207
100.199
100.242
100.338
100.403
100.45
100.465
100.463
100.457
100.448
100.444
100.435
100.303
100.29
100.271
100.239
100.216
100.213
100.221
100.223
100.22
100.212
100.19
100.209
100.311
100.393
100.438
100.443
100.436
100.429
100.426
100.417
100.363
100.344
100.321
100.291
100.263
100.249
100.239
100.236
100.234
100.223
100.206
100.181
100.193
100.291
100.381
100.421
100.41
100.411
100.411
100.401
100.428
100.4
100.374
100.339
100.299
100.274
100.253
100.244
100.243
100.234
100.218
100.196
100.179
100.186
100.276
100.374
100.383
100.398
100.395
100.383
100.533
100.438
100.404
100.383
100.355
100.312
100.272
100.26
100.257
100.248
100.236
100.218
100.195
100.176
100.179
100.232
100.314
100.356
100.353
100.345
100.621
100.544
100.463
100.424
100.406
100.378
100.327
100.288
100.268
100.254
100.243
100.231
100.21
100.185
100.164
100.156
100.173
100.218
100.257
100.282
100.608
100.59
100.541
100.47
100.42
100.391
100.36
100.311
100.276
100.271
100.263
100.247
100.223
100.198
100.173
100.151
100.145
100.132
100.134
100.177
100.488
100.548
100.542
100.517
100.465
100.413
100.385
100.353
100.308
100.287
100.267
100.241
100.215
100.19
100.167
100.15
100.135
100.117
100.104
100.084
100.25
100.377
100.446
100.482
100.474
100.446
100.406
100.369
100.327
100.289
100.258
100.229
100.215
100.197
100.172
100.157
100.14
100.118
100.095
100.063
100.043
100.145
100.253
100.336
100.389
100.415
100.405
100.38
100.345
100.306
100.271
100.238
100.222
100.202
100.172
100.145
100.12
100.098
100.083
100.058
100.002
100.015
100.065
100.155
100.234
100.291
100.329
100.348
100.34
100.315
100.282
100.246
100.215
100.186
100.16
100.138
100.113
100.093
100.086
100.063
100
100
100.003
100.025
100.078
100.15
100.208
100.249
100.28
100.29
100.281
100.261
100.228
100.195
100.169
100.146
100.127
100.105
100.084
100.052
100
100
100
100.001
100.006
100.031
100.08
100.139
100.187
100.216
100.242
100.245
100.235
100.215
100.188
100.155
100.13
100.105
100.078
100.042
100
100
100
100
100
100.001
100.008
100.032
100.079
100.128
100.17
100.192
100.21
100.209
100.201
100.183
100.156
100.127
100.101
100.063
100
100
100
100
100
100
100
100.001
100.008
100.032
100.073
100.118
100.154
100.173
100.186
100.184
100.177
100.16
100.136
100.094
100
100
100
100
100
100
100
100
100
100.002
100.008
100.028
100.065
100.108
100.14
100.159
100.168
100.166
100.161
100.134
100
100
100
100
100
100
100
100
100
100
100
100.001
100.007
100.025
100.056
100.096
100.127
100.148
100.153
100.146
100
100
100
100
100
100
100
100
100
100
100
100
100
100.001
100.005
100.02
100.047
100.085
100.114
100.132
100
100
100
100
100
100
100
100
100
100
100
100
100
100
100
100.001
100.004
100.016
100.041
100.097
100.598
100.654
100.609
100.416
100.142
100.017
100.001
100
100
100
100
100
100
100
100
100.672
100.664
100.518
100.218
100.022
100
100
100
100
100
100
100
100
100
100
100.704
100.635
100.373
100.073
100.002
100
100
100
100
100
100
100
100
100
100
100.719
100.518
100.167
100.009
100
100
100
100
100
100
100
100
100
100
100
100.652
100.286
100.025
100
100
100
100
100
100
100
100
100
100
100
100
100.393
100.038
100
100
100
100
100
100
100
100
100
100
100
100
100
100.042
100
100
100
100
100
100
100
100
100
100
100
100
100
100
99.9995
100
100
100
100
100
100
100
100
100
100
100
100
100
100
100
100
100
100
100
100
100
100
100
100
100
100
100
100
100
100
100
100
100
100
100
100
100
100
100
100
100
100
100
100
100
100
100
100
100
100
100
100
100
100
100
100
100
100
100
100
100
100
100
100
100
100
100
100
100
100
100
100
100
100
100
100
100
100
100
100
100
100
100
100
100
100
100
100
100
100
100
100
100
100
100
100
100
100
100
100
100
100
100
100
100
100
100
100
100
100
100
100
100
100
100
100
100
100
100
100
100
100
100
100
100
100
100
100
100
100
100
100
100
100
100
100
100
100
100
100
100
100
100
100
100
100
100
100
100
100
100
100
100
100
100
100
100
100
100
100
100
100
100
100
100
100
100
100
100
100
100
100
100
100
100
100
100
100
100
100
100
100
100
100
100
100
100
100
100
100
100
100
100
100
100
100
100
100
100
100
100
100
100
100
100
100
100
100
100
100
100
100
100
100
100
100
100
100
100
100
100
100
100
100
100
100
100
100
100
100
100
100
100
100
100
100
100
100
100
100
100
100
100
100
100
100
100
100
100
100
100
100
100
100
100
100
100
100
100
100
100
100
100
100
100
100
100
100
100
100
100
100
100
100
100
100
100
100
100
100
100
100
100
100
100
100
100
100
100
100
100
100
100
100
100
100
100
100
100
100
100
100
100
100
100
100
100
100
100
100
100
100
100
100
100
100
100
100
100
100
100
100
100
100
100
100
100
100
100
100
100
100
100
100
100
100
100
100
100
100
100
100
100
100
100
100
100
100
100
100
100
100
100
100
100
100
100
100
100
100
100
100
100
100
100
100
100
100
100
100
100
100
100
100
100
100
100
100
100
100
100
100
100
100
100
100
100
100
100
100
100
100
100
100
100
100
100
100
100
100
100
100
100
100
100
100
100
100
100
100
100
100
100
100
100
100
100
100
100
100
100
100
100
100
100
100
100
100
100
100
100
100
100
100
100
100
100
100
100
100
100
100
100
100
100
100
100
100
100
100
100
100
100
100
100
100
100
100
100
100
100
100
100
100
100
100
100
100
100
100
100
100
100
100
100
100
100
100
100
100
100
100
100
100
100
100
100
100
100
100
100
100
100
100
100
100
100
100
100
100
100
100
100
100
100
100
100
100
100
100
100
100
100
100
100
100
100
100
100
100
100
100
100
100
100
100
100
100
100
100
100
100
100
100
100
100
100
100
100
100
100
100
100
100
100
100
100
100
100
100
100
100
100
100
100
100
100
100
100
100
100
100
100
100
100
100
100
100
100
100
100
100
100
100
100
100
100
100
100
100
100
100
100
100
100
100
100
100
100
100
100
100
100
100
100
100
100
100
100
100
100
100
100
100
100
100
100
100
100
100
100
100
100
100
100
100
100
100
100
100
100
100
100
100
100
100
100
100
100
100
100
100
100
100
100
100
100
100
100
100
100
100
100
100
100
100
100
100
100
100
100
100
100
100
100
100
100
100
100
100
100
100
100
100
100
100
100
100
100
100
100
100
100
100
100
100
100
100
100
100
100
100
100
100
100
100
100
100
100
100
100
100
100
100
100
100
100
100
100
100
100
100
100
100
100
100
100
100
100
100
100
100
100
100
100
100
100
100
100
100
100
100
100
100
100
100
100
100
100
100
100
100
100
100
100
100
100
100
100
100
100
100
100
100
100
100
100
100
100
100
100
100
100
100
100
100
100
100
100
100
100
100
100
100
100
100
100
100
100
100
100
100
100
100
100
100
100
100
100
100
100
100
100
100
100
100
100
100
100
100
100
100
100
100
100
100
100
100
100
100
100
100
100
100
100
100
100
100
100
100
100
100
100
100
100
100
100
100
100
100
100
100
100
100
100
100
100
100
100
100
100
100
100
100
100
100
100
100
100
100
100
100
100
100
100
100
100
100
100
100
100
100
100
100
100
100
100
100
100
100
100
100
100
100
100
100
100
100
100
100
100
100
100
100
99.9995
100
100
100
100
100
100
100
100
100
100
100
100
100
100
100.042
100
100
100
100
100
100
100
100
100
100
100
100
100
100
100.393
100.038
100
100
100
100
100
100
100
100
100
100
100
100
100
100.652
100.286
100.025
100
100
100
100
100
100
100
100
100
100
100
100
100.719
100.518
100.167
100.009
100
100
100
100
100
100
100
100
100
100
100
100.704
100.635
100.373
100.073
100.002
100
100
100
100
100
100
100
100
100
100
100.672
100.664
100.518
100.218
100.022
100
100
100
100
100
100
100
100
100
100
100.598
100.654
100.609
100.416
100.142
100.017
100.001
100
100
100
100
100
100
100
100
100.533
100.621
100.609
100.488
100.251
100.043
100.002
100
100
100
100
100
100
100
100
100.442
100.542
100.59
100.548
100.377
100.145
100.015
100
100
100
100
100
100
100
100
100.404
100.465
100.541
100.542
100.446
100.253
100.065
100.003
100
100
100
100
100
100
100
100.383
100.428
100.469
100.517
100.482
100.336
100.155
100.025
100.001
100
100
100
100
100
100
100.353
100.408
100.42
100.465
100.474
100.389
100.234
100.078
100.006
100
100
100
100
100
100
100.307
100.377
100.391
100.412
100.446
100.415
100.291
100.15
100.031
100.001
100
100
100
100
100
100.272
100.326
100.361
100.386
100.406
100.405
100.329
100.209
100.08
100.008
100
100
100
100
100
100.263
100.287
100.313
100.354
100.369
100.38
100.348
100.249
100.139
100.032
100.001
100
100
100
100
100.26
100.267
100.277
100.309
100.327
100.345
100.34
100.28
100.187
100.079
100.008
100
100
100
100
100.251
100.252
100.27
100.287
100.289
100.306
100.315
100.29
100.216
100.128
100.032
100.002
100
100
100
100.237
100.242
100.262
100.267
100.258
100.271
100.282
100.281
100.242
100.17
100.073
100.008
100
100
100
100.218
100.231
100.246
100.241
100.229
100.238
100.246
100.261
100.245
100.192
100.118
100.028
100.001
100
100
100.194
100.211
100.222
100.214
100.215
100.222
100.215
100.228
100.235
100.21
100.154
100.065
100.007
100
100
100.176
100.185
100.198
100.19
100.197
100.202
100.186
100.195
100.215
100.209
100.173
100.108
100.025
100.001
100
100.179
100.164
100.173
100.167
100.172
100.172
100.16
100.169
100.188
100.201
100.186
100.14
100.056
100.005
100
100.232
100.157
100.152
100.15
100.157
100.145
100.138
100.146
100.155
100.183
100.184
100.159
100.096
100.02
100.001
100.313
100.173
100.145
100.135
100.14
100.12
100.113
100.127
100.13
100.156
100.177
100.168
100.127
100.047
100.004
100.356
100.218
100.132
100.117
100.118
100.098
100.093
100.105
100.105
100.127
100.16
100.166
100.148
100.085
100.016
100.353
100.257
100.135
100.104
100.095
100.083
100.086
100.084
100.078
100.101
100.136
100.161
100.153
100.114
100.041
100.344
100.282
100.177
100.084
100.063
100.058
100.063
100.052
100.042
100.063
100.094
100.134
100.146
100.132
100.097
100.427
100.4
100.373
100.337
100.299
100.274
100.257
100.243
100.244
100.236
100.221
100.197
100.178
100.186
100.277
100.374
100.383
100.397
100.395
100.383
100.36
100.343
100.321
100.285
100.256
100.247
100.239
100.234
100.233
100.225
100.207
100.181
100.191
100.29
100.382
100.421
100.41
100.411
100.41
100.401
100.301
100.29
100.272
100.238
100.218
100.216
100.221
100.222
100.219
100.21
100.189
100.207
100.306
100.391
100.438
100.444
100.437
100.429
100.426
100.417
100.241
100.239
100.218
100.186
100.186
100.194
100.197
100.204
100.2
100.195
100.24
100.336
100.4
100.448
100.465
100.463
100.457
100.448
100.444
100.435
100.181
100.186
100.18
100.157
100.149
100.158
100.174
100.177
100.213
100.304
100.38
100.421
100.456
100.481
100.485
100.485
100.48
100.475
100.471
100.464
100.126
100.137
100.136
100.128
100.128
100.132
100.166
100.268
100.385
100.442
100.456
100.479
100.505
100.519
100.523
100.523
100.521
100.52
100.518
100.514
100.086
100.084
100.086
100.086
100.099
100.202
100.366
100.468
100.5
100.517
100.536
100.559
100.577
100.59
100.597
100.598
100.599
100.598
100.596
100.591
100.033
100.089
100.21
100.277
100.39
100.505
100.584
100.648
100.654
100.65
100.659
100.678
100.691
100.7
100.704
100.705
100.703
100.699
100.693
100.681
100.518
100.663
100.741
100.74
100.75
100.781
100.812
100.815
100.805
100.799
100.802
100.806
100.805
100.799
100.794
100.793
100.792
100.785
100.773
100.749
101.035
101.03
101.021
101.003
100.968
100.944
100.923
100.899
100.878
100.875
100.876
100.872
100.857
100.837
100.829
100.83
100.831
100.824
100.806
100.773
)
;

boundaryField
{
    inlet
    {
        type            fixedValue;
        value           uniform 100;
    }
    outlet
    {
        type            inletOutlet;
        inletValue      uniform 100;
        value           nonuniform List<scalar> 
50
(
100.344
100.282
100.177
100.083
100.063
100.058
100.063
100.052
100.042
100.063
100.094
100.134
100.146
100.132
100.097
100.769
100.743
100.675
100.587
100.513
100.464
100.435
100.417
100.401
100.383
100.383
100.401
100.417
100.435
100.464
100.514
100.591
100.681
100.749
100.773
100.344
100.281
100.177
100.084
100.063
100.058
100.063
100.052
100.042
100.063
100.094
100.134
100.146
100.132
100.097
)
;
    }
    airfoil
    {
        type            zeroGradient;
    }
    top
    {
        type            symmetryPlane;
    }
    bottom
    {
        type            symmetryPlane;
    }
    defaultFaces
    {
        type            empty;
    }
}


// ************************************************************************* //
