/*--------------------------------*- C++ -*----------------------------------*\
  =========                 |
  \\      /  F ield         | OpenFOAM: The Open Source CFD Toolbox
   \\    /   O peration     | Website:  https://openfoam.org
    \\  /    A nd           | Version:  7
     \\/     M anipulation  |
\*---------------------------------------------------------------------------*/
FoamFile
{
    version     2.0;
    format      ascii;
    class       volVectorField;
    location    "3.7";
    object      U;
}
// * * * * * * * * * * * * * * * * * * * * * * * * * * * * * * * * * * * * * //

dimensions      [0 1 -1 0 0 0 0];

internalField   nonuniform List<vector> 
3700
(
(1.38245 -0.325839 0)
(1.30542 -0.486127 0)
(1.33767 -0.239862 0)
(1.47532 -0.322455 0)
(1.53365 -0.306695 0)
(1.52163 -0.165953 0)
(1.54636 -0.11496 0)
(1.55494 -0.153559 0)
(1.5852 -0.264164 0)
(1.55002 -0.260787 0)
(1.53545 -0.184407 0)
(1.61948 -0.106237 0)
(1.66383 -0.121221 0)
(1.71289 -0.190116 0)
(1.73563 -0.225217 0)
(1.73022 -0.246151 0)
(1.73328 -0.284437 0)
(1.7559 -0.298984 0)
(1.76037 -0.216777 0)
(1.84391 -0.220172 0)
(1.87922 -1.25437 0)
(1.75347 -1.17727 0)
(1.79922 -0.935444 0)
(1.97008 -1.07991 0)
(1.98649 -1.31868 0)
(1.88252 -1.23445 0)
(1.81934 -1.18402 0)
(1.82307 -1.32589 0)
(1.85561 -1.58404 0)
(1.81965 -1.52516 0)
(1.83059 -1.45483 0)
(1.95111 -1.28712 0)
(2.08692 -1.24482 0)
(2.19124 -1.29916 0)
(2.23132 -1.28906 0)
(2.26367 -1.2608 0)
(2.27549 -1.26754 0)
(2.26125 -1.27214 0)
(2.22449 -1.19594 0)
(2.27251 -1.21751 0)
(1.7935 -1.33562 0)
(1.87408 -1.26609 0)
(1.94256 -1.27043 0)
(2.02256 -1.40576 0)
(2.07844 -1.75406 0)
(2.04846 -2.11718 0)
(2.02879 -2.22742 0)
(1.99214 -2.22145 0)
(1.99349 -2.20616 0)
(2.06116 -2.08937 0)
(2.08002 -2.11834 0)
(2.17733 -1.97694 0)
(2.24926 -1.91358 0)
(2.33524 -1.85247 0)
(2.43825 -1.79379 0)
(2.56425 -1.72539 0)
(2.63872 -1.67225 0)
(2.67814 -1.63088 0)
(2.68035 -1.61254 0)
(2.63259 -1.60367 0)
(1.69601 -1.404 0)
(1.73973 -1.38483 0)
(1.74925 -1.53406 0)
(1.77968 -1.86342 0)
(1.80627 -2.10317 0)
(1.95573 -2.22613 0)
(1.99865 -2.24646 0)
(2.04702 -2.18067 0)
(2.08742 -2.13585 0)
(2.26113 -1.96365 0)
(2.24605 -2.02842 0)
(2.31478 -1.93124 0)
(2.33092 -1.86235 0)
(2.37367 -1.76982 0)
(2.44857 -1.67092 0)
(2.58224 -1.57752 0)
(2.65361 -1.44746 0)
(2.7591 -1.31327 0)
(2.83816 -1.20588 0)
(2.82517 -1.22905 0)
(1.57629 -1.3997 0)
(1.54997 -1.47951 0)
(1.54562 -1.85615 0)
(1.59944 -2.14332 0)
(1.6277 -2.25296 0)
(1.68483 -2.22664 0)
(1.88252 -2.20573 0)
(2.12565 -1.94495 0)
(2.2344 -1.95791 0)
(2.42203 -1.83642 0)
(2.44835 -1.75167 0)
(2.48625 -1.68287 0)
(2.51921 -1.66199 0)
(2.49467 -1.67837 0)
(2.51541 -1.58341 0)
(2.56051 -1.51505 0)
(2.58826 -1.38269 0)
(2.68767 -1.29303 0)
(2.74678 -1.12293 0)
(2.85849 -0.892464 0)
(1.29774 -1.31901 0)
(1.42925 -1.5569 0)
(1.46823 -1.9758 0)
(1.52142 -2.25188 0)
(1.51945 -2.31076 0)
(1.7525 -2.17191 0)
(1.89825 -2.07789 0)
(2.03799 -1.93164 0)
(2.17794 -1.79948 0)
(2.39341 -1.72566 0)
(2.53732 -1.53012 0)
(2.64409 -1.45732 0)
(2.69397 -1.34513 0)
(2.6751 -1.37847 0)
(2.6941 -1.30909 0)
(2.6704 -1.32777 0)
(2.65138 -1.20488 0)
(2.65208 -1.15521 0)
(2.69592 -1.13049 0)
(2.76756 -0.895411 0)
(1.17928 -1.19737 0)
(1.34222 -1.65335 0)
(1.46514 -2.08183 0)
(1.63969 -2.31123 0)
(1.74664 -2.32757 0)
(1.87214 -2.22056 0)
(2.0202 -2.04886 0)
(2.06134 -1.93893 0)
(2.1444 -1.78388 0)
(2.2939 -1.67908 0)
(2.41908 -1.48369 0)
(2.61151 -1.41276 0)
(2.69373 -1.1618 0)
(2.78641 -1.06655 0)
(2.80153 -0.902416 0)
(2.77473 -0.883505 0)
(2.75654 -0.847324 0)
(2.73754 -0.792027 0)
(2.71191 -0.893808 0)
(2.70798 -0.735372 0)
(1.07489 -1.24199 0)
(1.3183 -1.82693 0)
(1.67524 -2.16966 0)
(1.92669 -2.2557 0)
(2.05606 -2.25161 0)
(2.14313 -2.22176 0)
(2.28773 -1.88694 0)
(2.28683 -1.84675 0)
(2.2943 -1.74078 0)
(2.31216 -1.65681 0)
(2.41388 -1.46917 0)
(2.53883 -1.36839 0)
(2.593 -1.14198 0)
(2.72319 -1.04779 0)
(2.75039 -0.795667 0)
(2.79885 -0.647291 0)
(2.79918 -0.51906 0)
(2.7869 -0.391013 0)
(2.73181 -0.509261 0)
(2.69483 -0.465824 0)
(1.06109 -1.34654 0)
(1.44534 -2.04675 0)
(1.93639 -2.29049 0)
(2.17193 -2.2741 0)
(2.29133 -2.13377 0)
(2.47018 -2.02527 0)
(2.56166 -1.71472 0)
(2.557 -1.50721 0)
(2.55793 -1.48623 0)
(2.56338 -1.43622 0)
(2.56832 -1.36667 0)
(2.61092 -1.1858 0)
(2.61155 -1.03258 0)
(2.66703 -0.939313 0)
(2.68581 -0.755326 0)
(2.7281 -0.619059 0)
(2.76189 -0.462181 0)
(2.76067 -0.24644 0)
(2.7269 -0.175001 0)
(2.67735 -0.1498 0)
(1.18467 -1.56725 0)
(1.6161 -2.23752 0)
(2.05402 -2.34828 0)
(2.21046 -2.32286 0)
(2.37196 -2.06005 0)
(2.49332 -1.76363 0)
(2.6332 -1.69029 0)
(2.75982 -1.27976 0)
(2.76675 -1.20032 0)
(2.78036 -0.977006 0)
(2.78221 -0.981242 0)
(2.76269 -0.751751 0)
(2.72931 -0.704732 0)
(2.72595 -0.593826 0)
(2.70761 -0.496641 0)
(2.68847 -0.421392 0)
(2.69521 -0.362299 0)
(2.69132 -0.237536 0)
(2.65588 -0.0395029 0)
(2.6174 0.0528692 0)
(1.34821 -1.76393 0)
(1.67927 -2.32777 0)
(1.96013 -2.27583 0)
(1.91064 -2.07825 0)
(2.00104 -1.93623 0)
(2.20364 -1.59398 0)
(2.32891 -1.53956 0)
(2.49102 -1.29133 0)
(2.61255 -1.15474 0)
(2.67253 -0.82319 0)
(2.72952 -0.633099 0)
(2.72148 -0.391093 0)
(2.72675 -0.282764 0)
(2.70897 -0.134541 0)
(2.69043 -0.0523564 0)
(2.66185 -0.0260818 0)
(2.63468 -0.0264864 0)
(2.6261 -0.0565454 0)
(2.55724 0.096813 0)
(2.57478 0.10293 0)
(1.3845 -1.81283 0)
(1.63426 -2.31422 0)
(1.7175 -2.06578 0)
(1.80302 -1.94888 0)
(1.93366 -1.8204 0)
(2.1311 -1.46256 0)
(2.24616 -1.38822 0)
(2.36047 -1.2084 0)
(2.42783 -1.03622 0)
(2.4962 -0.84125 0)
(2.5856 -0.642733 0)
(2.61652 -0.396439 0)
(2.64491 -0.199766 0)
(2.64482 -0.0128986 0)
(2.59033 0.19714 0)
(2.56143 0.280584 0)
(2.51643 0.366339 0)
(2.5083 0.274317 0)
(2.45065 0.325722 0)
(2.48077 0.258926 0)
(1.2928 -1.76928 0)
(1.56766 -2.18688 0)
(1.70787 -1.95491 0)
(1.8558 -1.5216 0)
(2.00464 -1.54243 0)
(2.22292 -1.31276 0)
(2.3591 -1.16026 0)
(2.46245 -0.976421 0)
(2.51256 -0.678247 0)
(2.53762 -0.541254 0)
(2.5643 -0.337653 0)
(2.56393 -0.165966 0)
(2.55596 -0.0196212 0)
(2.54552 0.104645 0)
(2.48663 0.277387 0)
(2.47347 0.359893 0)
(2.39497 0.51505 0)
(2.34453 0.568897 0)
(2.3004 0.597427 0)
(2.31404 0.541803 0)
(1.05345 -1.57743 0)
(1.67796 -1.87408 0)
(1.89887 -1.68241 0)
(1.90156 -1.06953 0)
(2.0062 -1.16587 0)
(2.34098 -0.827166 0)
(2.55227 -0.512149 0)
(2.62492 -0.27893 0)
(2.58658 -0.0493556 0)
(2.57305 0.0466222 0)
(2.53928 0.205788 0)
(2.49657 0.328611 0)
(2.45372 0.413074 0)
(2.40792 0.480419 0)
(2.35452 0.531316 0)
(2.32479 0.553628 0)
(2.26769 0.619549 0)
(2.21544 0.697056 0)
(2.15773 0.783137 0)
(2.13147 0.800487 0)
(0.855085 -1.28566 0)
(1.67747 -1.68638 0)
(2.10922 -1.28862 0)
(2.17791 -0.738762 0)
(2.48635 -0.463451 0)
(2.55899 -0.352392 0)
(2.58854 -0.312867 0)
(2.54379 0.0140975 0)
(2.50369 0.135749 0)
(2.47078 0.310715 0)
(2.4174 0.476601 0)
(2.33245 0.636022 0)
(2.27547 0.72341 0)
(2.20316 0.810996 0)
(2.15686 0.830991 0)
(2.11753 0.84099 0)
(2.07782 0.876682 0)
(2.07179 0.87971 0)
(2.03938 0.921292 0)
(2.05868 0.951708 0)
(1.21653 -1.09018 0)
(1.51319 -1.67668 0)
(2.17283 -0.766151 0)
(2.44961 -0.455215 0)
(2.46525 -0.278332 0)
(2.46686 -0.233253 0)
(2.44077 0.010974 0)
(2.39377 0.213658 0)
(2.34221 0.359876 0)
(2.31161 0.530126 0)
(2.22198 0.699066 0)
(2.14389 0.821202 0)
(2.08353 0.895546 0)
(2.02254 0.962792 0)
(1.98149 0.978766 0)
(1.94908 0.998502 0)
(1.95305 1.01972 0)
(1.96892 0.99639 0)
(1.99552 0.994665 0)
(2.07221 0.976233 0)
(1.44498 -0.57639 0)
(2.03023 -0.923554 0)
(2.34489 0.110406 0)
(2.30097 -0.133651 0)
(2.31879 -0.0208917 0)
(2.35176 0.235273 0)
(2.27254 0.527793 0)
(2.20227 0.677409 0)
(2.13801 0.770177 0)
(2.08233 0.902961 0)
(1.9701 1.00876 0)
(1.9155 1.06032 0)
(1.88661 1.07621 0)
(1.87138 1.08561 0)
(1.87366 1.05454 0)
(1.8972 1.04757 0)
(1.9608 1.02153 0)
(2.16297 0.904988 0)
(2.38187 0.793893 0)
(2.78017 0.440729 0)
(1.09578 -0.0454731 0)
(1.84564 -0.165358 0)
(2.23304 0.0685219 0)
(2.22657 0.470203 0)
(2.19352 0.650437 0)
(2.12758 0.787714 0)
(2.05048 0.897135 0)
(1.96799 0.978185 0)
(1.91165 1.04199 0)
(1.84677 1.13051 0)
(1.78549 1.15973 0)
(1.78847 1.15437 0)
(1.80847 1.13328 0)
(1.8514 1.08852 0)
(2.04257 0.95067 0)
(2.26122 0.827854 0)
(2.66578 0.503299 0)
(3.03685 0.0917492 0)
(3.05528 -0.0237515 0)
(3.004 -0.0046394 0)
(1.02 0.0187325 0)
(1.92145 0.804224 0)
(2.09936 0.868749 0)
(1.98624 0.981669 0)
(1.96329 0.981151 0)
(1.86843 1.08486 0)
(1.7974 1.13911 0)
(1.76757 1.14901 0)
(1.76395 1.16446 0)
(1.73937 1.20318 0)
(1.71437 1.19668 0)
(1.85478 1.07193 0)
(2.09169 0.88843 0)
(2.50054 0.581163 0)
(2.98627 0.138694 0)
(3.07351 -0.0287333 0)
(3.00811 -0.00765842 0)
(3.00291 -0.00382753 0)
(3.00122 -0.00219073 0)
(3.00008 -0.000486926 0)
(1.15954 0.767667 0)
(1.82634 1.15437 0)
(1.83844 1.15217 0)
(1.73482 1.19623 0)
(1.7121 1.19976 0)
(1.66564 1.24789 0)
(1.66872 1.21781 0)
(1.73448 1.16977 0)
(1.76632 1.22585 0)
(1.79424 1.13514 0)
(2.26991 0.734935 0)
(2.85802 0.207248 0)
(3.09874 -0.0288981 0)
(3.0213 -0.0127191 0)
(3.00439 -0.00540746 0)
(3.00178 -0.00295616 0)
(3.00006 -0.000578992 0)
(2.99998 -2.32534e-05 0)
(2.99999 1.43096e-05 0)
(3 5.90267e-06 0)
(1.57675 1.25903 0)
(1.58209 1.26902 0)
(1.58468 1.27776 0)
(1.59293 1.26912 0)
(1.61645 1.25428 0)
(1.61004 1.2694 0)
(1.90355 1.1622 0)
(2.95707 0.354661 0)
(3.31661 -0.539339 0)
(3 -1.64315e-11 0)
(3 7.65803e-11 0)
(3 -1.83031e-12 0)
(3 8.28586e-11 0)
(3 -7.62308e-11 0)
(3 1.20857e-13 0)
(3 1.15207e-13 0)
(3 3.64911e-14 0)
(3 9.94369e-15 0)
(3 2.76707e-15 0)
(3 -3.84677e-15 0)
(1.58341 1.24958 0)
(1.59249 1.26237 0)
(1.59502 1.28017 0)
(1.59172 1.28054 0)
(1.65835 1.24966 0)
(1.69471 1.24559 0)
(2.27237 0.740154 0)
(2.995 0.0190388 0)
(3 5.21444e-08 0)
(3 7.67887e-11 0)
(3 -2.95447e-12 0)
(3 6.486e-15 0)
(3 -6.54585e-14 0)
(3 5.4835e-14 0)
(3 -4.17368e-16 0)
(3 -4.16829e-16 0)
(3 -1.17186e-15 0)
(3 -4.70258e-16 0)
(3 -6.30679e-16 0)
(3 -1.72502e-15 0)
(1.58475 1.24866 0)
(1.60447 1.25468 0)
(1.61168 1.26185 0)
(1.58599 1.28672 0)
(1.71584 1.20342 0)
(2.1788 0.822733 0)
(2.98467 0.0069965 0)
(3.00064 -0.00111924 0)
(3 7.82429e-07 0)
(3 5.66173e-11 0)
(3 -2.70253e-12 0)
(3 2.51764e-14 0)
(3 1.19319e-16 0)
(3 -1.28013e-15 0)
(3 -1.56233e-15 0)
(3 -1.40074e-15 0)
(3 -1.79225e-15 0)
(3 -1.12649e-15 0)
(3 -1.72016e-15 0)
(3 -1.8149e-15 0)
(1.5835 1.25215 0)
(1.60668 1.25569 0)
(1.62624 1.25523 0)
(1.62586 1.27382 0)
(1.87889 1.07199 0)
(2.77057 0.199743 0)
(3.00475 -0.00233528 0)
(2.99991 9.02861e-05 0)
(3 -9.35259e-07 0)
(3 9.37357e-10 0)
(3 -2.09514e-12 0)
(3 8.81895e-15 0)
(3 -6.82498e-16 0)
(3 -1.46308e-15 0)
(3 -2.07469e-15 0)
(3 -1.66668e-15 0)
(3 -1.81708e-15 0)
(3 -2.56237e-15 0)
(3 -1.95901e-15 0)
(3 -2.215e-15 0)
(1.58533 1.26645 0)
(1.59705 1.26317 0)
(1.62879 1.24502 0)
(1.76482 1.20347 0)
(2.34414 0.659361 0)
(3.02003 -0.016756 0)
(2.99974 0.000182832 0)
(3 -4.39875e-06 0)
(3 8.41372e-08 0)
(3 -9.36767e-10 0)
(3 6.14906e-12 0)
(3 -3.15812e-14 0)
(3 -1.11235e-15 0)
(3 -1.97014e-15 0)
(3 -1.58948e-15 0)
(3 -1.87133e-15 0)
(3 -2.47766e-15 0)
(3 -2.2835e-15 0)
(3 -1.19662e-15 0)
(3 -1.66871e-15 0)
(1.58547 1.27813 0)
(1.57833 1.27121 0)
(1.62898 1.25801 0)
(1.80462 1.13447 0)
(2.72429 0.241387 0)
(3 -1.35988e-09 0)
(3 1.48135e-08 0)
(3 -1.29772e-08 0)
(3 5.57826e-10 0)
(3 2.54878e-12 0)
(3 -1.25849e-13 0)
(3 9.03673e-16 0)
(3 -1.64206e-15 0)
(3 -1.71793e-15 0)
(3 -1.93009e-15 0)
(3 -1.74284e-15 0)
(3 -1.88628e-15 0)
(3 -2.16827e-15 0)
(3 -2.02403e-15 0)
(3 -2.10234e-15 0)
(1.58267 1.29987 0)
(1.55082 1.29195 0)
(1.65351 1.25259 0)
(2.07617 0.885884 0)
(2.98876 0.0105864 0)
(3 1.02138e-09 0)
(3 -1.37048e-10 0)
(3 5.76495e-11 0)
(3 -4.02953e-12 0)
(3 3.9369e-15 0)
(3 -7.98129e-16 0)
(3 -1.69523e-15 0)
(3 -1.93311e-15 0)
(3 -1.98437e-15 0)
(3 -1.8223e-15 0)
(3 -1.90293e-15 0)
(3 -1.53699e-15 0)
(3 -1.9726e-15 0)
(3 -1.68234e-15 0)
(3 -2.2779e-15 0)
(1.59173 1.32406 0)
(1.51223 1.3282 0)
(1.79964 1.17555 0)
(2.46917 0.511958 0)
(3.00423 -0.00541972 0)
(3 -3.44179e-10 0)
(3 1.11701e-12 0)
(3 -2.52489e-13 0)
(3 2.33345e-14 0)
(3 -2.28327e-15 0)
(3 -2.46387e-15 0)
(3 -1.52218e-15 0)
(3 -2.20086e-15 0)
(3 -2.22557e-15 0)
(3 -2.3634e-15 0)
(3 -2.1919e-15 0)
(3 -1.59078e-15 0)
(3 -1.41497e-15 0)
(3 -9.59044e-16 0)
(3 -1.98851e-15 0)
(1.59453 1.31021 0)
(1.46424 1.36366 0)
(1.90529 1.04558 0)
(2.84539 0.132763 0)
(3 -7.95062e-09 0)
(3 -1.6633e-12 0)
(3 -1.21814e-14 0)
(3 2.03046e-15 0)
(3 -1.48652e-15 0)
(3 -2.30484e-15 0)
(3 -2.63587e-15 0)
(3 -2.12034e-15 0)
(3 -2.98883e-15 0)
(3 -2.97496e-15 0)
(3 -2.89305e-15 0)
(3 -3.03382e-15 0)
(3 -2.10777e-15 0)
(3 -1.26467e-15 0)
(3 -9.22293e-16 0)
(3 -1.61878e-15 0)
(1.60895 1.29547 0)
(1.48337 1.37573 0)
(2.17436 0.803959 0)
(3.01088 -0.00913063 0)
(3 1.17032e-08 0)
(3 -1.69117e-12 0)
(3 8.60905e-15 0)
(3 5.97922e-16 0)
(3 -6.19616e-16 0)
(3 -2.19819e-15 0)
(3 -2.40528e-15 0)
(3 -1.75631e-15 0)
(3 -2.9614e-15 0)
(3 -3.14189e-15 0)
(3 -3.28482e-15 0)
(3 -3.4528e-15 0)
(3 -2.48789e-15 0)
(3 -1.46827e-15 0)
(3 -1.44626e-15 0)
(3 -2.25091e-15 0)
(1.62291 1.27965 0)
(1.58981 1.30856 0)
(2.4408 0.52003 0)
(3 -1.44353e-12 0)
(3 -1.0956e-11 0)
(3 6.24438e-14 0)
(3 -4.7686e-16 0)
(3 2.55488e-16 0)
(3 -8.76431e-16 0)
(3 -1.86774e-15 0)
(3 -1.99581e-15 0)
(3 -2.42438e-15 0)
(3 -2.6656e-15 0)
(3 -2.92553e-15 0)
(3 -3.12507e-15 0)
(3 -3.08082e-15 0)
(3 -2.72929e-15 0)
(3 -2.3671e-15 0)
(3 -2.47565e-15 0)
(3 -2.40505e-15 0)
(1.63524 1.26321 0)
(1.62198 1.25643 0)
(2.6499 0.296545 0)
(3 5.24984e-13 0)
(3 4.78751e-15 0)
(3 -1.53879e-15 0)
(3 3.09525e-17 0)
(3 5.62976e-16 0)
(3 6.55174e-17 0)
(3 -5.39409e-16 0)
(3 -1.18234e-15 0)
(3 -1.58855e-15 0)
(3 -2.1966e-15 0)
(3 -2.79813e-15 0)
(3 -2.937e-15 0)
(3 -3.15993e-15 0)
(3 -2.63164e-15 0)
(3 -3.45054e-15 0)
(3 -3.30846e-15 0)
(3 -2.55386e-15 0)
(1.6547 1.24471 0)
(1.82176 1.10236 0)
(2.87273 0.0926004 0)
(3 -5.38769e-13 0)
(3 -2.54279e-15 0)
(3 -1.80228e-15 0)
(3 -9.55793e-16 0)
(3 3.6791e-16 0)
(3 6.00359e-17 0)
(3 1.96237e-16 0)
(3 -1.69709e-16 0)
(3 -8.39406e-17 0)
(3 -1.03073e-15 0)
(3 -1.47484e-15 0)
(3 -1.72382e-15 0)
(3 -1.53606e-15 0)
(3 -1.6688e-15 0)
(3 -3.02461e-15 0)
(3 -3.3212e-15 0)
(3 -3.04369e-15 0)
(1.68327 1.19296 0)
(1.91055 0.972222 0)
(3 2.39993e-07 0)
(3 -2.02069e-15 0)
(3 -1.7291e-15 0)
(3 -1.11198e-15 0)
(3 -3.73478e-16 0)
(3 -5.32061e-16 0)
(3 -2.10689e-16 0)
(3 3.31888e-16 0)
(3 4.38226e-16 0)
(3 3.49824e-16 0)
(3 -9.75262e-17 0)
(3 -3.87916e-16 0)
(3 -6.50254e-16 0)
(3 -7.19415e-16 0)
(3 -7.9285e-16 0)
(3 -1.254e-15 0)
(3 -1.58611e-15 0)
(3 -1.68653e-15 0)
(1.68714 1.16539 0)
(2.0331 0.834481 0)
(3 -2.45454e-15 0)
(3 -1.94783e-15 0)
(3 -1.37414e-15 0)
(3 -4.36721e-17 0)
(3 4.14218e-17 0)
(3 -6.83172e-17 0)
(3 -7.2671e-16 0)
(3 -4.30489e-16 0)
(3 -2.04909e-16 0)
(3 2.86166e-16 0)
(3 2.31085e-16 0)
(3 3.08786e-17 0)
(3 -3.17866e-16 0)
(3 -2.34032e-16 0)
(3 -3.53214e-16 0)
(3 -7.81102e-16 0)
(3 -8.65758e-16 0)
(3 -1.60023e-15 0)
(1.74367 1.0987 0)
(2.21181 0.657201 0)
(3 -1.99617e-15 0)
(3 -6.19465e-16 0)
(3 -5.14192e-16 0)
(3 -8.37866e-16 0)
(3 -1.65947e-15 0)
(3 -1.84957e-15 0)
(3 -2.05686e-15 0)
(3 -1.93725e-15 0)
(3 -1.7369e-15 0)
(3 -1.36586e-15 0)
(3 -6.77439e-16 0)
(3 -2.0008e-16 0)
(3 1.94468e-16 0)
(3 3.30443e-16 0)
(3 5.84063e-16 0)
(3 7.59774e-16 0)
(3 9.49082e-16 0)
(3 6.1515e-16 0)
(1.82563 1.01404 0)
(2.43326 0.455872 0)
(3 5.24749e-16 0)
(3 -6.13212e-16 0)
(3 -8.95664e-16 0)
(3 -1.1425e-15 0)
(3 -1.25957e-15 0)
(3 -1.35255e-15 0)
(3 -1.80545e-15 0)
(3 -2.01139e-15 0)
(3 -2.04624e-15 0)
(3 -2.09746e-15 0)
(3 -1.79602e-15 0)
(3 -1.5179e-15 0)
(3 -1.38246e-15 0)
(3 -1.53506e-15 0)
(3 -1.54898e-15 0)
(3 -1.12207e-15 0)
(3 -6.18604e-16 0)
(3 -2.06205e-16 0)
(1.94664 0.877624 0)
(2.71073 0.20916 0)
(3 -1.24186e-15 0)
(3 -8.50813e-16 0)
(3 -7.72793e-16 0)
(3 -9.20942e-16 0)
(3 -1.01685e-15 0)
(3 -1.05554e-15 0)
(3 -1.78677e-15 0)
(3 -1.9108e-15 0)
(3 -1.81318e-15 0)
(3 -1.41498e-15 0)
(3 -1.72369e-15 0)
(3 -1.92766e-15 0)
(3 -1.9119e-15 0)
(3 -2.07815e-15 0)
(3 -2.30787e-15 0)
(3 -2.5548e-15 0)
(3 -2.64666e-15 0)
(3 -2.21764e-15 0)
(2.13931 0.660518 0)
(2.99107 0.000157052 0)
(3 -6.70484e-16 0)
(3 -1.08049e-15 0)
(3 -8.54534e-16 0)
(3 -1.07763e-15 0)
(3 -1.28426e-15 0)
(3 -1.30845e-15 0)
(3 -1.43032e-15 0)
(3 -1.66116e-15 0)
(3 -1.65107e-15 0)
(3 -1.43804e-15 0)
(3 -9.95006e-16 0)
(3 -9.08672e-16 0)
(3 -1.19783e-15 0)
(3 -1.20352e-15 0)
(3 -1.35838e-15 0)
(3 -1.42221e-15 0)
(3 -1.66246e-15 0)
(3 -1.86284e-15 0)
(2.00576 0.37136 0)
(2.99994 -1.14454e-05 0)
(3 -7.83555e-16 0)
(3 -1.21754e-15 0)
(3 -5.45441e-16 0)
(3 -4.24812e-16 0)
(3 -5.44688e-16 0)
(3 -3.41935e-16 0)
(3 -2.6577e-16 0)
(3 -2.41572e-16 0)
(3 -3.2337e-16 0)
(3 -2.29648e-16 0)
(3 2.41676e-16 0)
(3 4.72519e-16 0)
(3 4.38394e-16 0)
(3 2.92566e-16 0)
(3 2.64103e-16 0)
(3 9.98614e-17 0)
(3 -7.63808e-17 0)
(3 -1.49987e-16 0)
(2.0029 -0.37288 0)
(2.99993 1.23552e-05 0)
(3 -1.37256e-15 0)
(3 -5.04185e-16 0)
(3 -5.60516e-16 0)
(3 -3.85164e-16 0)
(3 -2.24577e-17 0)
(3 1.73351e-16 0)
(3 3.4355e-16 0)
(3 2.34406e-16 0)
(3 -1.78718e-16 0)
(3 -2.0925e-16 0)
(3 -9.25229e-17 0)
(3 2.11924e-17 0)
(3 1.39131e-16 0)
(3 1.66336e-16 0)
(3 2.33227e-16 0)
(3 2.55852e-16 0)
(3 4.97899e-16 0)
(3 4.70779e-16 0)
(2.12495 -0.649597 0)
(2.99184 -0.000171873 0)
(3 -1.80452e-16 0)
(3 -1.12686e-16 0)
(3 -9.39557e-17 0)
(3 -1.75267e-16 0)
(3 -1.15527e-16 0)
(3 2.0293e-16 0)
(3 8.12238e-17 0)
(3 -3.05925e-16 0)
(3 -1.19206e-15 0)
(3 -1.10203e-15 0)
(3 -8.51465e-16 0)
(3 -8.59404e-16 0)
(3 -8.97363e-16 0)
(3 -8.31902e-16 0)
(3 -8.73723e-16 0)
(3 -5.76018e-16 0)
(3 -3.06456e-16 0)
(3 -1.53184e-16 0)
(1.95795 -0.876128 0)
(2.72191 -0.202316 0)
(3 -7.86806e-16 0)
(3 -9.23551e-16 0)
(3 -1.02877e-15 0)
(3 -1.27792e-15 0)
(3 -1.37332e-15 0)
(3 -1.17098e-15 0)
(3 -6.85114e-16 0)
(3 -9.13265e-16 0)
(3 -8.24528e-16 0)
(3 -3.86305e-16 0)
(3 -3.98131e-16 0)
(3 -6.3936e-16 0)
(3 -8.14578e-16 0)
(3 -8.12143e-16 0)
(3 -5.56953e-16 0)
(3 -2.35559e-16 0)
(3 3.13909e-16 0)
(3 9.73741e-16 0)
(1.82594 -1.01297 0)
(2.43438 -0.452577 0)
(3 -2.2603e-15 0)
(3 -1.76985e-15 0)
(3 -1.90734e-15 0)
(3 -1.77214e-15 0)
(3 -1.60297e-15 0)
(3 -1.29037e-15 0)
(3 -1.12607e-15 0)
(3 -1.37156e-15 0)
(3 -1.30678e-15 0)
(3 -8.62183e-16 0)
(3 -4.47536e-16 0)
(3 -3.02653e-16 0)
(3 -5.52522e-17 0)
(3 3.67991e-16 0)
(3 7.73721e-16 0)
(3 7.50862e-16 0)
(3 1.1235e-15 0)
(3 1.20856e-15 0)
(1.74317 -1.09949 0)
(2.20947 -0.657944 0)
(3 3.01011e-16 0)
(3 -4.18513e-16 0)
(3 -7.53122e-16 0)
(3 -7.99957e-16 0)
(3 -6.21082e-16 0)
(3 -3.2737e-16 0)
(3 -4.00809e-16 0)
(3 -6.30178e-16 0)
(3 -2.41902e-16 0)
(3 4.32566e-16 0)
(3 7.09074e-16 0)
(3 5.43501e-16 0)
(3 6.21012e-16 0)
(3 1.32443e-15 0)
(3 9.39074e-16 0)
(3 1.74377e-15 0)
(3 1.77885e-15 0)
(3 1.53065e-15 0)
(1.68397 -1.16805 0)
(2.02933 -0.837717 0)
(3 2.13652e-16 0)
(3 -5.3631e-16 0)
(3 -8.47015e-16 0)
(3 -9.12493e-16 0)
(3 -3.56154e-16 0)
(3 1.01124e-16 0)
(3 4.40851e-16 0)
(3 8.10607e-16 0)
(3 1.71511e-15 0)
(3 1.36519e-15 0)
(3 1.13063e-15 0)
(3 1.66133e-15 0)
(3 2.01246e-15 0)
(3 1.78768e-15 0)
(3 2.13838e-15 0)
(3 2.57898e-15 0)
(3 2.78618e-15 0)
(3 2.91871e-15 0)
(1.68654 -1.19237 0)
(1.91222 -0.972991 0)
(3 -3.07838e-07 0)
(3 -5.01549e-16 0)
(3 -8.265e-16 0)
(3 -7.70748e-16 0)
(3 8.65438e-17 0)
(3 3.08672e-16 0)
(3 5.89069e-16 0)
(3 7.8321e-16 0)
(3 7.68387e-16 0)
(3 1.30273e-15 0)
(3 1.91308e-15 0)
(3 2.19767e-15 0)
(3 2.47989e-15 0)
(3 2.52584e-15 0)
(3 2.06867e-15 0)
(3 2.09911e-15 0)
(3 1.64359e-15 0)
(3 1.63368e-15 0)
(1.65456 -1.24502 0)
(1.82473 -1.10135 0)
(2.87364 -0.0914359 0)
(3 3.29865e-13 0)
(3 -4.09239e-16 0)
(3 -4.23502e-16 0)
(3 2.33749e-16 0)
(3 8.43366e-16 0)
(3 1.69033e-15 0)
(3 9.33005e-16 0)
(3 1.18496e-15 0)
(3 8.65899e-16 0)
(3 1.18484e-15 0)
(3 1.27588e-15 0)
(3 1.99401e-15 0)
(3 1.03331e-15 0)
(3 6.80367e-16 0)
(3 5.01353e-16 0)
(3 1.5944e-17 0)
(3 -3.29627e-16 0)
(1.63428 -1.26283 0)
(1.61694 -1.25848 0)
(2.64577 -0.299954 0)
(3 -3.18988e-13 0)
(3 -4.84996e-15 0)
(3 4.14302e-16 0)
(3 6.88239e-16 0)
(3 8.72511e-16 0)
(3 1.66242e-15 0)
(3 1.06365e-15 0)
(3 1.27505e-15 0)
(3 9.14708e-16 0)
(3 3.74741e-16 0)
(3 6.65228e-16 0)
(3 5.97311e-16 0)
(3 6.87195e-17 0)
(3 7.34866e-17 0)
(3 -3.74293e-16 0)
(3 -1.28328e-15 0)
(3 -1.22726e-15 0)
(1.62156 -1.27915 0)
(1.58725 -1.31011 0)
(2.43579 -0.526488 0)
(3 9.20042e-13 0)
(3 6.4319e-12 0)
(3 -1.96757e-14 0)
(3 6.87084e-16 0)
(3 2.09432e-15 0)
(3 1.64002e-15 0)
(3 1.06304e-15 0)
(3 1.60306e-15 0)
(3 1.18598e-15 0)
(3 5.24875e-16 0)
(3 1.50887e-16 0)
(3 -9.09815e-16 0)
(3 -8.70626e-16 0)
(3 -7.31648e-16 0)
(3 -1.31731e-15 0)
(3 -1.67825e-15 0)
(3 -2.25983e-15 0)
(1.6082 -1.29517 0)
(1.48456 -1.37279 0)
(2.17908 -0.80218 0)
(3.01082 0.00910926 0)
(3 -6.85791e-09 0)
(3 2.72993e-13 0)
(3 1.17517e-14 0)
(3 1.32487e-15 0)
(3 6.4227e-16 0)
(3 1.13676e-15 0)
(3 1.30019e-15 0)
(3 5.81541e-16 0)
(3 1.8462e-16 0)
(3 1.33308e-16 0)
(3 -9.20577e-16 0)
(3 -1.66647e-15 0)
(3 -1.77875e-15 0)
(3 -1.70398e-15 0)
(3 -2.23497e-15 0)
(3 -2.03983e-15 0)
(1.59432 -1.31027 0)
(1.46539 -1.36455 0)
(1.90414 -1.04596 0)
(2.8447 -0.132445 0)
(3 4.62382e-09 0)
(3 1.14053e-12 0)
(3 -5.98622e-14 0)
(3 8.90687e-16 0)
(3 3.32426e-16 0)
(3 3.48088e-16 0)
(3 1.17738e-16 0)
(3 -1.79152e-16 0)
(3 2.54616e-16 0)
(3 -4.49628e-17 0)
(3 -1.21666e-15 0)
(3 -2.01407e-15 0)
(3 -2.1129e-15 0)
(3 -2.12054e-15 0)
(3 -1.72683e-15 0)
(3 -1.43127e-15 0)
(1.59207 -1.32345 0)
(1.5109 -1.3288 0)
(1.79872 -1.17509 0)
(2.46821 -0.512279 0)
(3.00402 0.00515497 0)
(3 3.53133e-10 0)
(3 -9.89061e-13 0)
(3 1.12819e-13 0)
(3 -1.15987e-14 0)
(3 -1.97328e-17 0)
(3 -2.39008e-16 0)
(3 3.81678e-16 0)
(3 5.17583e-16 0)
(3 -5.42115e-16 0)
(3 -1.31578e-15 0)
(3 -1.28747e-15 0)
(3 -1.75399e-15 0)
(3 -2.18174e-15 0)
(3 -1.00321e-15 0)
(3 -4.0339e-16 0)
(1.58243 -1.30093 0)
(1.55108 -1.29317 0)
(1.65531 -1.2515 0)
(2.08561 -0.880036 0)
(2.99176 -0.00769733 0)
(3 -1.10725e-09 0)
(3 1.27708e-10 0)
(3 -4.73698e-11 0)
(3 2.7751e-12 0)
(3 -1.17186e-14 0)
(3 7.43985e-17 0)
(3 9.39222e-16 0)
(3 -1.39633e-16 0)
(3 -9.94534e-16 0)
(3 -8.09753e-16 0)
(3 -3.14432e-16 0)
(3 -1.77025e-15 0)
(3 -2.19129e-15 0)
(3 2.19811e-16 0)
(3 1.59547e-15 0)
(1.58533 -1.278 0)
(1.57821 -1.27119 0)
(1.62901 -1.25977 0)
(1.79698 -1.13981 0)
(2.71982 -0.244027 0)
(3 1.42911e-09 0)
(3 -1.48954e-08 0)
(3 1.29981e-08 0)
(3 -5.56896e-10 0)
(3 -2.55356e-12 0)
(3 1.28354e-13 0)
(3 -1.18852e-15 0)
(3 -4.95273e-16 0)
(3 -1.00582e-15 0)
(3 -2.23631e-16 0)
(3 2.18585e-16 0)
(3 -1.28801e-15 0)
(3 -8.3016e-16 0)
(3 7.81237e-16 0)
(3 2.19604e-15 0)
(1.58568 -1.26633 0)
(1.59678 -1.26281 0)
(1.6273 -1.24516 0)
(1.76205 -1.20312 0)
(2.3444 -0.658543 0)
(3.01997 0.0165169 0)
(2.99974 -0.000183299 0)
(3 4.39273e-06 0)
(3 -8.38022e-08 0)
(3 9.30448e-10 0)
(3 -4.40505e-12 0)
(3 2.44769e-14 0)
(3 3.59462e-16 0)
(3 4.39773e-16 0)
(3 -2.5373e-16 0)
(3 3.26688e-16 0)
(3 -5.01791e-16 0)
(3 3.87336e-16 0)
(3 1.62849e-15 0)
(3 1.7101e-15 0)
(1.58386 -1.25249 0)
(1.60673 -1.25565 0)
(1.62581 -1.25419 0)
(1.62813 -1.27167 0)
(1.87985 -1.07139 0)
(2.77492 -0.195576 0)
(3.00467 0.0023318 0)
(2.99991 -9.0456e-05 0)
(3 9.04945e-07 0)
(3 -9.25182e-10 0)
(3 6.59427e-13 0)
(3 7.51527e-17 0)
(3 1.90278e-15 0)
(3 1.44911e-15 0)
(3 6.48653e-16 0)
(3 -2.16871e-16 0)
(3 -6.11194e-16 0)
(3 8.04849e-16 0)
(3 1.78792e-15 0)
(3 1.99407e-15 0)
(1.5849 -1.24859 0)
(1.6045 -1.25454 0)
(1.61229 -1.26089 0)
(1.58918 -1.28426 0)
(1.71785 -1.20245 0)
(2.17587 -0.824131 0)
(2.98415 -0.00691259 0)
(3.00068 0.00116659 0)
(3 -7.3115e-07 0)
(3 -5.91523e-11 0)
(3 8.88965e-13 0)
(3 -6.69664e-15 0)
(3 2.99196e-15 0)
(3 1.31608e-15 0)
(3 1.09999e-15 0)
(3 1.67788e-15 0)
(3 2.38049e-16 0)
(3 8.94224e-16 0)
(3 2.81939e-15 0)
(3 2.49399e-15 0)
(1.58408 -1.24997 0)
(1.59336 -1.26213 0)
(1.59586 -1.27951 0)
(1.59278 -1.27983 0)
(1.6545 -1.24932 0)
(1.69179 -1.24503 0)
(2.27142 -0.740651 0)
(2.99451 -0.0197442 0)
(3 -5.30918e-08 0)
(3 -9.07747e-11 0)
(3 3.31172e-12 0)
(3 -2.60922e-14 0)
(3 7.7696e-16 0)
(3 1.7066e-15 0)
(3 1.1917e-15 0)
(3 2.02451e-15 0)
(3 1.07825e-16 0)
(3 5.35783e-16 0)
(3 2.97159e-15 0)
(3 2.46396e-15 0)
(1.57723 -1.25937 0)
(1.58204 -1.26982 0)
(1.58478 -1.27836 0)
(1.59275 -1.26987 0)
(1.61657 -1.25569 0)
(1.61069 -1.26982 0)
(1.90252 -1.16366 0)
(2.95673 -0.354434 0)
(3.31538 0.53774 0)
(3 2.08101e-11 0)
(3 -8.15734e-11 0)
(3 1.66847e-13 0)
(3 3.95063e-14 0)
(3 4.98314e-14 0)
(3 3.39862e-15 0)
(3 2.64469e-15 0)
(3 1.07555e-16 0)
(3 2.95123e-15 0)
(3 3.6592e-15 0)
(3 4.2948e-15 0)
(1.16433 -0.76125 0)
(1.82432 -1.15929 0)
(1.83795 -1.15542 0)
(1.73423 -1.19829 0)
(1.71084 -1.20124 0)
(1.66477 -1.24869 0)
(1.66923 -1.21867 0)
(1.73526 -1.17052 0)
(1.76743 -1.22655 0)
(1.79489 -1.13588 0)
(2.27144 -0.734596 0)
(2.85908 -0.206509 0)
(3.09866 0.0290838 0)
(3.02122 0.0126717 0)
(3.00444 0.0054444 0)
(3.0018 0.00297354 0)
(3.00006 0.000580164 0)
(2.99998 2.3078e-05 0)
(2.99999 -1.43254e-05 0)
(3 -5.90582e-06 0)
(1.01025 -0.0340473 0)
(1.9295 -0.757581 0)
(2.09962 -0.857488 0)
(1.98661 -0.981247 0)
(1.96227 -0.98178 0)
(1.86656 -1.08572 0)
(1.797 -1.13948 0)
(1.76825 -1.1494 0)
(1.76475 -1.16481 0)
(1.74003 -1.20369 0)
(1.71493 -1.197 0)
(1.85597 -1.07147 0)
(2.0926 -0.887489 0)
(2.50107 -0.580246 0)
(2.98635 -0.138303 0)
(3.07348 0.0287786 0)
(3.00812 0.0076587 0)
(3.00291 0.00382875 0)
(3.00122 0.00219188 0)
(3.00008 0.000486465 0)
(1.0344 0.00997937 0)
(1.8593 -0.0100341 0)
(2.23483 -0.0823619 0)
(2.22538 -0.468782 0)
(2.1895 -0.654452 0)
(2.12518 -0.787415 0)
(2.05084 -0.894435 0)
(1.96831 -0.977453 0)
(1.91174 -1.04208 0)
(1.84757 -1.13076 0)
(1.78601 -1.16039 0)
(1.7888 -1.15373 0)
(1.80846 -1.13291 0)
(1.85098 -1.08834 0)
(2.04232 -0.950515 0)
(2.26134 -0.827587 0)
(2.6659 -0.502984 0)
(3.03691 -0.0914824 0)
(3.05539 0.0238542 0)
(3.00402 0.00465494 0)
(1.27007 0.654976 0)
(1.88707 0.57414 0)
(2.3219 0.153462 0)
(2.30899 0.152992 0)
(2.31937 0.0253197 0)
(2.34829 -0.241862 0)
(2.26998 -0.533147 0)
(2.20158 -0.679682 0)
(2.13759 -0.772129 0)
(2.08197 -0.904941 0)
(1.96979 -1.0102 0)
(1.91502 -1.0611 0)
(1.88597 -1.07664 0)
(1.8709 -1.08562 0)
(1.87342 -1.05428 0)
(1.89722 -1.0472 0)
(1.96094 -1.02111 0)
(2.16273 -0.904681 0)
(2.38113 -0.794051 0)
(2.77951 -0.441454 0)
(1.09371 1.06614 0)
(1.36866 1.4108 0)
(2.18515 0.278164 0)
(2.45303 0.547931 0)
(2.4585 0.322586 0)
(2.45913 0.247959 0)
(2.43626 -0.00553637 0)
(2.39296 -0.208942 0)
(2.34132 -0.360205 0)
(2.31129 -0.529107 0)
(2.22245 -0.697046 0)
(2.14445 -0.818754 0)
(2.08409 -0.893209 0)
(2.02295 -0.960863 0)
(1.9817 -0.977598 0)
(1.94933 -0.997736 0)
(1.95282 -1.01959 0)
(1.96882 -0.996546 0)
(1.99544 -0.994926 0)
(2.07217 -0.976574 0)
(0.954987 1.26239 0)
(1.51739 1.50124 0)
(1.88263 1.05547 0)
(2.10712 1.07377 0)
(2.52585 0.441728 0)
(2.56025 0.414121 0)
(2.58798 0.326078 0)
(2.54247 -0.00682287 0)
(2.50373 -0.12198 0)
(2.47126 -0.300087 0)
(2.4195 -0.468157 0)
(2.33384 -0.631014 0)
(2.2762 -0.721484 0)
(2.20252 -0.811871 0)
(2.15563 -0.83332 0)
(2.11611 -0.843469 0)
(2.07672 -0.878654 0)
(2.07169 -0.880315 0)
(2.03976 -0.921104 0)
(2.05897 -0.951624 0)
(1.12999 1.52878 0)
(1.54419 1.76756 0)
(1.88321 1.56448 0)
(1.96861 1.16082 0)
(2.02116 1.18657 0)
(2.34935 0.802957 0)
(2.56408 0.493695 0)
(2.63331 0.259613 0)
(2.59317 0.0393116 0)
(2.57537 -0.059409 0)
(2.54051 -0.216247 0)
(2.49611 -0.339421 0)
(2.45288 -0.422816 0)
(2.40621 -0.490076 0)
(2.3535 -0.537432 0)
(2.32417 -0.555592 0)
(2.26835 -0.617875 0)
(2.21738 -0.692926 0)
(2.15833 -0.781091 0)
(2.13089 -0.800942 0)
(1.34036 1.79017 0)
(1.53487 2.12478 0)
(1.7013 1.92959 0)
(1.84823 1.47155 0)
(2.0012 1.55602 0)
(2.24333 1.24259 0)
(2.36439 1.1624 0)
(2.47383 0.969491 0)
(2.52294 0.657428 0)
(2.54514 0.530423 0)
(2.56828 0.326804 0)
(2.56571 0.159279 0)
(2.55569 0.0164956 0)
(2.54483 -0.102997 0)
(2.48638 -0.271186 0)
(2.47446 -0.351232 0)
(2.39673 -0.50588 0)
(2.34464 -0.567977 0)
(2.29954 -0.598836 0)
(2.31361 -0.542878 0)
(1.44868 1.87646 0)
(1.62704 2.29317 0)
(1.71406 2.0657 0)
(1.79546 1.92797 0)
(1.92855 1.84221 0)
(2.12746 1.44867 0)
(2.23765 1.39968 0)
(2.357 1.21301 0)
(2.42298 1.0382 0)
(2.48815 0.85039 0)
(2.57718 0.655063 0)
(2.60972 0.410194 0)
(2.64041 0.214093 0)
(2.64442 0.0276484 0)
(2.58992 -0.187331 0)
(2.56242 -0.276092 0)
(2.51574 -0.370387 0)
(2.5062 -0.281264 0)
(2.45016 -0.32946 0)
(2.47987 -0.261869 0)
(1.41875 1.83304 0)
(1.7067 2.29634 0)
(1.89542 2.20471 0)
(1.8841 2.06589 0)
(1.98024 1.94652 0)
(2.18433 1.57851 0)
(2.3087 1.54065 0)
(2.46744 1.30395 0)
(2.58435 1.17928 0)
(2.6526 0.85088 0)
(2.72022 0.65174 0)
(2.71647 0.400692 0)
(2.72435 0.281498 0)
(2.70801 0.129268 0)
(2.68925 0.0416401 0)
(2.66197 0.0144757 0)
(2.63484 0.0129212 0)
(2.62696 0.0533064 0)
(2.55766 -0.0953673 0)
(2.57631 -0.0982201 0)
(1.27556 1.67137 0)
(1.7156 2.27678 0)
(2.06756 2.34583 0)
(2.19914 2.31536 0)
(2.32729 2.07241 0)
(2.45531 1.75166 0)
(2.59725 1.68088 0)
(2.74267 1.28827 0)
(2.77509 1.20439 0)
(2.78285 0.96046 0)
(2.78606 0.957151 0)
(2.76717 0.731566 0)
(2.73585 0.689349 0)
(2.73144 0.579354 0)
(2.71258 0.487674 0)
(2.69108 0.414776 0)
(2.69522 0.362641 0)
(2.69133 0.244985 0)
(2.65541 0.0485856 0)
(2.61878 -0.0463606 0)
(1.12183 1.43278 0)
(1.55083 2.12135 0)
(2.0239 2.32247 0)
(2.14303 2.28871 0)
(2.29409 2.17676 0)
(2.48426 2.03864 0)
(2.5665 1.6912 0)
(2.55672 1.49489 0)
(2.56349 1.47779 0)
(2.5784 1.41828 0)
(2.57825 1.36302 0)
(2.6194 1.18033 0)
(2.61688 1.03198 0)
(2.66766 0.939856 0)
(2.68466 0.75987 0)
(2.72402 0.628111 0)
(2.76028 0.478504 0)
(2.75797 0.26105 0)
(2.72794 0.173723 0)
(2.6758 0.150011 0)
(1.1089 1.2985 0)
(1.39786 1.9077 0)
(1.75572 2.22671 0)
(2.00473 2.29094 0)
(2.09314 2.27631 0)
(2.1878 2.21788 0)
(2.29773 1.84913 0)
(2.28774 1.82865 0)
(2.29639 1.74323 0)
(2.31603 1.66091 0)
(2.41543 1.47336 0)
(2.53492 1.37178 0)
(2.58836 1.15048 0)
(2.7149 1.05918 0)
(2.7422 0.811105 0)
(2.79484 0.662875 0)
(2.79891 0.524007 0)
(2.78793 0.388131 0)
(2.7324 0.49412 0)
(2.69328 0.46108 0)
(1.189 1.24027 0)
(1.3843 1.72357 0)
(1.51841 2.13718 0)
(1.68907 2.33033 0)
(1.77882 2.34273 0)
(1.90093 2.22197 0)
(2.03192 2.0361 0)
(2.05934 1.93067 0)
(2.1375 1.78965 0)