/*--------------------------------*- C++ -*----------------------------------*\
  =========                 |
  \\      /  F ield         | OpenFOAM: The Open Source CFD Toolbox
   \\    /   O peration     | Website:  https://openfoam.org
    \\  /    A nd           | Version:  7
     \\/     M anipulation  |
\*---------------------------------------------------------------------------*/
FoamFile
{
    version     2.0;
    format      ascii;
    class       volScalarField;
    location    "4.4";
    object      p;
}
// * * * * * * * * * * * * * * * * * * * * * * * * * * * * * * * * * * * * * //

dimensions      [1 -1 -2 0 0 0 0];

internalField   nonuniform List<scalar> 
3700
(
0.167951
0.260085
0.332701
0.363454
0.372262
0.36797
0.359188
0.36423
0.399417
0.410829
0.431246
0.454041
0.454651
0.467504
0.493389
0.498854
0.508149
0.526574
0.525678
0.535375
0.100164
0.114307
0.128718
0.112636
0.0980077
0.0842959
0.0718366
0.0722677
0.0870195
0.11882
0.160834
0.187454
0.179791
0.175198
0.179773
0.190763
0.212144
0.225904
0.225055
0.22563
0.0844262
0.0877272
0.083458
0.0691391
0.0515524
0.0440961
0.048631
0.0559588
0.0636535
0.0733723
0.0862985
0.0950193
0.101285
0.103866
0.103092
0.102966
0.103941
0.105968
0.112028
0.127676
0.0771177
0.0813436
0.0789421
0.0603117
0.0426096
0.0439087
0.0488647
0.054897
0.0623052
0.0733341
0.0876898
0.100285
0.119078
0.137532
0.146712
0.154987
0.153474
0.150523
0.14949
0.162802
0.068581
0.0652712
0.0608888
0.0477646
0.0441522
0.0518714
0.0601399
0.0615312
0.0677941
0.078122
0.0869315
0.098221
0.118632
0.145712
0.167162
0.18801
0.200368
0.207535
0.206459
0.211713
0.0567586
0.051466
0.0515026
0.0471268
0.0525127
0.0640104
0.0764913
0.0837784
0.095546
0.113091
0.108312
0.112344
0.121083
0.144405
0.17485
0.206162
0.23648
0.264434
0.287832
0.311459
0.043383
0.0445055
0.0511185
0.0524839
0.0567284
0.0710879
0.0844209
0.101218
0.129944
0.155006
0.158235
0.167604
0.168619
0.177984
0.191041
0.219915
0.261037
0.312234
0.355578
0.423186
0.0339813
0.0428019
0.052137
0.0544183
0.0588255
0.0745281
0.0848485
0.105626
0.148318
0.180047
0.209719
0.231858
0.25385
0.27695
0.29101
0.310601
0.331525
0.378353
0.436585
0.551259
0.0281349
0.041843
0.0536943
0.0544396
0.0586317
0.0810064
0.0849589
0.103455
0.149448
0.194665
0.241963
0.279482
0.331054
0.372741
0.413264
0.451988
0.48647
0.526166
0.576846
0.725302
0.026028
0.0420295
0.0518638
0.0539973
0.0685448
0.098625
0.102636
0.128605
0.161864
0.205592
0.266007
0.322501
0.398795
0.461127
0.530535
0.602872
0.673265
0.735642
0.813563
0.950143
0.0281285
0.039536
0.0477738
0.0609523
0.0924372
0.126519
0.15576
0.211161
0.264762
0.318235
0.376388
0.438747
0.511903
0.584968
0.667994
0.775276
0.894451
1.00033
1.16645
1.12737
0.034185
0.0348977
0.0472927
0.0787024
0.11727
0.154582
0.211144
0.291996
0.385366
0.495665
0.587659
0.678287
0.764473
0.844839
0.922878
1.03218
1.18472
1.33411
1.56349
1.52294
0.0378753
0.0330445
0.0527613
0.0867693
0.122649
0.155338
0.242516
0.338281
0.471303
0.648502
0.794455
0.94023
1.07476
1.19659
1.32742
1.48006
1.64423
1.81775
2.09312
2.09309
0.0385517
0.0352078
0.0486659
0.0717284
0.115094
0.154113
0.262368
0.407826
0.618456
0.856873
1.07855
1.28474
1.48024
1.65992
1.88058
2.10787
2.33091
2.56816
2.79814
3.00699
0.0317639
0.0346277
0.0443665
0.061419
0.108755
0.29896
0.54348
0.820312
1.15436
1.45451
1.70771
1.93595
2.16116
2.39363
2.69476
2.97323
3.24022
3.48602
3.64821
3.7874
0.0190929
0.0306481
0.0531643
0.100488
0.302613
0.748702
1.14872
1.55081
1.98942
2.3609
2.63621
2.90646
3.17666
3.46373
3.78279
3.98007
4.08782
4.12682
4.03516
3.91339
0.0125625
0.0307782
0.104685
0.391872
0.928956
1.48659
2.02417
2.58843
3.16202
3.52555
3.7634
4.00634
4.21728
4.37698
4.47043
4.39625
4.17952
3.64902
2.79638
1.89746
0.0284978
0.137508
0.506687
1.20012
2.12709
2.90181
3.54674
4.21037
4.7544
4.8352
4.74879
4.74962
4.70465
4.53222
4.01703
3.05624
2.08413
1.33068
1.01846
0.992799
0.302729
0.867418
2.00283
3.20896
4.16537
4.83237
5.44126
5.9098
5.75453
5.28716
4.85218
4.31188
3.38855
2.31976
1.42211
1.02875
0.989437
0.994942
0.997314
0.999433
2.31796
3.64661
4.90218
5.69994
6.19069
6.46275
6.57988
6.26389
4.54924
3.20681
2.36437
1.55438
1.07623
0.987209
0.992858
0.996277
0.999167
0.999975
1.00002
1.00001
6.9633
6.92397
6.8883
6.87067
6.94856
6.82698
6.00719
2.33194
0.640485
1
1
1
1
1
1
1
1
1
1
1
6.94335
6.89448
6.82204
6.73154
6.71316
5.79397
2.60172
1.0176
1
1
1
1
1
1
1
1
1
1
1
1
6.82146
6.86368
6.83485
6.67784
6.39978
3.33673
1.03608
0.99936
1
1
1
1
1
1
1
1
1
1
1
1
6.7095
6.84188
6.83812
6.56406
4.74141
1.39716
0.994396
1.0001
1
1
1
1
1
1
1
1
1
1
1
1
6.55384
6.83627
6.82811
6.02636
2.78203
0.974527
1.00036
0.999994
1
1
1
1
1
1
1
1
1
1
1
1
6.42056
6.7878
6.83138
5.03997
1.42661
1
1
1
1
1
1
1
1
1
1
1
1
1
1
1
6.35533
6.66145
6.6393
3.48981
0.974038
1
1
1
1
1
1
1
1
1
1
1
1
1
1
1
6.46615
6.60805
6.02876
2.09016
0.999999
1
1
1
1
1
1
1
1
1
1
1
1
1
1
1
6.96842
6.71847
4.9349
1.16545
1
1
1
1
1
1
1
1
1
1
1
1
1
1
1
1
7.20766
6.36564
3.50799
0.987904
1
1
1
1
1
1
1
1
1
1
1
1
1
1
1
1
7.40245
5.98803
2.3251
1
1
1
1
1
1
1
1
1
1
1
1
1
1
1
1
1
7.50061
5.41497
1.60328
1
1
1
1
1
1
1
1
1
1
1
1
1
1
1
1
1
7.54695
4.74734
1.17455
1
1
1
1
1
1
1
1
1
1
1
1
1
1
1
1
1
7.43204
3.97245
1.00396
1
1
1
1
1
1
1
1
1
1
1
1
1
1
1
1
1
7.18429
3.14912
1
1
1
1
1
1
1
1
1
1
1
1
1
1
1
1
1
1
6.87559
2.55057
1
1
1
1
1
1
1
1
1
1
1
1
1
1
1
1
1
1
6.69817
1.94636
1
1
1
1
1
1
1
1
1
1
1
1
1
1
1
1
1
1
6.34483
1.3792
1
1
1
1
1
1
1
1
1
1
1
1
1
1
1
1
1
1
5.6518
1.0059
1
1
1
1
1
1
1
1
1
1
1
1
1
1
1
1
1
1
4.64136
1.00005
1
1
1
1
1
1
1
1
1
1
1
1
1
1
1
1
1
1
4.64672
1.00005
1
1
1
1
1
1
1
1
1
1
1
1
1
1
1
1
1
1
5.64602
1.00576
1
1
1
1
1
1
1
1
1
1
1
1
1
1
1
1
1
1
6.33912
1.37509
1
1
1
1
1
1
1
1
1
1
1
1
1
1
1
1
1
1
6.70736
1.94588
1
1
1
1
1
1
1
1
1
1
1
1
1
1
1
1
1
1
6.87871
2.56131
1
1
1
1
1
1
1
1
1
1
1
1
1
1
1
1
1
1
7.17261
3.15186
1
1
1
1
1
1
1
1
1
1
1
1
1
1
1
1
1
1
7.43325
3.96455
1.003
1
1
1
1
1
1
1
1
1
1
1
1
1
1
1
1
1
7.55074
4.74168
1.17264
1
1
1
1
1
1
1
1
1
1
1
1
1
1
1
1
1
7.50622
5.41978
1.6007
1
1
1
1
1
1
1
1
1
1
1
1
1
1
1
1
1
7.40728
5.98995
2.32697
1
1
1
1
1
1
1
1
1
1
1
1
1
1
1
1
1
7.2061
6.36402
3.51267
0.987888
1
1
1
1
1
1
1
1
1
1
1
1
1
1
1
1
6.96273
6.71705
4.93702
1.16505
1
1
1
1
1
1
1
1
1
1
1
1
1
1
1
1
6.46197
6.60592
6.03019
2.09163
0.999998
1
1
1
1
1
1
1
1
1
1
1
1
1
1
1
6.35312
6.65919
6.63347
3.4856
0.974109
1
1
1
1
1
1
1
1
1
1
1
1
1
1
1
6.41774
6.78613
6.83357
5.0451
1.42311
1
1
1
1
1
1
1
1
1
1
1
1
1
1
1
6.55126
6.83746
6.83222
6.03193
2.7864
0.974433
1.00036
0.999994
1
1
1
1
1
1
1
1
1
1
1
1
6.70903
6.84405
6.84059
6.55249
4.73516
1.3988
0.994475
1.0001
1
1
1
1
1
1
1
1
1
1
1
1
6.82363
6.86602
6.83662
6.67313
6.40742
3.33486
1.03413
0.999406
1
1
1
1
1
1
1
1
1
1
1
1
6.94893
6.89754
6.82362
6.73584
6.71889
5.78936
2.60231
1.01798
1
1
1
1
1
1
1
1
1
1
1
1
6.96506
6.92547
6.88973
6.8749
6.94938
6.81753
6.00662
2.33105
0.640651
1
1
1
1
1
1
1
1
1
1
1
2.31673
3.64658
4.91286
5.70697
6.18693
6.44619
6.57699
6.26441
4.55498
3.21161
2.36942
1.55831
1.0774
0.987233
0.992845
0.996271
0.999165
0.999974
1.00002
1.00001
0.30512
0.852943
1.95466
3.19009
4.19026
4.84151
5.43126
5.9021
5.74935
5.28499
4.8512
4.3139
3.39299
2.32367
1.42394
1.02914
0.989445
0.99495
0.997321
0.999435
0.0350243
0.167022
0.555881
1.21505
2.10155
2.88953
3.55166
4.2179
4.74696
4.83228
4.74552
4.74734
4.70278
4.53151
4.01911
3.0598
2.08565
1.33042
1.01828
0.992816
0.0076105
0.0281316
0.0941559
0.391179
0.934635
1.48267
2.01545
2.58135
3.15568
3.5208
3.75885
4.00155
4.2114
4.37383
4.47068
4.39709
4.18047
3.64878
2.79532
1.89611
0.013294
0.0247487
0.0436623
0.103988
0.333169
0.763798
1.1555
1.55733
1.99309
2.36287
2.63551
2.90296
3.17179
3.46032
3.7827
3.98257
4.09094
4.12847
4.03611
3.91343
0.0265801
0.0319069
0.0538422
0.0577074
0.101853
0.305917
0.563114
0.843234
1.17454
1.46987
1.71768
1.94181
2.16453
2.39542
2.69596
2.97488
3.24215
3.48691
3.64772
3.78682
0.0404717
0.0408855
0.051958
0.0584318
0.0920275
0.14986
0.264342
0.408747
0.619755
0.855287
1.07624
1.28056
1.47637
1.65712
1.87986
2.10821
2.33268
2.56861
2.797
3.00831
0.0419369
0.0421045
0.0518562
0.0778155
0.113695
0.149304
0.236113
0.330446
0.462847
0.641431
0.788239
0.934954
1.07147
1.19474
1.328
1.48139
1.64408
1.817
2.09118
2.0911
0.0399045
0.0417928
0.0472952
0.0812722
0.119371
0.146433
0.207345
0.288152
0.383005
0.495121
0.587183
0.678765
0.765543
0.846653
0.924266
1.03159
1.18074
1.3296
1.5621
1.52321
0.0334385
0.0430317
0.04527
0.0666638
0.101678
0.121045
0.156221
0.212466
0.26797
0.322497
0.380416
0.441938
0.512226
0.583829
0.66489
0.771941
0.892729
0.999773
1.16747
1.12963
0.0287724
0.0418953
0.0470777
0.0522992
0.0714422
0.0906974
0.10624
0.133634
0.165402
0.205034
0.262302
0.318619
0.395103
0.458575
0.528919
0.602857
0.674881
0.738793
0.814757
0.949918
0.0301675
0.0403174
0.0465677
0.0501201
0.0624137
0.0808161
0.0845869
0.102082
0.146168
0.191448
0.239188
0.277226
0.330461
0.373047
0.415097
0.454642
0.490028
0.529181
0.577434
0.723797
0.0357213
0.0416096
0.0444621
0.0492843
0.0628635
0.0770862
0.0812494
0.103768
0.145299
0.178588
0.209912
0.232946
0.257474
0.281648
0.296472
0.315898
0.334543
0.376205
0.433037
0.54866
0.0452521
0.0433226
0.0445818
0.0489703
0.0602601
0.0721093
0.0805357
0.100208
0.129341
0.155512
0.163254
0.173707
0.17428
0.18335
0.193203
0.217983
0.256362
0.30799
0.352935
0.422866
0.0603023
0.0505984
0.0450329
0.0486672
0.0547662
0.0635557
0.073089
0.0844517
0.0979029
0.118024
0.112268
0.115791
0.121799
0.142409
0.171195
0.202286
0.233462
0.26294
0.288031
0.313854
0.0659685
0.0629506
0.0580164
0.0490955
0.0467693
0.0507144
0.0584582
0.0615204
0.0681986
0.0794996
0.0867005
0.0969665
0.116441
0.142622
0.164195
0.18564
0.200351
0.209484
0.209489
0.214165
0.0656517
0.0698891
0.0721252
0.0651769
0.0491394
0.045203
0.0493171
0.0554222
0.0618495
0.0719768
0.0861971
0.0985423
0.11674
0.135288
0.145668
0.155468
0.156254
0.153413
0.151845
0.163676
0.0711479
0.078267
0.0809356
0.0763747
0.061117
0.0471518
0.0497234
0.0565634
0.0633647
0.0725405
0.0842815
0.093313
0.100833
0.104728
0.104657
0.10467
0.105396
0.106965
0.112475
0.127627
0.096013
0.107333
0.123043
0.14847
0.149151
0.135899
0.142063
0.165356
0.177436
0.169222
0.173557
0.18424
0.201967
0.220644
0.221083
0.200022
0.167864
0.15623
0.171233
0.173285
0.174865
0.252834
0.308567
0.392541
0.418381
0.416568
0.412737
0.438076
0.467339
0.449303
0.438914
0.459333
0.464915
0.47426
0.480638
0.471967
0.457943
0.472754
0.508912
0.511963
0.561937
0.631448
0.707296
0.823768
0.834801
0.838376
0.834396
0.842881
0.877044
0.935032
0.948897
0.942658
0.925094
0.928133
0.953728
0.976683
0.977502
0.968564
0.956226
0.941295
0.29902
0.409395
0.54408
0.685287
0.772909
0.843539
0.83747
0.834026
0.865577
0.920537
0.941314
0.942401
0.932274
0.926279
0.938277
0.958897
0.969097
0.967983
0.961636
0.946126
0.139139
0.157183
0.236667
0.331634
0.521207
0.712577
0.771236
0.825762
0.877452
0.918226
0.936543
0.93963
0.940684
0.933996
0.934141
0.941316
0.95765
0.962752
0.963547
0.952253
0.190469
0.214509
0.223466
0.237701
0.261023
0.355353
0.57001
0.73488
0.810305
0.87974
0.930897
0.937191
0.939905
0.940916
0.933539
0.936913
0.950664
0.959845
0.961051
0.952254
0.234073
0.259903
0.269184
0.285893
0.304277
0.301944
0.326152
0.431013
0.600325
0.755997
0.874326
0.919672
0.942552
0.948304
0.938172
0.936805
0.947086
0.953818
0.955848
0.950365
0.306051
0.322272
0.329473
0.33002
0.330936
0.33891
0.348212
0.338398
0.358579
0.468558
0.67244
0.839216
0.927398
0.946463
0.94027
0.94466
0.950376
0.952453
0.953772
0.947773
0.404309
0.406284
0.376539
0.362346
0.371282
0.383836
0.386381
0.3829
0.371615
0.363422
0.430104
0.637782
0.821532
0.938652
0.937781
0.948059
0.950366
0.942854
0.948426
0.946498
0.531438
0.507428
0.455777
0.407936
0.406474
0.417913
0.433376
0.430677
0.416464
0.391525
0.382368
0.43525
0.622972
0.827154
0.922136
0.952777
0.946582
0.939157
0.953258
0.948477
0.680319
0.621997
0.549111
0.465459
0.449456
0.45797
0.470656
0.467624
0.454514
0.431789
0.404229
0.402639
0.441574
0.614698
0.833731
0.943564
0.918787
0.934733
0.959507
0.951114
0.863199
0.769696
0.673233
0.562419
0.516016
0.506254
0.509264
0.507545
0.495682
0.473069
0.447839
0.42694
0.427823
0.457536
0.620075
0.83821
0.882519
0.938689
0.962817
0.948391
1.24222
0.96216
0.845624
0.737262
0.612895
0.549427
0.547236
0.565465
0.557753
0.540209
0.509549
0.477516
0.469466
0.470521
0.482966
0.570099
0.751457
0.889329
0.937442
0.938689
2.04618
1.44649
1.15095
1.03695
0.912741
0.727856
0.65112
0.637965
0.614696
0.585694
0.552688
0.5404
0.53531
0.519377
0.488872
0.491215
0.529047
0.640475
0.799886
0.904025
2.50561
2.17886
1.69567
1.32514
1.1501
0.955638
0.81149
0.741794
0.700695
0.680996
0.646188
0.624603
0.609919
0.587237
0.555331
0.526963
0.527428
0.536477
0.584714
0.747514
2.36764
2.34945
2.24313
1.91115
1.54673
1.28996
1.091
0.943166
0.867675
0.834531
0.772548
0.700763
0.652544
0.623568
0.59984
0.585587
0.564382
0.550395
0.549373
0.58176
1.68225
2.14646
2.22164
2.1933
2.04378
1.7954
1.49475
1.2467
1.05959
0.956947
0.878665
0.797133
0.73646
0.70208
0.697195
0.685893
0.654869
0.619516
0.581194
0.57449
1.10886
1.43679
1.84573
2.11349
2.11283
2.07812
1.934
1.69187
1.43441
1.20767
1.085
0.99923
0.917303
0.844792
0.794801
0.74733
0.701539
0.657452
0.624448
0.603498
1.00453
1.04393
1.20574
1.54865
1.86434
2.02146
2.01517
1.96843
1.84182
1.61322
1.39468
1.22404
1.08142
0.979524
0.883033
0.806976
0.782574
0.738786
0.724459
0.695352
1.00009
1.00109
1.01071
1.07809
1.26877
1.57157
1.82325
1.93695
1.93038
1.88721
1.76673
1.5793
1.37661
1.22797
1.09421
0.987632
0.93962
0.891388
0.833979
0.757011
1
1.00001
1.00015
1.00248
1.01861
1.1015
1.29005
1.55816
1.76679
1.85653
1.85099
1.81636
1.71827
1.55206
1.38334
1.21759
1.09288
1.00465
0.929064
0.832201
1
1
1
1.00003
1.00032
1.00396
1.02481
1.10705
1.28599
1.52202
1.7033
1.78879
1.78503
1.75534
1.67698
1.54149
1.37661
1.22639
1.12616
1.00031
1
1
1
1
1
1.00005
1.0005
1.0046
1.02645
1.10638
1.26422
1.4756
1.63919
1.72482
1.72238
1.70342
1.64214
1.5263
1.39703
1.19657
1
1
1
1
1
1
1
1.00006
1.00058
1.00486
1.02539
1.09411
1.23346
1.42557
1.57181
1.66758
1.66577
1.65287
1.61636
1.46416
1
1
1
1
1
1
1
1
1.00001
1.00006
1.00058
1.00424
1.02187
1.08074
1.19833
1.37234
1.50808
1.60458
1.61494
1.59072
1
1
1
1
1
1
1
1
1
1
1.00001
1.00006
1.00051
1.00341
1.01814
1.06269
1.1648
1.31409
1.44487
1.54912
1
1
1
1
1
1
1
1
1
1
1
1
1.00001
1.00005
1.00041
1.00251
1.01409
1.05153
1.13667
1.38741
1.6231
2.46384
2.58127
2.08349
1.30995
1.03701
1.00188
1.00005
1
1
1
1
1
1
1
2.34654
2.81718
2.52545
1.54049
1.04836
1.00082
1
1
1
1
1
1
1
1
1
2.93546
2.87213
1.98099
1.1522
1.0052
1.00005
1
1
1
1
1
1
1
1
1
3.2578
2.56053
1.36403
1.01903
1.00018
1
1
1
1
1
1
1
1
1
1
3.32815
1.68524
1.04726
1.00052
1
1
1
1
1
1
1
1
1
1
1
2.0731
1.0742
1.00049
0.999999
1
1
1
1
1
1
1
1
1
1
1
1.1036
1.00058
0.999997
1
1
1
1
1
1
1
1
1
1
1
1
0.998116
0.999863
0.999996
1
1
1
1
1
1
1
1
1
1
1
1
0.999966
1
1
1
1
1
1
1
1
1
1
1
1
1
1
1
1
1
1
1
1
1
1
1
1
1
1
1
1
1
1
1
1
1
1
1
1
1
1
1
1
1
1
1
1
1
1
1
1
1
1
1
1
1
1
1
1
1
1
1
1
1
1
1
1
1
1
1
1
1
1
1
1
1
1
1
1
1
1
1
1
1
1
1
1
1
1
1
1
1
1
1
1
1
1
1
1
1
1
1
1
1
1
1
1
1
1
1
1
1
1
1
1
1
1
1
1
1
1
1
1
1
1
1
1
1
1
1
1
1
1
1
1
1
1
1
1
1
1
1
1
1
1
1
1
1
1
1
1
1
1
1
1
1
1
1
1
1
1
1
1
1
1
1
1
1
1
1
1
1
1
1
1
1
1
1
1
1
1
1
1
1
1
1
1
1
1
1
1
1
1
1
1
1
1
1
1
1
1
1
1
1
1
1
1
1
1
1
1
1
1
1
1
1
1
1
1
1
1
1
1
1
1
1
1
1
1
1
1
1
1
1
1
1
1
1
1
1
1
1
1
1
1
1
1
1
1
1
1
1
1
1
1
1
1
1
1
1
1
1
1
1
1
1
1
1
1
1
1
1
1
1
1
1
1
1
1
1
1
1
1
1
1
1
1
1
1
1
1
1
1
1
1
1
1
1
1
1
1
1
1
1
1
1
1
1
1
1
1
1
1
1
1
1
1
1
1
1
1
1
1
1
1
1
1
1
1
1
1
1
1
1
1
1
1
1
1
1
1
1
1
1
1
1
1
1
1
1
1
1
1
1
1
1
1
1
1
1
1
1
1
1
1
1
1
1
1
1
1
1
1
1
1
1
1
1
1
1
1
1
1
1
1
1
1
1
1
1
1
1
1
1
1
1
1
1
1
1
1
1
1
1
1
1
1
1
1
1
1
1
1
1
1
1
1
1
1
1
1
1
1
1
1
1
1
1
1
1
1
1
1
1
1
1
1
1
1
1
1
1
1
1
1
1
1
1
1
1
1
1
1
1
1
1
1
1
1
1
1
1
1
1
1
1
1
1
1
1
1
1
1
1
1
1
1
1
1
1
1
1
1
1
1
1
1
1
1
1
1
1
1
1
1
1
1
1
1
1
1
1
1
1
1
1
1
1
1
1
1
1
1
1
1
1
1
1
1
1
1
1
1
1
1
1
1
1
1
1
1
1
1
1
1
1
1
1
1
1
1
1
1
1
1
1
1
1
1
1
1
1
1
1
1
1
1
1
1
1
1
1
1
1
1
1
1
1
1
1
1
1
1
1
1
1
1
1
1
1
1
1
1
1
1
1
1
1
1
1
1
1
1
1
1
1
1
1
1
1
1
1
1
1
1
1
1
1
1
1
1
1
1
1
1
1
1
1
1
1
1
1
1
1
1
1
1
1
1
1
1
1
1
1
1
1
1
1
1
1
1
1
1
1
1
1
1
1
1
1
1
1
1
1
1
1
1
1
1
1
1
1
1
1
1
1
1
1
1
1
1
1
1
1
1
1
1
1
1
1
1
1
1
1
1
1
1
1
1
1
1
1
1
1
1
1
1
1
1
1
1
1
1
1
1
1
1
1
1
1
1
1
1
1
1
1
1
1
1
1
1
1
1
1
1
1
1
1
1
1
1
1
1
1
1
1
1
1
1
1
1
1
1
1
1
1
1
1
1
1
1
1
1
1
1
1
1
1
1
1
1
1
1
1
1
1
1
1
1
1
1
1
1
1
1
1
1
1
1
1
1
1
1
1
1
1
1
1
1
1
1
1
1
1
1
1
1
1
1
1
1
1
1
1
1
1
1
1
1
1
1
1
1
1
1
1
1
1
1
1
1
1
1
1
1
1
1
1
1
1
1
1
1
1
1
1
1
1
1
1
1
1
1
1
1
1
1
0.999966
1
1
1
1
1
1
1
1
1
1
1
1
1
1
0.998121
0.999864
0.999996
1
1
1
1
1
1
1
1
1
1
1
1
1.1033
1.00058
0.999997
1
1
1
1
1
1
1
1
1
1
1
1
2.07233
1.07406
1.00049
0.999999
1
1
1
1
1
1
1
1
1
1
1
3.32803
1.68551
1.04725
1.00052
1
1
1
1
1
1
1
1
1
1
1
3.25846
2.56072
1.36423
1.0191
1.00018
1
1
1
1
1
1
1
1
1
1
2.93704
2.87278
1.98114
1.15211
1.00519
1.00005
1
1
1
1
1
1
1
1
1
2.34665
2.81814
2.52533
1.54043
1.04836
1.00082
1
1
1
1
1
1
1
1
1
1.62449
2.46407
2.5812
2.08338
1.30996
1.03702
1.00188
1.00005
1
1
1
1
1
1
1
1.23917
2.04948
2.50507
2.36719
1.68233
1.10901
1.00453
1.00009
1
1
1
1
1
1
1
0.952619
1.44872
2.17877
2.34997
2.14633
1.43672
1.04393
1.00109
1.00001
1
1
1
1
1
1
0.844719
1.13822
1.6943
2.24256
2.22208
1.84592
1.20578
1.0107
1.00015
1
1
1
1
1
1
0.740326
1.0282
1.3314
1.90944
2.19401
2.11384
1.5486
1.07803
1.00248
1.00003
1
1
1
1
1
0.615392
0.9057
1.14946
1.55215
2.04441
2.11317
1.86442
1.26866
1.0186
1.00032
1
1
1
1
1
0.553135
0.725479
0.947085
1.29639
1.79571
2.07857
2.02154
1.5716
1.10149
1.00396
1.00005
1
1
1
1
0.558393
0.670163
0.789997
1.08529
1.49821
1.9338
2.01521
1.82327
1.29016
1.02483
1.0005
1
1
1
1
0.570102
0.654005
0.732588
0.935
1.24989
1.69226
1.96871
1.93716
1.55834
1.10713
1.0046
1.00006
1
1
1
0.556887
0.623367
0.700652
0.865254
1.05751
1.43763
1.84267
1.93064
1.76706
1.28608
1.02646
1.00058
1.00001
1
1
0.531159
0.590401
0.6913
0.835652
0.953017
1.21129
1.61405
1.88749
1.85678
1.5221
1.10636
1.00485
1.00006
1
1
0.496596
0.55293
0.664836
0.778355
0.874481
1.08668
1.39454
1.76665
1.85115
1.70338
1.2642
1.02539
1.00058
1.00001
1
0.467248
0.535555
0.634109
0.70609
0.793697
0.998591
1.22348
1.57908
1.81633
1.78877
1.47555
1.09411
1.00424
1.00006
1
0.464233
0.531392
0.612007
0.654634
0.73015
0.914899
1.08066
1.3767
1.7185
1.78498
1.63912
1.23344
1.02187
1.00051
1.00001
0.466573
0.514034
0.585598
0.62473
0.699623
0.84291
0.979716
1.22794
1.55189
1.75524
1.72472
1.42551
1.08074
1.00341
1.00005
0.481748
0.482853
0.551131
0.60248
0.698059
0.794391
0.884149
1.0944
1.3828
1.6767
1.72228
1.57175
1.19832
1.01814
1.00041
0.568226
0.487225
0.52391
0.587567
0.687784
0.747751
0.807409
0.987131
1.21757
1.54126
1.70333
1.66754
1.37235
1.06269
1.00251
0.747589
0.526796
0.524926
0.565714
0.656322
0.701785
0.782283
0.938809
1.09283
1.37658
1.64213
1.66574
1.50806
1.16481
1.01409
0.889476
0.639645
0.535629
0.550176
0.620182
0.657443
0.738646
0.890897
1.00442
1.22623
1.52634
1.65286
1.60459
1.31408
1.05153
0.937886
0.799456
0.584549
0.549326
0.580544
0.62396
0.7251
0.8339
0.929159
1.12617
1.39704
1.61636
1.61496
1.44487
1.13667
0.938655
0.903734
0.746726
0.581452
0.574437
0.6028
0.695979
0.75682
0.83241
1.00052
1.19661
1.46419
1.59074
1.54915
1.38742
0.861884
0.776073
0.683303
0.564787
0.512697
0.498272
0.505976
0.508398
0.49175
0.461906
0.436716
0.424831
0.428056
0.459057
0.621203
0.839736
0.884198
0.940117
0.965216
0.949299
0.685148
0.627304
0.553361
0.468223
0.452799
0.461469
0.472851
0.472449
0.457103
0.431996
0.407752
0.407691
0.446175
0.620446
0.836003
0.945768
0.922156
0.935644
0.96094
0.951326
0.534665
0.509407
0.459491
0.40781
0.400068
0.414715
0.43266
0.431313
0.417417
0.391761
0.38337
0.435167
0.627351
0.842762
0.933363
0.953209
0.94339
0.936789
0.950584
0.947693
0.402995
0.408459
0.380857
0.361361
0.366171
0.378651
0.385855
0.383488
0.372738
0.365305
0.43518
0.643753
0.837448
0.945814
0.942889
0.948514
0.946329
0.938301
0.944752
0.945612
0.305905
0.321871
0.330548
0.329724
0.331393
0.338422
0.346382
0.336214
0.367344
0.47878
0.679933
0.851856
0.927258
0.950774
0.9424
0.941557
0.946611
0.948901
0.951467
0.946891
0.23196
0.260515
0.267666
0.284947
0.300379
0.298731
0.320663
0.429319
0.616564
0.767011
0.880718
0.919334
0.941697
0.945764
0.93476
0.932541
0.944419
0.952752
0.954596
0.949781
0.188815
0.213746
0.232865
0.240884
0.261185
0.342069
0.548742
0.740506
0.812282
0.870137
0.925693
0.93123
0.936268
0.938009
0.932126
0.934323
0.949733
0.960379
0.961351
0.951883
0.138311
0.161062
0.231666
0.326197
0.526351
0.695005
0.761526
0.834583
0.878732
0.910152
0.929955
0.934615
0.935001
0.930844
0.931717
0.940251
0.958822
0.963478
0.964708
0.951848
0.271801
0.418805
0.538436
0.693958
0.776187
0.832472
0.831471
0.839321
0.879275
0.924075
0.942261
0.941807
0.930799
0.926901
0.943107
0.963408
0.972188
0.969765
0.963013
0.945279
0.561397
0.636574
0.704234
0.827378
0.833799
0.846324
0.834168
0.842288
0.880812
0.924944
0.93347
0.928759
0.922071
0.929661
0.957743
0.974834
0.96951
0.959052
0.951198
0.940382
)
;

boundaryField
{
    inlet
    {
        type            fixedValue;
        value           uniform 1;
    }
    outlet
    {
        type            zeroGradient;
    }
    airfoil
    {
        type            zeroGradient;
    }
    top
    {
        type            symmetryPlane;
    }
    bottom
    {
        type            symmetryPlane;
    }
    defaultFaces
    {
        type            empty;
    }
}


// ************************************************************************* //
