/*--------------------------------*- C++ -*----------------------------------*\
  =========                 |
  \\      /  F ield         | OpenFOAM: The Open Source CFD Toolbox
   \\    /   O peration     | Website:  https://openfoam.org
    \\  /    A nd           | Version:  7
     \\/     M anipulation  |
\*---------------------------------------------------------------------------*/
FoamFile
{
    version     2.0;
    format      ascii;
    class       volScalarField;
    location    "4.4";
    object      T;
}
// * * * * * * * * * * * * * * * * * * * * * * * * * * * * * * * * * * * * * //

dimensions      [0 0 0 1 0 0 0];

internalField   nonuniform List<scalar> 
3700
(
100.615
100.784
100.91
100.96
100.993
101.003
100.981
100.932
100.941
101.015
101.11
101.118
101.103
101.084
101.09
101.117
101.118
101.11
101.09
101.067
100.282
100.37
100.454
100.374
100.361
100.368
100.253
100.083
100.178
100.386
100.562
100.599
100.542
100.474
100.484
100.543
100.618
100.615
100.557
100.491
100.222
100.215
100.164
100.062
99.9339
99.8656
99.8922
99.9297
99.961
100.006
100.044
100.052
100.053
100.045
100.029
100.013
100.002
100.001
100.014
100.034
100.166
100.167
100.125
100.001
99.8463
99.8511
99.8775
99.9056
99.9356
99.9828
100.027
100.053
100.078
100.096
100.099
100.098
100.08
100.049
100.024
100.045
100.095
100.055
100.007
99.8944
99.8333
99.8535
99.884
99.8973
99.9281
99.9734
100.003
100.027
100.065
100.101
100.119
100.135
100.141
100.137
100.118
100.104
100.03
99.98
99.9512
99.8869
99.9051
99.9542
99.9807
99.9751
99.9837
100.016
100.008
100.026
100.052
100.083
100.113
100.14
100.166
100.185
100.191
100.203
99.9613
99.9566
99.9621
99.9589
99.9978
100.046
100.053
100.07
100.103
100.12
100.106
100.104
100.096
100.1
100.109
100.13
100.166
100.211
100.234
100.268
99.9117
99.9715
100.005
100.02
100.061
100.11
100.088
100.115
100.172
100.185
100.199
100.198
100.206
100.208
100.206
100.206
100.208
100.235
100.27
100.324
99.8871
100.007
100.051
100.04
100.073
100.138
100.111
100.134
100.191
100.22
100.242
100.253
100.278
100.285
100.294
100.301
100.306
100.317
100.332
100.384
99.8911
100.033
100.049
100.023
100.075
100.142
100.132
100.172
100.202
100.232
100.259
100.281
100.315
100.332
100.35
100.367
100.38
100.394
100.417
100.453
99.9378
99.9933
99.9776
100.007
100.103
100.153
100.187
100.244
100.273
100.31
100.325
100.343
100.359
100.374
100.393
100.418
100.444
100.464
100.505
100.496
99.9432
99.8426
99.9304
100.034
100.127
100.196
100.251
100.311
100.356
100.399
100.417
100.438
100.451
100.46
100.468
100.482
100.507
100.533
100.577
100.572
99.9068
99.7517
99.9177
100.061
100.121
100.2
100.285
100.341
100.404
100.46
100.482
100.504
100.522
100.535
100.554
100.574
100.595
100.616
100.65
100.654
99.8731
99.7226
99.8574
100.019
100.103
100.198
100.307
100.38
100.46
100.51
100.538
100.562
100.583
100.605
100.635
100.663
100.688
100.71
100.726
100.735
99.8188
99.7054
99.8005
99.9557
100.12
100.392
100.494
100.554
100.604
100.628
100.639
100.652
100.669
100.692
100.724
100.751
100.771
100.783
100.779
100.775
99.6578
99.6881
99.8386
100.122
100.426
100.593
100.641
100.68
100.71
100.725
100.735
100.75
100.771
100.795
100.815
100.824
100.822
100.815
100.79
100.746
99.4623
99.7156
100.099
100.449
100.634
100.698
100.737
100.772
100.794
100.805
100.816
100.832
100.849
100.855
100.855
100.844
100.792
100.679
100.52
100.281
99.4562
100.076
100.476
100.667
100.771
100.812
100.841
100.863
100.876
100.881
100.88
100.881
100.88
100.857
100.771
100.62
100.356
100.1
100.005
99.9978
100.118
100.523
100.741
100.838
100.882
100.902
100.922
100.926
100.92
100.908
100.892
100.836
100.721
100.467
100.146
100.01
99.9967
99.9985
99.9992
99.9998
100.694
100.834
100.911
100.945
100.958
100.953
100.954
100.933
100.845
100.761
100.57
100.228
100.028
99.9957
99.9977
99.9989
99.9998
100
100
100
100.996
100.994
100.991
100.985
100.976
100.952
100.883
100.458
99.8436
100
100
100
100
100
100
100
100
100
100
100
100.997
100.994
100.989
100.975
100.95
100.856
100.483
100.013
100
100
100
100
100
100
100
100
100
100
100
100
100.993
100.994
100.989
100.969
100.921
100.628
100.033
99.9994
100
100
100
100
100
100
100
100
100
100
100
100
100.988
100.993
100.989
100.956
100.795
100.226
99.9967
100
100
100
100
100
100
100
100
100
100
100
100
100
100.981
100.992
100.986
100.915
100.579
99.9919
100
100
100
100
100
100
100
100
100
100
100
100
100
100
100.974
100.987
100.982
100.835
100.25
100
100
100
100
100
100
100
100
100
100
100
100
100
100
100
100.971
100.978
100.967
100.696
99.9927
100
100
100
100
100
100
100
100
100
100
100
100
100
100
100
100.981
100.973
100.915
100.481
100
100
100
100
100
100
100
100
100
100
100
100
100
100
100
100
101.005
100.975
100.821
100.125
100
100
100
100
100
100
100
100
100
100
100
100
100
100
100
100
101.016
100.943
100.688
99.9965
100
100
100
100
100
100
100
100
100
100
100
100
100
100
100
100
101.025
100.907
100.509
100
100
100
100
100
100
100
100
100
100
100
100
100
100
100
100
100
101.029
100.857
100.317
100
100
100
100
100
100
100
100
100
100
100
100
100
100
100
100
100
101.031
100.799
100.118
100
100
100
100
100
100
100
100
100
100
100
100
100
100
100
100
100
101.022
100.729
100.002
100
100
100
100
100
100
100
100
100
100
100
100
100
100
100
100
100
101.01
100.653
100
100
100
100
100
100
100
100
100
100
100
100
100
100
100
100
100
100
100.989
100.577
100
100
100
100
100
100
100
100
100
100
100
100
100
100
100
100
100
100
100.965
100.455
100
100
100
100
100
100
100
100
100
100
100
100
100
100
100
100
100
100
100.912
100.241
100
100
100
100
100
100
100
100
100
100
100
100
100
100
100
100
100
100
100.85
100.005
100
100
100
100
100
100
100
100
100
100
100
100
100
100
100
100
100
100
100.807
100
100
100
100
100
100
100
100
100
100
100
100
100
100
100
100
100
100
100
100.808
100
100
100
100
100
100
100
100
100
100
100
100
100
100
100
100
100
100
100
100.85
100.005
100
100
100
100
100
100
100
100
100
100
100
100
100
100
100
100
100
100
100.91
100.239
100
100
100
100
100
100
100
100
100
100
100
100
100
100
100
100
100
100
100.966
100.455
100
100
100
100
100
100
100
100
100
100
100
100
100
100
100
100
100
100
100.99
100.58
100
100
100
100
100
100
100
100
100
100
100
100
100
100
100
100
100
100
101.01
100.654
100
100
100
100
100
100
100
100
100
100
100
100
100
100
100
100
100
100
101.022
100.728
100.001
100
100
100
100
100
100
100
100
100
100
100
100
100
100
100
100
100
101.03
100.798
100.117
100
100
100
100
100
100
100
100
100
100
100
100
100
100
100
100
100
101.028
100.857
100.316
100
100
100
100
100
100
100
100
100
100
100
100
100
100
100
100
100
101.024
100.907
100.509
100
100
100
100
100
100
100
100
100
100
100
100
100
100
100
100
100
101.016
100.944
100.689
99.9965
100
100
100
100
100
100
100
100
100
100
100
100
100
100
100
100
101.005
100.975
100.821
100.125
100
100
100
100
100
100
100
100
100
100
100
100
100
100
100
100
100.982
100.974
100.915
100.481
100
100
100
100
100
100
100
100
100
100
100
100
100
100
100
100
100.971
100.978
100.967
100.696
99.9927
100
100
100
100
100
100
100
100
100
100
100
100
100
100
100
100.974
100.987
100.982
100.835
100.249
100
100
100
100
100
100
100
100
100
100
100
100
100
100
100
100.98
100.992
100.986
100.915
100.58
99.9919
100
100
100
100
100
100
100
100
100
100
100
100
100
100
100.988
100.993
100.989
100.955
100.795
100.227
99.9967
100
100
100
100
100
100
100
100
100
100
100
100
100
100.993
100.994
100.989
100.969
100.921
100.628
100.032
99.9995
100
100
100
100
100
100
100
100
100
100
100
100
100.997
100.995
100.989
100.976
100.951
100.855
100.483
100.013
100
100
100
100
100
100
100
100
100
100
100
100
100.996
100.994
100.991
100.985
100.976
100.952
100.884
100.458
99.8436
100
100
100
100
100
100
100
100
100
100
100
100.694
100.834
100.912
100.946
100.957
100.952
100.953
100.932
100.845
100.762
100.573
100.23
100.029
99.9957
99.9977
99.9989
99.9998
100
100
100
100.123
100.52
100.732
100.835
100.884
100.902
100.921
100.926
100.92
100.908
100.892
100.837
100.723
100.469
100.147
100.01
99.9967
99.9985
99.9992
99.9998
99.5292
100.123
100.491
100.668
100.766
100.81
100.84
100.864
100.876
100.881
100.88
100.881
100.88
100.857
100.771
100.621
100.357
100.1
100.005
99.9978
99.416
99.7535
100.14
100.46
100.635
100.695
100.734
100.77
100.794
100.804
100.815
100.831
100.849
100.855
100.855
100.844
100.792
100.679
100.519
100.281
99.6736
99.7532
99.8318
100.122
100.434
100.591
100.64
100.679
100.71
100.725
100.735
100.75
100.771
100.795
100.815
100.825
100.822
100.815
100.79
100.746
99.9399
99.8175
99.8954
99.9467
100.151
100.41
100.5
100.559
100.607
100.63
100.641
100.653
100.669
100.692
100.724
100.75
100.771
100.783
100.779
100.775
100.014
99.863
99.8902
99.9376
100.05
100.203
100.311
100.38
100.458
100.507
100.536
100.559
100.581
100.604
100.635
100.663
100.688
100.71
100.725
100.735
100.023
99.8884
99.9133
100.04
100.116
100.183
100.276
100.332
100.396
100.454
100.478
100.502
100.52
100.535
100.554
100.574
100.596
100.616
100.649
100.654
100.021
99.9314
99.9276
100.063
100.134
100.175
100.24
100.302
100.35
100.396
100.415
100.436
100.451
100.46
100.469
100.483
100.507
100.532
100.576
100.571
99.9447
99.9857
99.965
100.044
100.116
100.135
100.176
100.235
100.266
100.306
100.325
100.344
100.36
100.374
100.392
100.417
100.444
100.464
100.505
100.496
99.8052
99.9753
100.027
100.046
100.092
100.109
100.118
100.161
100.193
100.227
100.256
100.279
100.314
100.332
100.351
100.368
100.382
100.395
100.417
100.453
99.7722
99.9142
100.025
100.066
100.102
100.127
100.114
100.137
100.19
100.221
100.244
100.255
100.281
100.289
100.298
100.304
100.309
100.32
100.333
100.383
99.7945
99.8826
99.9709
100.053
100.104
100.125
100.095
100.125
100.177
100.193
100.206
100.206
100.215
100.217
100.214
100.214
100.213
100.233
100.267
100.322
99.8649
99.8795
99.9114
99.988
100.05
100.073
100.057
100.082
100.117
100.132
100.123
100.119
100.108
100.109
100.111
100.127
100.159
100.205
100.231
100.268
99.9537
99.9181
99.899
99.9042
99.9345
99.9675
99.9789
99.9892
100.001
100.033
100.017
100.029
100.051
100.081
100.109
100.134
100.162
100.183
100.191
100.204
99.9913
99.9813
99.9692
99.9009
99.857
99.8536
99.8784
99.8967
99.9264
99.9725
100.003
100.027
100.061
100.096
100.115
100.131
100.141
100.139
100.123
100.108
100.02
100.044
100.061
100.026
99.8983
99.8513
99.8765
99.9059
99.934
99.9795
100.025
100.051
100.075
100.094
100.098
100.098
100.086
100.057
100.028
100.044
100.099
100.127
100.125
100.089
99.9869
99.879
99.8984
99.9358
99.9644
100.005
100.04
100.05
100.053
100.049
100.034
100.017
100.004
99.9999
100.01
100.031
100.239
100.286
100.37
100.533
100.596
100.628
100.687
100.743
100.716
100.596
100.508
100.536
100.632
100.699
100.69
100.62
100.44
100.294
100.335
100.314
100.632
100.759
100.864
101.004
101.034
101.031
101.028
101.048
101.078
101.06
101.049
101.093
101.144
101.149
101.143
101.12
101.05
100.997
101.002
100.998
101.042
101.01
101.001
100.993
100.968
100.944
100.917
100.893
100.884
100.885
100.881
100.869
100.851
100.841
100.839
100.835
100.826
100.816
100.808
100.797
100.588
100.622
100.701
100.733
100.764
100.804
100.814
100.806
100.8
100.803
100.81
100.81
100.805
100.799
100.796
100.794
100.79
100.786
100.782
100.773
100.03
100.051
100.181
100.274
100.408
100.524
100.598
100.637
100.64
100.65
100.676
100.689
100.695
100.697
100.698
100.7
100.706
100.709
100.712
100.71
100.083
100.09
100.091
100.094
100.112
100.219
100.384
100.467
100.484
100.512
100.555
100.573
100.58
100.585
100.588
100.595
100.605
100.613
100.618
100.622
100.125
100.133
100.126
100.13
100.139
100.14
100.174
100.27
100.359
100.417
100.468
100.498
100.512
100.515
100.515
100.519
100.528
100.534
100.538
100.543
100.182
100.18
100.173
100.166
100.166
100.173
100.18
100.175
100.196
100.27
100.366
100.438
100.472
100.48
100.479
100.48
100.484
100.486
100.488
100.49
100.245
100.235
100.203
100.19
100.197
100.206
100.208
100.207
100.194
100.178
100.223
100.34
100.417
100.459
100.458
100.459
100.459
100.456
100.458
100.46
100.307
100.289
100.256
100.228
100.224
100.229
100.235
100.233
100.223
100.197
100.176
100.209
100.317
100.403
100.436
100.443
100.44
100.438
100.443
100.441
100.366
100.343
100.311
100.272
100.253
100.251
100.252
100.249
100.24
100.221
100.186
100.175
100.197
100.295
100.388
100.423
100.415
100.422
100.431
100.427
100.431
100.403
100.369
100.323
100.292
100.273
100.268
100.263
100.255
100.239
100.213
100.184
100.179
100.192
100.282
100.369
100.385
100.409
100.417
100.41
100.527
100.454
100.417
100.381
100.329
100.286
100.276
100.279
100.271
100.259
100.237
100.208
100.191
100.182
100.183
100.229
100.312
100.363
100.376
100.375
100.62
100.536
100.473
100.442
100.411
100.353
100.31
100.292
100.274
100.258
100.242
100.225
100.208
100.187
100.166
100.158
100.172
100.222
100.283
100.317
100.608
100.588
100.535
100.47
100.435
100.392
100.346
100.31
100.286
100.277
100.26
100.239
100.22
100.197
100.175
100.156
100.143
100.132
100.148
100.219
100.488
100.547
100.542
100.514
100.467
100.423
100.382
100.34
100.311
100.295
100.27
100.238
100.21
100.188
100.17
100.153
100.133
100.115
100.1
100.106
100.251
100.377
100.446
100.482
100.472
100.45
100.41
100.366
100.321
100.289
100.263
100.236
100.21
100.189
100.177
100.164
100.142
100.118
100.093
100.072
100.043
100.145
100.254
100.337
100.388
100.416
100.406
100.381
100.343
100.299
100.27
100.248
100.223
100.195
100.171
100.146
100.124
100.102
100.082
100.059
100.002
100.015
100.065
100.155
100.233
100.29
100.329
100.348
100.34
100.314
100.28
100.248
100.215
100.188
100.158
100.13
100.118
100.099
100.088
100.067
100
100
100.003
100.025
100.078
100.149
100.208
100.25
100.28
100.29
100.281
100.259
100.227
100.199
100.169
100.141
100.126
100.109
100.088
100.055
100
100
100
100.001
100.006
100.031
100.081
100.139
100.187
100.216
100.24
100.244
100.236
100.215
100.187
100.156
100.127
100.104
100.081
100.049
100
100
100
100
100
100.001
100.008
100.032
100.078
100.129
100.169
100.192
100.21
100.209
100.201
100.183
100.155
100.125
100.101
100.069
100
100
100
100
100
100
100
100.001
100.008
100.032
100.073
100.118
100.154
100.174
100.186
100.184
100.177
100.16
100.137
100.098
100
100
100
100
100
100
100
100
100
100.002
100.008
100.028
100.065
100.108
100.14
100.16
100.168
100.167
100.162
100.139
100
100
100
100
100
100
100
100
100
100
100
100.001
100.007
100.025
100.057
100.097
100.127
100.146
100.154
100.151
100
100
100
100
100
100
100
100
100
100
100
100
100
100.001
100.006
100.019
100.048
100.085
100.113
100.137
100
100
100
100
100
100
100
100
100
100
100
100
100
100
100
100.001
100.004
100.016
100.041
100.105
100.599
100.653
100.609
100.416
100.142
100.017
100.001
100
100
100
100
100
100
100
100
100.673
100.663
100.517
100.217
100.022
100
100
100
100
100
100
100
100
100
100
100.705
100.636
100.372
100.073
100.002
100
100
100
100
100
100
100
100
100
100
100.719
100.518
100.166
100.009
100
100
100
100
100
100
100
100
100
100
100
100.653
100.286
100.025
100
100
100
100
100
100
100
100
100
100
100
100
100.396
100.038
100
100
100
100
100
100
100
100
100
100
100
100
100
100.043
100
100
100
100
100
100
100
100
100
100
100
100
100
100
99.9995
100
100
100
100
100
100
100
100
100
100
100
100
100
100
100
100
100
100
100
100
100
100
100
100
100
100
100
100
100
100
100
100
100
100
100
100
100
100
100
100
100
100
100
100
100
100
100
100
100
100
100
100
100
100
100
100
100
100
100
100
100
100
100
100
100
100
100
100
100
100
100
100
100
100
100
100
100
100
100
100
100
100
100
100
100
100
100
100
100
100
100
100
100
100
100
100
100
100
100
100
100
100
100
100
100
100
100
100
100
100
100
100
100
100
100
100
100
100
100
100
100
100
100
100
100
100
100
100
100
100
100
100
100
100
100
100
100
100
100
100
100
100
100
100
100
100
100
100
100
100
100
100
100
100
100
100
100
100
100
100
100
100
100
100
100
100
100
100
100
100
100
100
100
100
100
100
100
100
100
100
100
100
100
100
100
100
100
100
100
100
100
100
100
100
100
100
100
100
100
100
100
100
100
100
100
100
100
100
100
100
100
100
100
100
100
100
100
100
100
100
100
100
100
100
100
100
100
100
100
100
100
100
100
100
100
100
100
100
100
100
100
100
100
100
100
100
100
100
100
100
100
100
100
100
100
100
100
100
100
100
100
100
100
100
100
100
100
100
100
100
100
100
100
100
100
100
100
100
100
100
100
100
100
100
100
100
100
100
100
100
100
100
100
100
100
100
100
100
100
100
100
100
100
100
100
100
100
100
100
100
100
100
100
100
100
100
100
100
100
100
100
100
100
100
100
100
100
100
100
100
100
100
100
100
100
100
100
100
100
100
100
100
100
100
100
100
100
100
100
100
100
100
100
100
100
100
100
100
100
100
100
100
100
100
100
100
100
100
100
100
100
100
100
100
100
100
100
100
100
100
100
100
100
100
100
100
100
100
100
100
100
100
100
100
100
100
100
100
100
100
100
100
100
100
100
100
100
100
100
100
100
100
100
100
100
100
100
100
100
100
100
100
100
100
100
100
100
100
100
100
100
100
100
100
100
100
100
100
100
100
100
100
100
100
100
100
100
100
100
100
100
100
100
100
100
100
100
100
100
100
100
100
100
100
100
100
100
100
100
100
100
100
100
100
100
100
100
100
100
100
100
100
100
100
100
100
100
100
100
100
100
100
100
100
100
100
100
100
100
100
100
100
100
100
100
100
100
100
100
100
100
100
100
100
100
100
100
100
100
100
100
100
100
100
100
100
100
100
100
100
100
100
100
100
100
100
100
100
100
100
100
100
100
100
100
100
100
100
100
100
100
100
100
100
100
100
100
100
100
100
100
100
100
100
100
100
100
100
100
100
100
100
100
100
100
100
100
100
100
100
100
100
100
100
100
100
100
100
100
100
100
100
100
100
100
100
100
100
100
100
100
100
100
100
100
100
100
100
100
100
100
100
100
100
100
100
100
100
100
100
100
100
100
100
100
100
100
100
100
100
100
100
100
100
100
100
100
100
100
100
100
100
100
100
100
100
100
100
100
100
100
100
100
100
100
100
100
100
100
100
100
100
100
100
100
100
100
100
100
100
100
100
100
100
100
100
100
100
100
100
100
100
100
100
100
100
100
100
100
100
100
100
100
100
100
100
100
100
100
100
100
100
100
100
100
100
100
100
100
100
100
100
100
100
100
100
100
100
100
100
100
100
100
100
100
100
100
100
100
100
100
100
100
100
100
100
100
100
100
100
100
100
100
100
100
100
100
100
100
100
100
100
100
100
100
100
100
100
100
100
100
100
100
100
100
100
100
100
100
100
100
100
100
100
100
100
100
100
100
100
100
100
100
100
100
100
100
100
100
100
100
100
100
100
100
100
100
100
100
100
100
100
100
100
100
100
100
100
100
100
100
100
100
100
100
100
100
100
100
100
100
100
100
100
100
100
100
100
100
100
100
100
100
100
100
100
100
100
100
100
100
100
100
100
100
100
100
100
100
100
100
100
100
100
100
100
100
100
100
100
100
100
100
100
100
100
100
100
100
100
100
100
100
100
99.9995
100
100
100
100
100
100
100
100
100
100
100
100
100
100
100.043
100
100
100
100
100
100
100
100
100
100
100
100
100
100
100.396
100.038
100
100
100
100
100
100
100
100
100
100
100
100
100
100.653
100.286
100.025
100
100
100
100
100
100
100
100
100
100
100
100
100.72
100.518
100.167
100.009
100
100
100
100
100
100
100
100
100
100
100
100.705
100.636
100.372
100.073
100.002
100
100
100
100
100
100
100
100
100
100
100.673
100.663
100.517
100.217
100.022
100
100
100
100
100
100
100
100
100
100
100.599
100.653
100.609
100.416
100.142
100.017
100.001
100
100
100
100
100
100
100
100
100.526
100.62
100.608
100.488
100.251
100.043
100.002
100
100
100
100
100
100
100
100
100.451
100.537
100.588
100.547
100.377
100.145
100.015
100
100
100
100
100
100
100
100
100.415
100.471
100.535
100.542
100.446
100.254
100.065
100.003
100
100
100
100
100
100
100
100.381
100.441
100.472
100.514
100.482
100.337
100.155
100.025
100.001
100
100
100
100
100
100
100.33
100.409
100.436
100.468
100.472
100.388
100.233
100.078
100.006
100
100
100
100
100
100
100.287
100.35
100.39
100.425
100.45
100.416
100.29
100.149
100.031
100.001
100
100
100
100
100
100.283
100.315
100.338
100.382
100.411
100.406
100.329
100.208
100.081
100.008
100
100
100
100
100
100.283
100.298
100.304
100.337
100.367
100.381
100.348
100.25
100.139
100.032
100.001
100
100
100
100
100.271
100.278
100.285
100.31
100.321
100.344
100.34
100.28
100.187
100.078
100.008
100
100
100
100
100.254
100.262
100.281
100.296
100.289
100.3
100.314
100.29
100.216
100.129
100.032
100.002
100
100
100
100.23
100.244
100.268
100.272
100.262
100.271
100.28
100.281
100.24
100.169
100.073
100.008
100
100
100
100.202
100.223
100.244
100.239
100.235
100.248
100.247
100.259
100.244
100.192
100.118
100.028
100.001
100
100
100.186
100.207
100.221
100.21
100.207
100.222
100.215
100.227
100.236
100.21
100.154
100.065
100.007
100
100
100.182
100.185
100.197
100.188
100.188
100.195
100.188
100.199
100.215
100.209
100.174
100.108
100.024
100.001
100
100.182
100.164
100.173
100.17
100.177
100.171
100.159
100.169
100.187
100.201
100.186
100.14
100.057
100.006
100
100.227
100.157
100.154
100.154
100.165
100.147
100.13
100.141
100.156
100.183
100.184
100.16
100.097
100.019
100.001
100.31
100.17
100.142
100.134
100.143
100.124
100.117
100.126
100.127
100.155
100.177
100.168
100.127
100.048
100.004
100.363
100.221
100.131
100.115
100.119
100.102
100.099
100.109
100.104
100.125
100.16
100.167
100.146
100.085
100.016
100.376
100.283
100.148
100.1
100.093
100.082
100.089
100.088
100.081
100.101
100.137
100.162
100.154
100.113
100.041
100.375
100.317
100.219
100.106
100.072
100.059
100.067
100.055
100.049
100.069
100.098
100.139
100.151
100.137
100.105
100.43
100.405
100.371
100.324
100.289
100.267
100.267
100.266
100.253
100.231
100.204
100.181
100.178
100.192
100.282
100.369
100.386
100.409
100.417
100.41
100.368
100.345
100.313
100.273
100.254
100.253
100.255
100.253
100.242
100.219
100.187
100.177
100.2
100.299
100.389
100.423
100.416
100.422
100.431
100.427
100.308
100.289
100.258
100.228
100.219
100.227
100.236
100.235
100.224
100.195
100.175
100.208
100.32
100.412
100.439
100.443
100.439
100.437
100.441
100.441
100.243
100.236
100.207
100.189
100.193
100.203
100.209
100.208
100.195
100.179
100.226
100.344
100.426
100.461
100.458
100.458
100.457
100.454
100.457
100.459
100.181
100.18
100.174
100.166
100.166
100.172
100.179
100.173
100.202
100.274
100.369
100.445
100.474
100.48
100.477
100.477
100.481
100.484
100.487
100.49
100.121
100.134
100.127
100.131
100.134
100.136
100.167
100.267
100.37
100.423
100.469
100.498
100.511
100.513
100.513
100.515
100.525
100.533
100.538
100.544
100.079
100.088
100.097
100.094
100.114
100.208
100.365
100.464
100.492
100.517
100.553
100.568
100.579
100.586
100.589
100.594
100.603
100.613
100.62
100.625
100.027
100.071
100.172
100.264
100.422
100.516
100.576
100.63
100.649
100.659
100.673
100.682
100.692
100.699
100.7
100.7
100.705
100.711
100.716
100.715
100.545
100.658
100.693
100.719
100.771
100.802
100.8
100.802
100.809
100.81
100.807
100.804
100.801
100.798
100.798
100.794
100.789
100.787
100.785
100.777
101.03
101.024
100.998
100.984
100.966
100.948
100.914
100.891
100.886
100.882
100.872
100.86
100.848
100.841
100.839
100.834
100.822
100.813
100.807
100.799
)
;

boundaryField
{
    inlet
    {
        type            fixedValue;
        value           uniform 100;
    }
    outlet
    {
        type            inletOutlet;
        inletValue      uniform 100;
        value           nonuniform List<scalar> 
50
(
100.375
100.317
100.219
100.106
100.072
100.059
100.067
100.055
100.049
100.069
100.098
100.139
100.151
100.137
100.105
100.797
100.773
100.71
100.622
100.543
100.49
100.46
100.441
100.427
100.41
100.41
100.427
100.441
100.459
100.49
100.544
100.625
100.715
100.777
100.799
100.375
100.317
100.219
100.106
100.072
100.059
100.067
100.055
100.049
100.069
100.098
100.139
100.151
100.137
100.105
)
;
    }
    airfoil
    {
        type            zeroGradient;
    }
    top
    {
        type            symmetryPlane;
    }
    bottom
    {
        type            symmetryPlane;
    }
    defaultFaces
    {
        type            empty;
    }
}


// ************************************************************************* //
