/*--------------------------------*- C++ -*----------------------------------*\
  =========                 |
  \\      /  F ield         | OpenFOAM: The Open Source CFD Toolbox
   \\    /   O peration     | Website:  https://openfoam.org
    \\  /    A nd           | Version:  7
     \\/     M anipulation  |
\*---------------------------------------------------------------------------*/
FoamFile
{
    version     2.0;
    format      ascii;
    class       volScalarField;
    location    "0.9";
    object      rho;
}
// * * * * * * * * * * * * * * * * * * * * * * * * * * * * * * * * * * * * * //

dimensions      [1 -3 0 0 0 0 0];

internalField   nonuniform List<scalar> 
3700
(
0.206742
0.317553
0.387345
0.456697
0.492466
0.51802
0.5233
0.537186
0.549151
0.560326
0.578616
0.575781
0.570111
0.572785
0.572563
0.573158
0.579788
0.585375
0.595217
0.612585
0.137554
0.134669
0.148275
0.140795
0.130344
0.12616
0.129547
0.140073
0.158836
0.183557
0.210439
0.232546
0.24279
0.240533
0.223544
0.211161
0.20729
0.207097
0.211545
0.210167
0.13357
0.122744
0.111562
0.0940725
0.0689892
0.0612391
0.0605253
0.0649307
0.0766466
0.0940798
0.113488
0.127633
0.137801
0.139696
0.137064
0.136737
0.136317
0.137556
0.140087
0.151775
0.126398
0.119398
0.109279
0.0842469
0.0605485
0.0586805
0.0592457
0.0657274
0.0764931
0.0952607
0.113993
0.134435
0.159519
0.177517
0.188978
0.200684
0.204436
0.208972
0.210404
0.217812
0.10151
0.103482
0.096893
0.0694409
0.0585103
0.0592641
0.0670859
0.0865522
0.0960178
0.103038
0.113817
0.130287
0.158141
0.184122
0.207606
0.233082
0.254023
0.271857
0.287841
0.300271
0.0771905
0.0826869
0.0763808
0.0626744
0.0612026
0.0716163
0.0950345
0.127542
0.143934
0.150418
0.151326
0.154938
0.166346
0.187687
0.217285
0.256408
0.294202
0.332051
0.366866
0.417065
0.0603601
0.0691538
0.0670091
0.0618325
0.062728
0.08149
0.116454
0.152848
0.185768
0.212328
0.226935
0.239921
0.255873
0.271954
0.288415
0.319308
0.350515
0.398435
0.450302
0.545051
0.0483063
0.0602521
0.0642942
0.0623615
0.0639174
0.08653
0.129019
0.158024
0.19744
0.248517
0.288822
0.32407
0.362546
0.392901
0.425087
0.461504
0.490362
0.529414
0.581059
0.719834
0.03786
0.0532666
0.063945
0.0694563
0.0709404
0.0899265
0.1385
0.156129
0.192736
0.255722
0.321375
0.38385
0.445929
0.492232
0.551007
0.610948
0.666715
0.72547
0.784505
0.961804
0.0294961
0.0484719
0.0647861
0.0742053
0.0780777
0.107077
0.161721
0.17454
0.211843
0.262579
0.351438
0.446299
0.537492
0.614606
0.705042
0.800168
0.898058
0.99578
1.08959
1.24968
0.0253685
0.0445218
0.0642874
0.0802315
0.103191
0.160786
0.215265
0.264972
0.338073
0.429381
0.538094
0.646024
0.749945
0.846589
0.947334
1.0646
1.2122
1.35049
1.55763
1.49762
0.0262839
0.0462911
0.0674669
0.102304
0.154307
0.233494
0.297668
0.407922
0.540244
0.6854
0.816225
0.948955
1.07773
1.19983
1.32208
1.46604
1.645
1.82138
2.09804
2.03527
0.037547
0.0499536
0.0794642
0.123087
0.185438
0.28479
0.364045
0.519534
0.71053
0.913622
1.0842
1.26648
1.44942
1.62855
1.83711
2.06016
2.27885
2.50574
2.84406
2.83798
0.0492232
0.0545408
0.0842193
0.121052
0.18454
0.310988
0.419337
0.623409
0.907177
1.22486
1.5034
1.75856
2.01109
2.26123
2.58105
2.90349
3.22574
3.54265
3.80314
4.10955
0.0532151
0.0552723
0.0651642
0.0975308
0.191373
0.367352
0.723043
1.10418
1.56908
2.0092
2.3883
2.7111
3.01264
3.33666
3.74753
4.12691
4.51521
4.81129
5.0028
5.15512
0.040059
0.0484831
0.0541243
0.111684
0.44209
0.935355
1.52921
2.15869
2.79963
3.32488
3.69985
4.0502
4.40136
4.80644
5.24728
5.52334
5.68783
5.67872
5.54457
5.34874
0.0185577
0.0398227
0.129024
0.507439
1.23438
2.09539
2.82212
3.60947
4.40749
4.99095
5.30879
5.58169
5.84627
6.08649
6.21945
6.11376
5.80582
5.06917
3.87869
2.60623
0.0285992
0.164561
0.712119
1.71732
2.91839
3.95667
4.88692
5.85048
6.57987
6.71622
6.62169
6.60797
6.5435
6.30423
5.58998
4.2611
2.90483
1.8524
1.42384
1.39064
0.440754
1.25626
2.78506
4.40334
5.79635
6.65438
7.43628
8.10867
7.93973
7.35333
6.76746
6.01422
4.7274
3.2357
1.98478
1.43921
1.38544
1.39312
1.39637
1.39925
3.22834
5.04087
6.74976
7.919
8.62207
8.79436
9.02169
8.6027
6.30864
4.46422
3.2939
2.17176
1.50733
1.38226
1.39012
1.39487
1.39886
1.39997
1.40003
1.40002
9.66068
9.57997
9.5221
9.61765
9.70317
9.25442
8.32297
3.27106
0.910391
1.40001
1.40001
1.40001
1.40001
1.40001
1.40001
1.40001
1.40001
1.40001
1.40001
1.40001
9.67035
9.59247
9.49718
9.46039
9.62433
7.92058
3.70027
1.4372
1.40001
1.40001
1.40001
1.40001
1.40001
1.40001
1.40001
1.40001
1.40001
1.40001
1.40001
1.40001
9.45046
9.5073
9.47684
9.29443
8.83874
4.71779
1.43947
1.39917
1.40001
1.40001
1.40001
1.40001
1.40001
1.40001
1.40001
1.40001
1.40001
1.40001
1.40001
1.40001
9.21387
9.42934
9.45915
9.10844
6.39564
2.0032
1.39162
1.40016
1.4
1.40001
1.40001
1.40001
1.40001
1.40001
1.40001
1.40001
1.40001
1.40001
1.40001
1.40001
9.03069
9.3652
9.4088
8.57826
3.77712
1.36542
1.4005
1.4
1.40001
1.40001
1.40001
1.40001
1.40001
1.40001
1.40001
1.40001
1.40001
1.40001
1.40001
1.40001
8.94008
9.36681
9.3423
6.82717
2.07193
1.40001
1.40001
1.40001
1.40001
1.40001
1.40001
1.40001
1.40001
1.40001
1.40001
1.40001
1.40001
1.40001
1.40001
1.40001
8.89773
9.42662
9.34144
4.90564
1.36603
1.40001
1.40001
1.40001
1.40001
1.40001
1.40001
1.40001
1.40001
1.40001
1.40001
1.40001
1.40001
1.40001
1.40001
1.40001
8.98449
9.22333
8.35405
2.77069
1.3992
1.40001
1.40001
1.40001
1.40001
1.40001
1.40001
1.40001
1.40001
1.40001
1.40001
1.40001
1.40001
1.40001
1.40001
1.40001
9.60419
9.12394
6.75367
1.72732
1.40001
1.40001
1.40001
1.40001
1.40001
1.40001
1.40001
1.40001
1.40001
1.40001
1.40001
1.40001
1.40001
1.40001
1.40001
1.40001
10.103
8.93354
4.81129
1.38255
1.40001
1.40001
1.40001
1.40001
1.40001
1.40001
1.40001
1.40001
1.40001
1.40001
1.40001
1.40001
1.40001
1.40001
1.40001
1.40001
10.3521
8.29909
3.20815
1.40001
1.40001
1.40001
1.40001
1.40001
1.40001
1.40001
1.40001
1.40001
1.40001
1.40001
1.40001
1.40001
1.40001
1.40001
1.40001
1.40001
10.4431
7.47162
2.20321
1.40001
1.40001
1.40001
1.40001
1.40001
1.40001
1.40001
1.40001
1.40001
1.40001
1.40001
1.40001
1.40001
1.40001
1.40001
1.40001
1.40001
10.465
6.54319
1.60884
1.40001
1.40001
1.40001
1.40001
1.40001
1.40001
1.40001
1.40001
1.40001
1.40001
1.40001
1.40001
1.40001
1.40001
1.40001
1.40001
1.40001
10.1558
5.56132
1.41574
1.40001
1.40001
1.40001
1.40001
1.40001
1.40001
1.40001
1.40001
1.40001
1.40001
1.40001
1.40001
1.40001
1.40001
1.40001
1.40001
1.40001
9.91617
4.53811
1.40001
1.40001
1.40001
1.40001
1.40001
1.40001
1.40001
1.40001
1.40001
1.40001
1.40001
1.40001
1.40001
1.40001
1.40001
1.40001
1.40001
1.40001
9.71309
3.51478
1.40001
1.40001
1.40001
1.40001
1.40001
1.40001
1.40001
1.40001
1.40001
1.40001
1.40001
1.40001
1.40001
1.40001
1.40001
1.40001
1.40001
1.40001
9.21678
2.64611
1.40001
1.40001
1.40001
1.40001
1.40001
1.40001
1.40001
1.40001
1.40001
1.40001
1.40001
1.40001
1.40001
1.40001
1.40001
1.40001
1.40001
1.40001
8.80585
1.91126
1.40001
1.40001
1.40001
1.40001
1.40001
1.40001
1.40001
1.40001
1.40001
1.40001
1.40001
1.40001
1.40001
1.40001
1.40001
1.40001
1.40001
1.40001
7.86695
1.40811
1.40001
1.40001
1.40001
1.40001
1.40001
1.40001
1.40001
1.40001
1.40001
1.40001
1.40001
1.40001
1.40001
1.40001
1.40001
1.40001
1.40001
1.40001
6.4245
1.40009
1.40001
1.40001
1.40001
1.40001
1.40001
1.40001
1.40001
1.40001
1.40001
1.40001
1.40001
1.40001
1.40001
1.40001
1.40001
1.40001
1.40001
1.40001
6.4245
1.40009
1.40001
1.40001
1.40001
1.40001
1.40001
1.40001
1.40001
1.40001
1.40001
1.40001
1.40001
1.40001
1.40001
1.40001
1.40001
1.40001
1.40001
1.40001
7.86695
1.40811
1.40001
1.40001
1.40001
1.40001
1.40001
1.40001
1.40001
1.40001
1.40001
1.40001
1.40001
1.40001
1.40001
1.40001
1.40001
1.40001
1.40001
1.40001
8.80585
1.91126
1.40001
1.40001
1.40001
1.40001
1.40001
1.40001
1.40001
1.40001
1.40001
1.40001
1.40001
1.40001
1.40001
1.40001
1.40001
1.40001
1.40001
1.40001
9.21678
2.64611
1.40001
1.40001
1.40001
1.40001
1.40001
1.40001
1.40001
1.40001
1.40001
1.40001
1.40001
1.40001
1.40001
1.40001
1.40001
1.40001
1.40001
1.40001
9.71309
3.51478
1.40001
1.40001
1.40001
1.40001
1.40001
1.40001
1.40001
1.40001
1.40001
1.40001
1.40001
1.40001
1.40001
1.40001
1.40001
1.40001
1.40001
1.40001
9.91617
4.53811
1.40001
1.40001
1.40001
1.40001
1.40001
1.40001
1.40001
1.40001
1.40001
1.40001
1.40001
1.40001
1.40001
1.40001
1.40001
1.40001
1.40001
1.40001
10.1558
5.56132
1.41574
1.40001
1.40001
1.40001
1.40001
1.40001
1.40001
1.40001
1.40001
1.40001
1.40001
1.40001
1.40001
1.40001
1.40001
1.40001
1.40001
1.40001
10.465
6.54319
1.60884
1.40001
1.40001
1.40001
1.40001
1.40001
1.40001
1.40001
1.40001
1.40001
1.40001
1.40001
1.40001
1.40001
1.40001
1.40001
1.40001
1.40001
10.4431
7.47162
2.20321
1.40001
1.40001
1.40001
1.40001
1.40001
1.40001
1.40001
1.40001
1.40001
1.40001
1.40001
1.40001
1.40001
1.40001
1.40001
1.40001
1.40001
10.3521
8.29909
3.20815
1.40001
1.40001
1.40001
1.40001
1.40001
1.40001
1.40001
1.40001
1.40001
1.40001
1.40001
1.40001
1.40001
1.40001
1.40001
1.40001
1.40001
10.103
8.93354
4.81129
1.38255
1.40001
1.40001
1.40001
1.40001
1.40001
1.40001
1.40001
1.40001
1.40001
1.40001
1.40001
1.40001
1.40001
1.40001
1.40001
1.40001
9.60419
9.12394
6.75367
1.72732
1.40001
1.40001
1.40001
1.40001
1.40001
1.40001
1.40001
1.40001
1.40001
1.40001
1.40001
1.40001
1.40001
1.40001
1.40001
1.40001
8.98449
9.22333
8.35406
2.77069
1.3992
1.40001
1.40001
1.40001
1.40001
1.40001
1.40001
1.40001
1.40001
1.40001
1.40001
1.40001
1.40001
1.40001
1.40001
1.40001
8.89773
9.42662
9.34144
4.90564
1.36603
1.40001
1.40001
1.40001
1.40001
1.40001
1.40001
1.40001
1.40001
1.40001
1.40001
1.40001
1.40001
1.40001
1.40001
1.40001
8.94008
9.36681
9.3423
6.82717
2.07193
1.40001
1.40001
1.40001
1.40001
1.40001
1.40001
1.40001
1.40001
1.40001
1.40001
1.40001
1.40001
1.40001
1.40001
1.40001
9.03069
9.3652
9.4088
8.57826
3.77712
1.36542
1.4005
1.4
1.40001
1.40001
1.40001
1.40001
1.40001
1.40001
1.40001
1.40001
1.40001
1.40001
1.40001
1.40001
9.21387
9.42934
9.45915
9.10844
6.39564
2.0032
1.39162
1.40016
1.4
1.40001
1.40001
1.40001
1.40001
1.40001
1.40001
1.40001
1.40001
1.40001
1.40001
1.40001
9.45046
9.5073
9.47684
9.29443
8.83875
4.71779
1.43947
1.39917
1.40001
1.40001
1.40001
1.40001
1.40001
1.40001
1.40001
1.40001
1.40001
1.40001
1.40001
1.40001
9.67035
9.59247
9.49718
9.46039
9.62433
7.92057
3.70027
1.4372
1.40001
1.40001
1.40001
1.40001
1.40001
1.40001
1.40001
1.40001
1.40001
1.40001
1.40001
1.40001
9.66068
9.57997
9.5221
9.61765
9.70317
9.25441
8.32297
3.27105
0.910392
1.40001
1.40001
1.40001
1.40001
1.40001
1.40001
1.40001
1.40001
1.40001
1.40001
1.40001
3.22834
5.04087
6.74976
7.91899
8.62208
8.79437
9.02169
8.60269
6.30864
4.46422
3.2939
2.17176
1.50732
1.38226
1.39012
1.39487
1.39886
1.39997
1.40003
1.40002
0.440755
1.25628
2.78508
4.40338
5.7963
6.65435
7.43628
8.10869
7.93974
7.35333
6.76746
6.01424
4.72743
3.23572
1.98479
1.43922
1.38544
1.39312
1.39637
1.39925
0.0285759
0.164493
0.712102
1.71731
2.9184
3.95671
4.88687
5.85039
6.58011
6.71619
6.62159
6.60796
6.5435
6.30423
5.58998
4.26108
2.9048
1.85239
1.42384
1.39064
0.018567
0.0398457
0.128994
0.507407
1.23451
2.09533
2.8223
3.60942
4.40747
4.99056
5.30894
5.58193
5.84632
6.08642
6.21941
6.11374
5.80581
5.06916
3.87871
2.60625
0.0400889
0.0485198
0.0541486
0.111691
0.441873
0.935299
1.52911
2.15871
2.79967
3.32489
3.69982
4.05029
4.40153
4.80651
5.24724
5.52333
5.68784
5.67874
5.54459
5.34876
0.0532212
0.0552992
0.065225
0.0976046
0.191323
0.367378
0.722872
1.1044
1.56892
2.00898
2.38821
2.71115
3.01269
3.33664
3.74746
4.12689
4.51524
4.81134
5.00283
5.15511
0.0492225
0.054553
0.0842624
0.121163
0.184638
0.310933
0.419249
0.623101
0.907317
1.22491
1.5034
1.75848
2.01093
2.26107
2.58094
2.9034
3.22568
3.54262
3.80315
4.10966
0.0375394
0.0499619
0.0794802
0.12316
0.185514
0.284769
0.364042
0.519326
0.710686
0.91379
1.08435
1.26651
1.44942
1.62852
1.83709
2.06013
2.27883
2.50573
2.84413
2.83785
0.0262855
0.0463054
0.0674978
0.102337
0.154329
0.233436
0.297805
0.407928
0.540136
0.685332
0.816256
0.949095
1.0779
1.19997
1.32216
1.46609
1.64505
1.82146
2.09815
2.03541
0.0253768
0.0445419
0.0643369
0.0802693
0.103215
0.160794
0.215305
0.265033
0.337815
0.429206
0.537819
0.645929
0.749934
0.846614
0.947345
1.06461
1.21222
1.35054
1.5577
1.49768
0.0295061
0.0484831
0.0648192
0.0742384
0.0781143
0.107159
0.161507
0.174484
0.211825
0.262581
0.351312
0.446067
0.537284
0.61445
0.704942
0.800115
0.898042
0.995775
1.08959
1.24971
0.0378765
0.0532745
0.0639449
0.0694477
0.0709322
0.0899339
0.138284
0.156232
0.193025
0.255747
0.321421
0.383742
0.445801
0.492143
0.550977
0.610944
0.666719
0.725453
0.784464
0.961818
0.0483323
0.0602707
0.0643038
0.0623572
0.0639067
0.0864664
0.128921
0.158183
0.197749
0.248537
0.288879
0.324086
0.362529
0.392875
0.425093
0.461547
0.49041
0.529456
0.581065
0.71985
0.0603971
0.0691789
0.0670234
0.0618491
0.0627304
0.0814419
0.116415
0.152935
0.185999
0.212363
0.22692
0.239937
0.255915
0.272007
0.288455
0.319336
0.350533
0.398465
0.450332
0.545091
0.0772397
0.0827235
0.0764058
0.062692
0.0612152
0.0715826
0.0949812
0.127488
0.143867
0.150582
0.151228
0.154906
0.166377
0.187724
0.217277
0.256378
0.294185
0.332054
0.366888
0.417042
0.101559
0.103525
0.0969314
0.0694638
0.0585318
0.059263
0.0670448
0.0864268
0.0958246
0.103005
0.11378
0.130304
0.158175
0.184136
0.207593
0.23306
0.254016
0.271869
0.287862
0.300268
0.126415
0.119402
0.109292
0.0842641
0.0605675
0.0586842
0.0592568
0.0657209
0.0764106
0.0951762
0.113978
0.134462
0.159539
0.17751
0.188967
0.200676
0.204468
0.209036
0.210443
0.217813
0.133576
0.122751
0.111571
0.0940925
0.069003
0.0612456
0.0605398
0.064943
0.076563
0.0940069
0.113532
0.127646
0.137769
0.139653
0.137049
0.136747
0.136343
0.137589
0.140118
0.151785
0.137558
0.13467
0.148303
0.141003
0.130529
0.126129
0.129448
0.140029
0.158922
0.183705
0.210514
0.232497
0.24293
0.240874
0.223639
0.210795
0.206909
0.206851
0.211458
0.210232
0.206727
0.317545
0.387296
0.457028
0.492743
0.518132
0.523224
0.537073
0.549227
0.560388
0.578652
0.575789
0.570125
0.572882
0.572522
0.572951
0.579531
0.585257
0.59521
0.612638
0.622581
0.708714
0.857852
0.904911
0.958244
1.06178
1.16751
1.19688
1.1633
1.13196
1.12445
1.15304
1.24359
1.34277
1.39089
1.39956
1.4
1.40001
1.40001
1.40001
0.287771
0.404385
0.599101
0.766052
0.905155
1.04764
1.16572
1.19832
1.1612
1.12542
1.11728
1.14932
1.24233
1.34229
1.39076
1.39954
1.4
1.40001
1.40001
1.40001
0.168583
0.173429
0.232346
0.466585
0.710126
0.884279
1.07046
1.15985
1.13716
1.10801
1.10229
1.13368
1.23172
1.33807
1.39019
1.39954
1.4
1.40001
1.40001
1.40001
0.236545
0.244948
0.242863
0.242298
0.328066
0.496539
0.744068
1.0034
1.08465
1.07888
1.08307
1.13677
1.23979
1.34159
1.39087
1.39958
1.4
1.40001
1.40001
1.40001
0.3041
0.301676
0.284038
0.285062
0.296933
0.319357
0.396887
0.62905
0.898019
1.01204
1.0633
1.13163
1.23982
1.34358
1.39163
1.39964
1.4
1.40001
1.40001
1.40001
0.411667
0.388106
0.338246
0.328775
0.334651
0.356985
0.394664
0.503012
0.700355
0.892514
1.01582
1.12978
1.24764
1.34826
1.39268
1.3997
1.4
1.40001
1.40001
1.40001
0.53668
0.494844
0.406984
0.378891
0.386677
0.412823
0.452195
0.521972
0.676351
0.852496
1.00755
1.1332
1.25628
1.35363
1.39385
1.39977
1.4
1.40001
1.40001
1.40001
0.696034
0.621139
0.498488
0.452016
0.460945
0.480646
0.510386
0.572821
0.688261
0.848475
1.00114
1.13798
1.26521
1.35903
1.39499
1.39983
1.4
1.40001
1.40001
1.40001
0.896999
0.768379
0.617979
0.521473
0.523864
0.535305
0.55029
0.60549
0.720378
0.864539
1.01066
1.15056
1.27799
1.36558
1.3962
1.39989
1.4
1.40001
1.40001
1.40001
1.13367
0.97048
0.798226
0.634178
0.592881
0.577533
0.570882
0.602488
0.7185
0.867345
1.01488
1.15779
1.28596
1.37
1.39703
1.39992
1.4
1.40001
1.40001
1.40001
1.63419
1.2618
1.05224
0.78382
0.634405
0.609788
0.614958
0.649167
0.751496
0.919975
1.08153
1.21698
1.32489
1.38408
1.39882
1.39998
1.4
1.40001
1.40001
1.40001
2.74712
1.99639
1.52738
1.15016
0.85952
0.833313
0.85189
0.910131
1.01344
1.13773
1.24482
1.32313
1.37424
1.39597
1.39979
1.4
1.40001
1.40001
1.40001
1.40001
3.16203
2.81612
2.29465
1.83237
1.37853
1.18919
1.18863
1.23482
1.31935
1.38018
1.40168
1.40081
1.39816
1.39919
1.39988
1.4
1.4
1.40001
1.40001
1.40001
2.90117
2.79764
2.6017
2.37586
2.05951
1.77173
1.65494
1.61136
1.57671
1.51758
1.4438
1.40628
1.40013
1.39991
1.39996
1.4
1.4
1.40001
1.40001
1.40001
2.05016
2.43172
2.47908
2.36907
2.1921
1.99883
1.83986
1.71712
1.60697
1.50468
1.42923
1.40295
1.40007
1.4
1.4
1.4
1.4
1.40001
1.40001
1.40001
1.47671
1.68737
1.91973
2.06218
2.02986
1.93274
1.80032
1.66711
1.54396
1.44877
1.40745
1.40038
1.40001
1.4
1.4
1.4
1.4
1.40001
1.40001
1.40001
1.40264
1.41611
1.46144
1.5414
1.60105
1.59674
1.55999
1.496
1.43669
1.40688
1.40048
1.40002
1.40001
1.40001
1.40001
1.40001
1.40001
1.40001
1.40001
1.40001
1.40005
1.40023
1.4013
1.40523
1.41198
1.41462
1.41285
1.40735
1.40212
1.40024
1.40001
1.40001
1.40001
1.40001
1.40001
1.40001
1.40001
1.40001
1.40001
1.40001
1.40001
1.40001
1.40001
1.40005
1.40014
1.40019
1.40018
1.40011
1.40003
1.40001
1.40001
1.40001
1.40001
1.40001
1.40001
1.40001
1.40001
1.40001
1.40001
1.40001
1.40001
1.40001
1.40001
1.40001
1.40001
1.40001
1.40001
1.40001
1.40001
1.40001
1.40001
1.40001
1.40001
1.40001
1.40001
1.40001
1.40001
1.40001
1.40001
1.40001
1.40001
1.40001
1.40001
1.40001
1.40001
1.40001
1.40001
1.40001
1.40001
1.40001
1.40001
1.40001
1.40001
1.40001
1.40001
1.40001
1.40001
1.40001
1.40001
1.40001
1.40001
1.40001
1.40001
1.40001
1.40001
1.40001
1.40001
1.40001
1.40001
1.40001
1.40001
1.40001
1.40001
1.40001
1.40001
1.40001
1.40001
1.40001
1.40001
1.40001
1.40001
1.40001
1.40001
1.40001
1.40001
1.40001
1.40001
1.40001
1.40001
1.40001
1.40001
1.40001
1.40001
1.40001
1.40001
1.40001
1.40001
1.40001
1.40001
1.40001
1.40001
1.40001
1.40001
1.40001
1.40001
1.40001
1.40001
1.40001
1.40001
1.40001
1.40001
1.40001
1.40001
1.40001
1.40001
1.40001
1.40001
1.40001
1.40001
1.40001
1.40001
1.40001
1.40001
1.40001
1.40001
1.40001
1.40001
1.40001
1.40001
1.40001
1.40001
1.40001
1.40001
1.40001
1.40001
1.40001
1.40001
1.40001
1.40001
1.40001
2.15386
3.25324
3.25112
2.61652
1.72349
1.43393
1.40141
1.40003
1.40001
1.40001
1.40001
1.40001
1.40001
1.40001
1.40001
3.12961
3.67212
3.24153
2.00051
1.44722
1.40066
1.40001
1.4
1.40001
1.40001
1.40001
1.40001
1.40001
1.40001
1.40001
3.91982
3.77631
2.60239
1.57042
1.40495
1.40005
1.40001
1.40001
1.40001
1.40001
1.40001
1.40001
1.40001
1.40001
1.40001
4.37626
3.42266
1.84276
1.42133
1.40019
1.40001
1.40001
1.40001
1.40001
1.40001
1.40001
1.40001
1.40001
1.40001
1.40001
4.48916
2.27634
1.45735
1.4006
1.40001
1.40001
1.40001
1.40001
1.40001
1.40001
1.40001
1.40001
1.40001
1.40001
1.40001
2.81726
1.49308
1.40057
1.4
1.4
1.4
1.40001
1.40001
1.40001
1.40001
1.40001
1.40001
1.40001
1.40001
1.40001
1.53316
1.4007
1.4
1.40001
1.40001
1.40001
1.40001
1.40001
1.40001
1.40001
1.40001
1.40001
1.40001
1.40001
1.40001
1.39766
1.39985
1.4
1.4
1.40001
1.40001
1.40001
1.40001
1.40001
1.40001
1.40001
1.40001
1.40001
1.40001
1.40001
1.39996
1.40001
1.40001
1.40001
1.40001
1.40001
1.40001
1.40001
1.40001
1.40001
1.40001
1.40001
1.40001
1.40001
1.40001
1.40001
1.40001
1.40001
1.40001
1.40001
1.40001
1.40001
1.40001
1.40001
1.40001
1.40001
1.40001
1.40001
1.40001
1.40001
1.40001
1.40001
1.40001
1.40001
1.40001
1.40001
1.40001
1.40001
1.40001
1.40001
1.40001
1.40001
1.40001
1.40001
1.40001
1.40001
1.40001
1.40001
1.40001
1.40001
1.40001
1.40001
1.40001
1.40001
1.40001
1.40001
1.40001
1.40001
1.40001
1.40001
1.40001
1.40001
1.40001
1.40001
1.40001
1.40001
1.40001
1.40001
1.40001
1.40001
1.40001
1.40001
1.40001
1.40001
1.40001
1.40001
1.40001
1.40001
1.40001
1.40001
1.40001
1.40001
1.40001
1.40001
1.40001
1.40001
1.40001
1.40001
1.40001
1.40001
1.40001
1.40001
1.40001
1.40001
1.40001
1.40001
1.40001
1.40001
1.40001
1.40001
1.40001
1.40001
1.40001
1.40001
1.40001
1.40001
1.40001
1.40001
1.40001
1.40001
1.40001
1.40001
1.40001
1.40001
1.40001
1.40001
1.40001
1.40001
1.40001
1.40001
1.40001
1.40001
1.40001
1.40001
1.40001
1.40001
1.40001
1.40001
1.40001
1.40001
1.40001
1.40001
1.40001
1.40001
1.40001
1.40001
1.40001
1.40001
1.40001
1.40001
1.40001
1.40001
1.40001
1.40001
1.40001
1.40001
1.40001
1.40001
1.40001
1.40001
1.40001
1.40001
1.40001
1.40001
1.40001
1.40001
1.40001
1.40001
1.40001
1.40001
1.40001
1.40001
1.40001
1.40001
1.40001
1.40001
1.40001
1.40001
1.40001
1.40001
1.40001
1.40001
1.40001
1.40001
1.40001
1.40001
1.40001
1.40001
1.40001
1.40001
1.40001
1.40001
1.40001
1.40001
1.40001
1.40001
1.40001
1.40001
1.40001
1.40001
1.40001
1.40001
1.40001
1.40001
1.40001
1.40001
1.40001
1.40001
1.40001
1.40001
1.40001
1.40001
1.40001
1.40001
1.40001
1.40001
1.40001
1.40001
1.40001
1.40001
1.40001
1.40001
1.40001
1.40001
1.40001
1.40001
1.40001
1.40001
1.40001
1.40001
1.40001
1.40001
1.40001
1.40001
1.40001
1.40001
1.40001
1.40001
1.40001
1.40001
1.40001
1.40001
1.40001
1.40001
1.40001
1.40001
1.40001
1.40001
1.40001
1.40001
1.40001
1.40001
1.40001
1.40001
1.40001
1.40001
1.40001
1.40001
1.40001
1.40001
1.40001
1.40001
1.40001
1.40001
1.40001
1.40001
1.40001
1.40001
1.40001
1.40001
1.40001
1.40001
1.40001
1.40001
1.40001
1.40001
1.40001
1.40001
1.40001
1.40001
1.40001
1.40001
1.40001
1.40001
1.40001
1.40001
1.40001
1.40001
1.40001
1.40001
1.40001
1.40001
1.40001
1.40001
1.40001
1.40001
1.40001
1.40001
1.40001
1.40001
1.40001
1.40001
1.40001
1.40001
1.40001
1.40001
1.40001
1.40001
1.40001
1.40001
1.40001
1.40001
1.40001
1.40001
1.40001
1.40001
1.40001
1.40001
1.40001
1.40001
1.40001
1.40001
1.40001
1.40001
1.40001
1.40001
1.40001
1.40001
1.40001
1.40001
1.40001
1.40001
1.40001
1.40001
1.40001
1.40001
1.40001
1.40001
1.40001
1.40001
1.40001
1.40001
1.40001
1.40001
1.40001
1.40001
1.40001
1.40001
1.40001
1.40001
1.40001
1.40001
1.40001
1.40001
1.40001
1.40001
1.40001
1.40001
1.40001
1.40001
1.40001
1.40001
1.40001
1.40001
1.40001
1.40001
1.40001
1.40001
1.40001
1.40001
1.40001
1.40001
1.40001
1.40001
1.40001
1.40001
1.40001
1.40001
1.40001
1.40001
1.40001
1.40001
1.40001
1.40001
1.40001
1.40001
1.40001
1.40001
1.40001
1.40001
1.40001
1.40001
1.40001
1.40001
1.40001
1.40001
1.40001
1.40001
1.40001
1.40001
1.40001
1.40001
1.40001
1.40001
1.40001
1.40001
1.40001
1.40001
1.40001
1.40001
1.40001
1.40001
1.40001
1.40001
1.40001
1.40001
1.40001
1.40001
1.40001
1.40001
1.40001
1.40001
1.40001
1.40001
1.40001
1.40001
1.40001
1.40001
1.40001
1.40001
1.40001
1.40001
1.40001
1.40001
1.40001
1.40001
1.40001
1.40001
1.40001
1.40001
1.40001
1.40001
1.40001
1.40001
1.40001
1.40001
1.40001
1.40001
1.40001
1.40001
1.40001
1.40001
1.40001
1.40001
1.40001
1.40001
1.40001
1.40001
1.40001
1.40001
1.40001
1.40001
1.40001
1.40001
1.40001
1.40001
1.40001
1.40001
1.40001
1.40001
1.40001
1.40001
1.40001
1.40001
1.40001
1.40001
1.40001
1.40001
1.40001
1.40001
1.40001
1.40001
1.40001
1.40001
1.40001
1.40001
1.40001
1.40001
1.40001
1.40001
1.40001
1.40001
1.40001
1.40001
1.40001
1.40001
1.40001
1.40001
1.40001
1.40001
1.40001
1.40001
1.40001
1.40001
1.40001
1.40001
1.40001
1.40001
1.40001
1.40001
1.40001
1.40001
1.40001
1.40001
1.40001
1.40001
1.40001
1.40001
1.40001
1.40001
1.40001
1.40001
1.40001
1.40001
1.40001
1.40001
1.40001
1.40001
1.40001
1.40001
1.40001
1.40001
1.40001
1.40001
1.40001
1.40001
1.40001
1.40001
1.40001
1.40001
1.40001
1.40001
1.40001
1.40001
1.40001
1.40001
1.40001
1.40001
1.40001
1.40001
1.40001
1.40001
1.40001
1.40001
1.40001
1.40001
1.40001
1.40001
1.40001
1.40001
1.40001
1.40001
1.40001
1.40001
1.40001
1.40001
1.40001
1.40001
1.40001
1.40001
1.40001
1.40001
1.40001
1.40001
1.40001
1.40001
1.40001
1.40001
1.40001
1.40001
1.40001
1.40001
1.40001
1.40001
1.40001
1.40001
1.40001
1.40001
1.40001
1.40001
1.40001
1.40001
1.40001
1.40001
1.40001
1.40001
1.40001
1.40001
1.40001
1.40001
1.40001
1.40001
1.40001
1.40001
1.40001
1.40001
1.40001
1.40001
1.40001
1.40001
1.40001
1.40001
1.40001
1.40001
1.40001
1.40001
1.40001
1.40001
1.40001
1.40001
1.40001
1.40001
1.40001
1.40001
1.40001
1.40001
1.40001
1.40001
1.40001
1.40001
1.40001
1.40001
1.40001
1.40001
1.40001
1.40001
1.40001
1.40001
1.40001
1.40001
1.40001
1.40001
1.40001
1.40001
1.40001
1.40001
1.40001
1.40001
1.40001
1.40001
1.40001
1.40001
1.40001
1.40001
1.40001
1.40001
1.40001
1.40001
1.40001
1.40001
1.40001
1.40001
1.40001
1.40001
1.40001
1.40001
1.40001
1.40001
1.40001
1.40001
1.40001
1.40001
1.40001
1.40001
1.40001
1.40001
1.40001
1.40001
1.40001
1.40001
1.40001
1.40001
1.40001
1.40001
1.40001
1.40001
1.40001
1.40001
1.40001
1.40001
1.40001
1.40001
1.40001
1.40001
1.40001
1.40001
1.40001
1.40001
1.40001
1.40001
1.40001
1.40001
1.40001
1.40001
1.40001
1.40001
1.40001
1.40001
1.40001
1.40001
1.40001
1.40001
1.40001
1.40001
1.40001
1.40001
1.40001
1.40001
1.40001
1.40001
1.40001
1.40001
1.40001
1.40001
1.40001
1.40001
1.40001
1.40001
1.40001
1.40001
1.40001
1.40001
1.40001
1.40001
1.40001
1.40001
1.40001
1.40001
1.40001
1.40001
1.40001
1.40001
1.40001
1.40001
1.40001
1.40001
1.40001
1.40001
1.40001
1.40001
1.40001
1.40001
1.40001
1.40001
1.40001
1.40001
1.40001
1.40001
1.40001
1.40001
1.40001
1.40001
1.40001
1.40001
1.40001
1.40001
1.40001
1.40001
1.40001
1.40001
1.40001
1.40001
1.40001
1.40001
1.40001
1.40001
1.40001
1.40001
1.40001
1.40001
1.40001
1.40001
1.40001
1.40001
1.40001
1.40001
1.40001
1.40001
1.40001
1.40001
1.40001
1.40001
1.40001
1.40001
1.40001
1.40001
1.40001
1.40001
1.40001
1.40001
1.40001
1.40001
1.40001
1.40001
1.40001
1.40001
1.40001
1.40001
1.40001
1.40001
1.40001
1.40001
1.40001
1.40001
1.40001
1.40001
1.40001
1.40001
1.40001
1.40001
1.40001
1.40001
1.40001
1.40001
1.40001
1.40001
1.40001
1.40001
1.40001
1.40001
1.40001
1.40001
1.40001
1.40001
1.40001
1.40001
1.40001
1.40001
1.40001
1.40001
1.40001
1.40001
1.40001
1.40001
1.40001
1.40001
1.40001
1.40001
1.40001
1.40001
1.40001
1.40001
1.40001
1.40001
1.40001
1.39996
1.40001
1.40001
1.40001
1.40001
1.40001
1.40001
1.40001
1.40001
1.40001
1.40001
1.40001
1.40001
1.40001
1.40001
1.39766
1.39985
1.4
1.4
1.40001
1.40001
1.40001
1.40001
1.40001
1.40001
1.40001
1.40001
1.40001
1.40001
1.40001
1.53317
1.4007
1.4
1.40001
1.40001
1.40001
1.40001
1.40001
1.40001
1.40001
1.40001
1.40001
1.40001
1.40001
1.40001
2.81726
1.49308
1.40057
1.4
1.4
1.4
1.40001
1.40001
1.40001
1.40001
1.40001
1.40001
1.40001
1.40001
1.40001
4.48916
2.27635
1.45734
1.4006
1.40001
1.40001
1.40001
1.40001
1.40001
1.40001
1.40001
1.40001
1.40001
1.40001
1.40001
4.37624
3.42261
1.84277
1.42133
1.40019
1.40001
1.40001
1.40001
1.40001
1.40001
1.40001
1.40001
1.40001
1.40001
1.40001
3.9199
3.77628
2.6023
1.5704
1.40495
1.40005
1.40001
1.40001
1.40001
1.40001
1.40001
1.40001
1.40001
1.40001
1.40001
3.12948
3.67216
3.2416
2.00053
1.44723
1.40066
1.40001
1.4
1.40001
1.40001
1.40001
1.40001
1.40001
1.40001
1.40001
2.15418
3.2532
3.25112
2.61654
1.7235
1.43393
1.40141
1.40003
1.40001
1.40001
1.40001
1.40001
1.40001
1.40001
1.40001
1.63298
2.7479
3.16202
2.90117
2.05016
1.47671
1.40264
1.40005
1.40001
1.40001
1.40001
1.40001
1.40001
1.40001
1.40001
1.26101
1.996
2.81613
2.79765
2.43172
1.68737
1.41611
1.40023
1.40001
1.40001
1.40001
1.40001
1.40001
1.40001
1.40001
1.05393
1.52695
2.29452
2.60172
2.47909
1.91973
1.46144
1.4013
1.40001
1.40001
1.40001
1.40001
1.40001
1.40001
1.40001
0.791592
1.14803
1.83193
2.37564
2.36904
2.0622
1.54141
1.40523
1.40005
1.40001
1.40001
1.40001
1.40001
1.40001
1.40001
0.6282
0.860212
1.37859
2.05972
2.19212
2.02987
1.60105
1.41198
1.40014
1.40001
1.40001
1.40001
1.40001
1.40001
1.40001
0.604808
0.838926
1.18882
1.77163
1.99884
1.93274
1.59674
1.41462
1.40019
1.40001
1.40001
1.40001
1.40001
1.40001
1.40001
0.612447
0.859722
1.18755
1.65437
1.8398
1.8003
1.55999
1.41285
1.40018
1.40001
1.40001
1.40001
1.40001
1.40001
1.40001
0.647498
0.920276
1.23265
1.61075
1.71705
1.66709
1.49601
1.40735
1.40011
1.40001
1.40001
1.40001
1.40001
1.40001
1.40001
0.74466
1.01973
1.31754
1.57638
1.60691
1.54395
1.4367
1.40212
1.40003
1.40001
1.40001
1.40001
1.40001
1.40001
1.40001
0.908823
1.1375
1.3795
1.51754
1.50465
1.44877
1.40688
1.40024
1.40001
1.40001
1.40001
1.40001
1.40001
1.40001
1.40001
1.07699
1.24412
1.40151
1.44382
1.42923
1.40745
1.40048
1.40001
1.40001
1.40001
1.40001
1.40001
1.40001
1.40001
1.40001
1.21607
1.32325
1.40087
1.40629
1.40295
1.40038
1.40002
1.40001
1.40001
1.40001
1.40001
1.40001
1.40001
1.40001
1.40001
1.32474
1.37438
1.39819
1.40013
1.40007
1.40001
1.40001
1.40001
1.40001
1.40001
1.40001
1.40001
1.40001
1.40001
1.40001
1.38404
1.39599
1.39919
1.39991
1.4
1.4
1.40001
1.40001
1.40001
1.40001
1.40001
1.40001
1.40001
1.40001
1.40001
1.39882
1.39979
1.39988
1.39996
1.4
1.4
1.40001
1.40001
1.40001
1.40001
1.40001
1.40001
1.40001
1.40001
1.40001
1.39998
1.4
1.4
1.4
1.4
1.4
1.40001
1.40001
1.40001
1.40001
1.40001
1.40001
1.40001
1.40001
1.40001
1.4
1.40001
1.4
1.4
1.4
1.4
1.40001
1.40001
1.40001
1.40001
1.40001
1.40001
1.40001
1.40001
1.40001
1.40001
1.40001
1.40001
1.40001
1.40001
1.40001
1.40001
1.40001
1.40001
1.40001
1.40001
1.40001
1.40001
1.40001
1.40001
1.40001
1.40001
1.40001
1.40001
1.40001
1.40001
1.40001
1.40001
1.40001
1.40001
1.40001
1.40001
1.40001
1.40001
1.40001
1.40001
1.40001
1.40001
1.40001
1.40001
1.40001
1.40001
1.40001
1.40001
1.40001
1.40001
1.40001
1.40001
1.40001
1.40001
1.13253
0.970989
0.799212
0.634961
0.592778
0.565787
0.555467
0.58664
0.701763
0.86956
1.01723
1.15728
1.28525
1.36979
1.39701
1.39992
1.4
1.40001
1.40001
1.40001
0.896481
0.769405
0.615699
0.522127
0.525199
0.530208
0.540367
0.597693
0.721947
0.870492
1.01258
1.14986
1.27718
1.36533
1.39618
1.39989
1.4
1.40001
1.40001
1.40001
0.696071
0.621224
0.495673
0.45378
0.463484
0.480451
0.50691
0.567855
0.691539
0.852702
1.00274
1.13764
1.26457
1.35882
1.39496
1.39983
1.4
1.40001
1.40001
1.40001
0.536853
0.494075
0.406043
0.380993
0.389493
0.415681
0.457902
0.530451
0.688978
0.864745
1.01224
1.13427
1.25618
1.35354
1.39381
1.39976
1.4
1.40001
1.40001
1.40001
0.411769
0.387395
0.337576
0.330176
0.336788
0.361351
0.398326
0.508626
0.702917
0.887888
1.01496
1.12861
1.24837
1.34835
1.3926
1.39969
1.4
1.40001
1.40001
1.40001
0.304261
0.301226
0.284014
0.285442
0.297904
0.321414
0.401117
0.632127
0.900465
1.01554