/*--------------------------------*- C++ -*----------------------------------*\
  =========                 |
  \\      /  F ield         | OpenFOAM: The Open Source CFD Toolbox
   \\    /   O peration     | Website:  https://openfoam.org
    \\  /    A nd           | Version:  7
     \\/     M anipulation  |
\*---------------------------------------------------------------------------*/
FoamFile
{
    version     2.0;
    format      ascii;
    class       volVectorField;
    location    "0.9";
    object      U;
}
// * * * * * * * * * * * * * * * * * * * * * * * * * * * * * * * * * * * * * //

dimensions      [0 1 -1 0 0 0 0];

internalField   nonuniform List<vector> 
3700
(
(1.49902 -0.43321 0)
(1.36302 -0.548599 0)
(1.42935 -0.423966 0)
(1.51977 -0.421545 0)
(1.52534 -0.338429 0)
(1.53942 -0.298256 0)
(1.52787 -0.272314 0)
(1.51377 -0.256923 0)
(1.51821 -0.256235 0)
(1.52393 -0.259351 0)
(1.54497 -0.268421 0)
(1.58207 -0.23274 0)
(1.6401 -0.191658 0)
(1.69599 -0.175673 0)
(1.74631 -0.202925 0)
(1.80461 -0.215513 0)
(1.84572 -0.233858 0)
(1.88858 -0.247491 0)
(1.9492 -0.234296 0)
(2.03391 -0.271696 0)
(1.71618 -1.30776 0)
(1.82891 -1.25521 0)
(2.01557 -1.43881 0)
(2.14537 -1.77561 0)
(2.03592 -1.92658 0)
(1.92144 -1.80447 0)
(1.90919 -1.68633 0)
(1.88586 -1.57264 0)
(1.8656 -1.5513 0)
(1.86896 -1.50631 0)
(1.93244 -1.5233 0)
(1.99406 -1.39069 0)
(2.04426 -1.2789 0)
(2.1112 -1.20498 0)
(2.19717 -1.22304 0)
(2.30275 -1.24793 0)
(2.35341 -1.26379 0)
(2.37606 -1.26783 0)
(2.3848 -1.2476 0)
(2.41814 -1.32287 0)
(1.76405 -1.32766 0)
(1.92166 -1.24748 0)
(2.17213 -1.50955 0)
(2.32943 -1.82772 0)
(2.17226 -2.14868 0)
(2.10205 -2.25767 0)
(2.18461 -2.20928 0)
(2.22041 -2.18459 0)
(2.18198 -2.20935 0)
(2.17823 -2.12219 0)
(2.20307 -2.12383 0)
(2.28738 -2.01274 0)
(2.32271 -1.96122 0)
(2.39776 -1.91289 0)
(2.47056 -1.84029 0)
(2.55917 -1.76019 0)
(2.63004 -1.67714 0)
(2.68914 -1.63454 0)
(2.7135 -1.59413 0)
(2.67868 -1.57043 0)
(1.84206 -1.38326 0)
(1.96608 -1.29481 0)
(2.11304 -1.58114 0)
(2.13062 -1.92549 0)
(2.00958 -2.17419 0)
(2.06952 -2.22153 0)
(2.20658 -2.15729 0)
(2.27003 -2.14614 0)
(2.26983 -2.1573 0)
(2.31751 -2.01239 0)
(2.35138 -2.00422 0)
(2.41886 -1.92425 0)
(2.42334 -1.89559 0)
(2.47919 -1.83376 0)
(2.51956 -1.69469 0)
(2.57849 -1.62018 0)
(2.6243 -1.48148 0)
(2.7386 -1.39652 0)
(2.80379 -1.24129 0)
(2.84717 -1.17927 0)
(1.79719 -1.36802 0)
(1.87966 -1.34918 0)
(1.87935 -1.6798 0)
(1.83588 -2.00719 0)
(1.87877 -2.15891 0)
(1.98296 -2.18835 0)
(2.07484 -2.02669 0)
(2.12527 -2.06481 0)
(2.28918 -2.05407 0)
(2.40736 -1.90308 0)
(2.44213 -1.84023 0)
(2.54787 -1.69146 0)
(2.60554 -1.65772 0)
(2.6201 -1.6826 0)
(2.64017 -1.55107 0)
(2.61812 -1.52556 0)
(2.62582 -1.40315 0)
(2.68175 -1.3438 0)
(2.74516 -1.24789 0)
(2.8326 -1.00046 0)
(1.60838 -1.30495 0)
(1.63754 -1.45231 0)
(1.62673 -1.79097 0)
(1.65007 -2.07893 0)
(1.77798 -2.06047 0)
(1.79907 -2.08517 0)
(1.93156 -1.97064 0)
(1.98588 -1.96131 0)
(2.16829 -1.85823 0)
(2.36661 -1.72701 0)
(2.5029 -1.55825 0)
(2.6103 -1.44007 0)
(2.67389 -1.37828 0)
(2.73005 -1.34964 0)
(2.7785 -1.19397 0)
(2.752 -1.20409 0)
(2.74245 -1.12387 0)
(2.7391 -1.07191 0)
(2.74214 -1.13666 0)
(2.77021 -0.952337 0)
(1.41538 -1.19519 0)
(1.42856 -1.46667 0)
(1.49877 -1.88142 0)
(1.61024 -2.10962 0)
(1.78952 -2.04478 0)
(1.81021 -2.06187 0)
(1.8617 -2.00491 0)
(1.96461 -1.91174 0)
(2.12132 -1.74831 0)
(2.24946 -1.65212 0)
(2.39616 -1.5043 0)
(2.52407 -1.35271 0)
(2.61822 -1.18491 0)
(2.7083 -1.10918 0)
(2.75048 -0.897729 0)
(2.77766 -0.852026 0)
(2.78735 -0.754863 0)
(2.80927 -0.632182 0)
(2.7806 -0.761217 0)
(2.77685 -0.676415 0)
(1.24337 -1.09835 0)
(1.26562 -1.47339 0)
(1.47368 -1.93381 0)
(1.6592 -2.12781 0)
(1.86827 -1.99992 0)
(1.93649 -2.01159 0)
(1.97421 -2.02504 0)
(2.09019 -1.87977 0)
(2.22138 -1.69426 0)
(2.27424 -1.58908 0)
(2.37896 -1.46774 0)
(2.46659 -1.34145 0)
(2.54782 -1.20108 0)
(2.63879 -1.09893 0)
(2.67974 -0.889028 0)
(2.74833 -0.79723 0)
(2.77192 -0.636588 0)
(2.79734 -0.427408 0)
(2.77482 -0.437083 0)
(2.75418 -0.370902 0)
(1.10843 -1.00517 0)
(1.15222 -1.50655 0)
(1.50661 -2.02875 0)
(1.90448 -2.20723 0)
(2.15408 -2.09733 0)
(2.35589 -1.92112 0)
(2.42783 -1.9646 0)
(2.3773 -1.60286 0)
(2.41189 -1.45019 0)
(2.4763 -1.4177 0)
(2.53106 -1.33184 0)
(2.57515 -1.17255 0)
(2.61761 -1.05854 0)
(2.66316 -0.905148 0)
(2.67921 -0.748168 0)
(2.70964 -0.650996 0)
(2.73638 -0.533932 0)
(2.74429 -0.353817 0)
(2.73903 -0.23717 0)
(2.70648 -0.140213 0)
(1.03573 -0.929575 0)
(1.18414 -1.59193 0)
(1.67504 -2.22299 0)
(2.15207 -2.32973 0)
(2.4921 -2.17784 0)
(2.74782 -1.90171 0)
(2.75962 -1.81885 0)
(2.73065 -1.33565 0)
(2.72934 -1.19453 0)
(2.7657 -0.979635 0)
(2.77251 -0.922255 0)
(2.75425 -0.735987 0)
(2.76503 -0.654617 0)
(2.75766 -0.491818 0)
(2.74064 -0.404994 0)
(2.72041 -0.339978 0)
(2.7077 -0.284767 0)
(2.71015 -0.235423 0)
(2.67486 -0.0778725 0)
(2.64674 0.0400555 0)
(1.029 -0.926579 0)
(1.32042 -1.71134 0)
(1.94388 -2.33952 0)
(2.262 -2.30485 0)
(2.40987 -2.03508 0)
(2.49553 -1.77068 0)
(2.51217 -1.65175 0)
(2.6374 -1.20664 0)
(2.72039 -1.11891 0)
(2.75416 -0.803013 0)
(2.76516 -0.696954 0)
(2.73038 -0.454982 0)
(2.74017 -0.339217 0)
(2.72695 -0.173107 0)
(2.70756 -0.0628549 0)
(2.6824 0.00134215 0)
(2.65107 0.056967 0)
(2.64601 0.00765325 0)
(2.58877 0.130802 0)
(2.61388 0.111666 0)
(1.07028 -1.06497 0)
(1.6488 -2.08341 0)
(2.1086 -2.27646 0)
(2.06288 -2.0881 0)
(2.14722 -1.79731 0)
(2.27318 -1.65612 0)
(2.36553 -1.35643 0)
(2.43042 -1.12625 0)
(2.47828 -1.00031 0)
(2.54562 -0.791922 0)
(2.599 -0.618761 0)
(2.61055 -0.393316 0)
(2.63465 -0.22687 0)
(2.63344 -0.0606702 0)
(2.60461 0.110599 0)
(2.58946 0.207345 0)
(2.54182 0.331976 0)
(2.52358 0.301659 0)
(2.47338 0.367952 0)
(2.50702 0.299914 0)
(1.20895 -1.43969 0)
(1.70604 -2.35451 0)
(1.9503 -2.07311 0)
(1.88299 -1.95231 0)
(2.11079 -1.57839 0)
(2.24434 -1.54851 0)
(2.3769 -1.07363 0)
(2.41496 -0.943875 0)
(2.46302 -0.739902 0)
(2.5321 -0.571459 0)
(2.55517 -0.310589 0)
(2.55651 -0.125348 0)
(2.55292 0.0227592 0)
(2.53098 0.154504 0)
(2.48707 0.285642 0)
(2.47784 0.343808 0)
(2.41233 0.471451 0)
(2.36845 0.538367 0)
(2.3252 0.597996 0)
(2.33086 0.553975 0)
(1.19961 -1.58378 0)
(1.56219 -2.27417 0)
(1.86899 -1.97953 0)
(1.97807 -1.78554 0)
(2.25252 -1.1272 0)
(2.40991 -1.23904 0)
(2.4406 -0.522578 0)
(2.51892 -0.390002 0)
(2.52397 -0.124736 0)
(2.56627 -0.0576034 0)
(2.53466 0.147452 0)
(2.48136 0.317754 0)
(2.44986 0.410725 0)
(2.39666 0.508173 0)
(2.34747 0.565095 0)
(2.31701 0.59074 0)
(2.26131 0.646577 0)
(2.22589 0.697544 0)
(2.18015 0.774185 0)
(2.14337 0.811312 0)
(1.16136 -1.62198 0)
(1.49357 -2.1279 0)
(1.91428 -1.67009 0)
(2.12854 -0.903772 0)
(2.31421 -0.695904 0)
(2.45476 -0.254823 0)
(2.54726 -0.241551 0)
(2.50555 0.0829435 0)
(2.49505 0.184294 0)
(2.45426 0.368652 0)
(2.42068 0.472518 0)
(2.33686 0.614831 0)
(2.2847 0.697651 0)
(2.21779 0.783835 0)
(2.17156 0.813201 0)
(2.12347 0.842063 0)
(2.07405 0.882267 0)
(2.06896 0.895821 0)
(2.04546 0.936176 0)
(2.07915 0.958495 0)
(1.10325 -1.50971 0)
(1.46557 -1.715 0)
(2.00494 -1.25829 0)
(2.4866 0.222529 0)
(2.48594 -0.473225 0)
(2.46144 0.0410434 0)
(2.44458 0.0805135 0)
(2.37455 0.288464 0)
(2.34967 0.363551 0)
(2.32864 0.541285 0)
(2.21538 0.725833 0)
(2.13596 0.843689 0)
(2.07788 0.912149 0)
(2.02592 0.96778 0)
(1.98857 0.976849 0)
(1.95753 0.995814 0)
(1.95669 1.01454 0)
(1.97486 1.00255 0)
(2.00297 1.00061 0)
(2.08965 0.978732 0)
(1.0987 -0.598596 0)
(1.50655 -0.848953 0)
(2.24543 0.0274753 0)
(2.39256 0.0263665 0)
(2.35798 0.171873 0)
(2.35458 0.240908 0)
(2.27437 0.501523 0)
(2.19953 0.658837 0)
(2.13025 0.776123 0)
(2.09777 0.896288 0)
(1.97967 0.993196 0)
(1.9176 1.05669 0)
(1.88615 1.08144 0)
(1.87219 1.09153 0)
(1.87489 1.05767 0)
(1.89967 1.04946 0)
(1.96459 1.02171 0)
(2.17227 0.899658 0)
(2.39697 0.782647 0)
(2.80077 0.425658 0)
(0.953504 0.0595134 0)
(1.9437 0.277859 0)
(2.25239 0.430724 0)
(2.24553 0.447697 0)
(2.20522 0.621238 0)
(2.13212 0.781634 0)
(2.03636 0.905327 0)
(1.96255 0.972109 0)
(1.9192 1.0355 0)
(1.85067 1.12746 0)
(1.78831 1.1589 0)
(1.79299 1.15522 0)
(1.81111 1.13494 0)
(1.85218 1.09076 0)
(2.04422 0.952296 0)
(2.26533 0.826277 0)
(2.67508 0.496879 0)
(3.03952 0.0894089 0)
(3.05247 -0.0224177 0)
(3.00345 -0.00435387 0)
(1.00706 0.0345814 0)
(1.92258 0.771331 0)
(2.14075 0.75962 0)
(1.98658 0.97201 0)
(1.97251 0.985712 0)
(1.8664 1.09002 0)
(1.78649 1.14169 0)
(1.7579 1.14947 0)
(1.7574 1.1654 0)
(1.73834 1.20369 0)
(1.72285 1.19593 0)
(1.86329 1.06956 0)
(2.0927 0.886658 0)
(2.50282 0.575154 0)
(2.98844 0.133407 0)
(3.07197 -0.0288381 0)
(3.00773 -0.00749694 0)
(3.00277 -0.00376234 0)
(3.00116 -0.002145 0)
(3.00009 -0.000487859 0)
(1.16751 0.776795 0)
(1.84367 1.14176 0)
(1.83645 1.16613 0)
(1.74053 1.19588 0)
(1.71252 1.20223 0)
(1.65927 1.24468 0)
(1.65246 1.21524 0)
(1.72042 1.16715 0)
(1.75446 1.22903 0)
(1.79107 1.14002 0)
(2.27222 0.736938 0)
(2.86322 0.203763 0)
(3.09904 -0.0301405 0)
(3.02063 -0.0124677 0)
(3.00455 -0.0054355 0)
(3.00182 -0.00299131 0)
(3.00007 -0.000597458 0)
(2.99998 -2.28955e-05 0)
(2.99999 1.38317e-05 0)
(3 5.68913e-06 0)
(1.5832 1.25992 0)
(1.588 1.26488 0)
(1.59293 1.26979 0)
(1.59685 1.26026 0)
(1.60677 1.24537 0)
(1.58358 1.26736 0)
(1.89465 1.15276 0)
(2.92438 0.397082 0)
(3.36533 -0.604405 0)
(3 -1.5776e-10 0)
(3 1.35681e-10 0)
(3 -9.46877e-13 0)
(3 -1.72542e-13 0)
(3 -7.84084e-13 0)
(3 1.26248e-13 0)
(3 -8.25658e-14 0)
(3 -5.65246e-13 0)
(3 1.97025e-14 0)
(3 2.52907e-13 0)
(3 4.03525e-14 0)
(1.5838 1.25207 0)
(1.59416 1.25799 0)
(1.603 1.26242 0)
(1.60445 1.26323 0)
(1.65497 1.24019 0)
(1.67389 1.25004 0)
(2.26243 0.738695 0)
(2.99495 0.0174439 0)
(3 3.32225e-08 0)
(3 7.77226e-11 0)
(3 -6.45039e-13 0)
(3 1.92412e-15 0)
(3 1.27554e-15 0)
(3 2.59226e-16 0)
(3 -1.36775e-15 0)
(3 -8.65274e-16 0)
(3 -2.18183e-15 0)
(3 -2.94695e-15 0)
(3 -2.8953e-15 0)
(3 -2.95422e-15 0)
(1.58478 1.24853 0)
(1.60435 1.25358 0)
(1.60996 1.25624 0)
(1.60331 1.28199 0)
(1.74599 1.20452 0)
(2.30711 0.782598 0)
(3.00485 -0.00700085 0)
(3.0001 -0.000441507 0)
(3 7.86772e-07 0)
(3 -9.73849e-12 0)
(3 1.9549e-14 0)
(3 1.74061e-15 0)
(3 4.54886e-16 0)
(3 -5.01411e-16 0)
(3 -1.7119e-15 0)
(3 -2.33737e-15 0)
(3 -2.39319e-15 0)
(3 -1.59776e-15 0)
(3 -2.15629e-15 0)
(3 -2.67503e-15 0)
(1.58385 1.25754 0)
(1.60205 1.25776 0)
(1.62083 1.2563 0)
(1.62961 1.27495 0)
(1.82397 1.12223 0)
(2.73327 0.235462 0)
(3.00475 -0.000935778 0)
(2.99991 7.47072e-05 0)
(3 -8.93747e-07 0)
(3 9.29278e-12 0)
(3 -8.33476e-15 0)
(3 2.02434e-15 0)
(3 3.03159e-16 0)
(3 -1.51909e-15 0)
(3 -2.15868e-15 0)
(3 -2.2355e-15 0)
(3 -2.31408e-15 0)
(3 -1.16422e-15 0)
(3 -1.67822e-15 0)
(3 -2.67534e-15 0)
(1.58521 1.26937 0)
(1.59386 1.26427 0)
(1.62519 1.2606 0)
(1.73387 1.2124 0)
(2.38628 0.642747 0)
(3.01953 -0.0195276 0)
(2.99975 0.000144304 0)
(3 -4.37602e-06 0)
(3 8.51096e-08 0)
(3 -1.22958e-11 0)
(3 5.82779e-16 0)
(3 2.23025e-15 0)
(3 -5.12155e-17 0)
(3 -2.20476e-15 0)
(3 -1.91652e-15 0)
(3 -2.22341e-15 0)
(3 -1.3324e-15 0)
(3 -1.61947e-15 0)
(3 -1.70725e-15 0)
(3 -2.52661e-15 0)
(1.58461 1.28038 0)
(1.58092 1.27695 0)
(1.63687 1.26174 0)
(1.74187 1.17305 0)
(2.67065 0.274935 0)
(3 -5.57706e-10 0)
(3 1.49395e-08 0)
(3 -1.31111e-08 0)
(3 5.52701e-10 0)
(3 5.8489e-12 0)
(3 -1.41595e-14 0)
(3 1.69977e-15 0)
(3 3.26669e-16 0)
(3 -2.25276e-15 0)
(3 -1.90495e-15 0)
(3 -2.40501e-15 0)
(3 -8.82304e-16 0)
(3 -1.03702e-15 0)
(3 -2.52702e-15 0)
(3 -3.56379e-15 0)
(1.58272 1.29398 0)
(1.56467 1.29471 0)
(1.68513 1.23505 0)
(2.18681 0.823854 0)
(3.02181 -0.0219312 0)
(3 8.37356e-11 0)
(3 -1.34059e-10 0)
(3 7.57566e-11 0)
(3 -4.34681e-12 0)
(3 -2.16674e-14 0)
(3 2.35943e-15 0)
(3 1.13188e-15 0)
(3 4.39207e-16 0)
(3 -1.68376e-15 0)
(3 -1.45852e-15 0)
(3 -1.09331e-15 0)
(3 9.40237e-17 0)
(3 -1.12102e-15 0)
(3 -2.16339e-15 0)
(3 -1.50864e-15 0)
(1.58812 1.32095 0)
(1.49477 1.32902 0)
(1.77868 1.17656 0)
(2.4552 0.526726 0)
(3.0004 -0.000292476 0)
(3 -3.0362e-10 0)
(3 7.03976e-13 0)
(3 -4.76721e-13 0)
(3 3.55773e-14 0)
(3 8.67151e-16 0)
(3 6.51716e-16 0)
(3 1.25209e-15 0)
(3 1.21098e-15 0)
(3 -7.55962e-17 0)
(3 -4.46044e-16 0)
(3 -7.57558e-17 0)
(3 8.61254e-16 0)
(3 2.33125e-16 0)
(3 3.51668e-16 0)
(3 2.71588e-16 0)
(1.58764 1.30919 0)
(1.46792 1.36613 0)
(1.90834 1.05727 0)
(2.83628 0.141196 0)
(3 -8.61785e-09 0)
(3 1.03678e-10 0)
(3 -1.99861e-15 0)
(3 1.646e-15 0)
(3 1.11261e-15 0)
(3 1.1041e-15 0)
(3 1.00532e-15 0)
(3 1.2395e-15 0)
(3 1.04925e-15 0)
(3 1.14425e-16 0)
(3 -3.96439e-16 0)
(3 -1.77766e-16 0)
(3 6.1037e-16 0)
(3 1.07952e-15 0)
(3 1.43871e-15 0)
(3 1.22963e-15 0)
(1.60272 1.29308 0)
(1.47639 1.37216 0)
(2.19052 0.807996 0)
(3.01072 -0.00942512 0)
(3 2.28138e-08 0)
(3 -2.37601e-11 0)
(3 8.60635e-15 0)
(3 1.32429e-15 0)
(3 1.33638e-15 0)
(3 9.03271e-16 0)
(3 6.01272e-16 0)
(3 8.2216e-16 0)
(3 4.19199e-16 0)
(3 -2.74101e-16 0)
(3 -5.27938e-16 0)
(3 -4.26673e-16 0)
(3 -1.2156e-16 0)
(3 5.83298e-16 0)
(3 1.10757e-15 0)
(3 1.74805e-15 0)
(1.62105 1.28086 0)
(1.55707 1.32148 0)
(2.39959 0.549025 0)
(3 -2.58396e-12 0)
(3 -2.1343e-11 0)
(3 2.27158e-13 0)
(3 2.36528e-16 0)
(3 1.75192e-15 0)
(3 8.84577e-16 0)
(3 4.14711e-16 0)
(3 2.11489e-16 0)
(3 9.61502e-17 0)
(3 3.50812e-17 0)
(3 -7.34759e-16 0)
(3 -5.81292e-16 0)
(3 -7.19444e-16 0)
(3 -6.52157e-16 0)
(3 -1.65335e-16 0)
(3 2.23658e-16 0)
(3 1.20935e-15 0)
(1.6421 1.26666 0)
(1.6442 1.23724 0)
(2.66201 0.275253 0)
(3 9.16106e-13 0)
(3 -1.14757e-13 0)
(3 -2.58209e-15 0)
(3 1.11805e-15 0)
(3 5.90493e-16 0)
(3 -1.51535e-16 0)
(3 -5.50069e-16 0)
(3 -7.68825e-16 0)
(3 -4.8976e-16 0)
(3 -4.68439e-16 0)
(3 -6.75559e-16 0)
(3 -5.78108e-16 0)
(3 -5.28197e-16 0)
(3 -6.37335e-16 0)
(3 -5.50606e-16 0)
(3 8.80712e-17 0)
(3 -2.85862e-17 0)
(1.66195 1.24001 0)
(1.84228 1.09894 0)
(2.88327 0.0899568 0)
(3 -4.07117e-15 0)
(3 6.71732e-16 0)
(3 -2.18645e-16 0)
(3 -7.68551e-16 0)
(3 -2.08324e-16 0)
(3 3.42842e-17 0)
(3 -4.1281e-16 0)
(3 -1.00682e-15 0)
(3 -1.30198e-15 0)
(3 -1.0817e-15 0)
(3 -6.10132e-16 0)
(3 -5.94299e-16 0)
(3 -1.04427e-15 0)
(3 -1.06184e-15 0)
(3 -5.4505e-16 0)
(3 -8.11721e-17 0)
(3 -3.97879e-17 0)
(1.67095 1.19974 0)
(1.88423 0.989089 0)
(2.98799 0.00994112 0)
(3 -9.95477e-17 0)
(3 1.07232e-16 0)
(3 -5.11095e-16 0)
(3 -6.49985e-16 0)
(3 -4.87896e-16 0)
(3 -4.79603e-17 0)
(3 7.3871e-17 0)
(3 -1.67607e-16 0)
(3 -4.05748e-16 0)
(3 -6.66577e-16 0)
(3 3.60694e-16 0)
(3 5.46219e-16 0)
(3 2.07173e-16 0)
(3 -4.17076e-16 0)
(3 -6.0027e-16 0)
(3 -2.03977e-16 0)
(3 -2.14491e-16 0)
(1.69382 1.1701 0)
(2.05623 0.82121 0)
(3 -5.31329e-16 0)
(3 1.36228e-16 0)
(3 4.5535e-16 0)
(3 -3.41451e-17 0)
(3 -1.11984e-15 0)
(3 -1.62939e-15 0)
(3 -1.33607e-15 0)
(3 -1.27274e-15 0)
(3 -1.26874e-15 0)
(3 -1.2577e-15 0)
(3 -1.28548e-15 0)
(3 -1.38015e-15 0)
(3 -6.69161e-16 0)
(3 -7.75048e-16 0)
(3 -1.06676e-15 0)
(3 -8.07163e-16 0)
(3 -2.8058e-16 0)
(3 -6.06528e-17 0)
(1.76647 1.10133 0)
(2.2182 0.660713 0)
(3 -7.1389e-16 0)
(3 -1.12277e-16 0)
(3 5.16692e-17 0)
(3 -8.14604e-16 0)
(3 -1.4919e-15 0)
(3 -1.55049e-15 0)
(3 -1.74382e-15 0)
(3 -1.67328e-15 0)
(3 -1.8777e-15 0)
(3 -2.46543e-15 0)
(3 -2.51744e-15 0)
(3 -2.16027e-15 0)
(3 -1.68674e-15 0)
(3 -1.49996e-15 0)
(3 -1.80855e-15 0)
(3 -1.85964e-15 0)
(3 -1.66649e-15 0)
(3 -1.55384e-15 0)
(1.81617 1.00634 0)
(2.44032 0.446176 0)
(3 -6.27451e-16 0)
(3 -3.51688e-16 0)
(3 -3.60625e-16 0)
(3 -1.36922e-16 0)
(3 -8.67387e-16 0)
(3 -2.12323e-15 0)
(3 -2.71058e-15 0)
(3 -2.44591e-15 0)
(3 -1.96699e-15 0)
(3 -1.72344e-15 0)
(3 -2.80161e-15 0)
(3 -3.37984e-15 0)
(3 -2.86369e-15 0)
(3 -1.46686e-15 0)
(3 -4.15254e-16 0)
(3 -1.13454e-16 0)
(3 5.25592e-16 0)
(3 3.80121e-16 0)
(1.94159 0.87853 0)
(2.70828 0.210689 0)
(3 2.03314e-16 0)
(3 -3.08903e-16 0)
(3 -5.49316e-16 0)
(3 -1.79078e-16 0)
(3 -5.43398e-16 0)
(3 -1.93479e-15 0)
(3 -2.32098e-15 0)
(3 -2.14576e-15 0)
(3 -1.25682e-15 0)
(3 -1.09366e-15 0)
(3 -1.22106e-15 0)
(3 -8.61014e-16 0)
(3 -1.75427e-16 0)
(3 7.54389e-16 0)
(3 1.42301e-15 0)
(3 1.54504e-15 0)
(3 1.42464e-15 0)
(3 1.5617e-15 0)
(2.12607 0.663517 0)
(2.99094 0.000127814 0)
(3 -1.53192e-15 0)
(3 -8.45608e-16 0)
(3 -9.99074e-16 0)
(3 -1.32928e-16 0)
(3 1.84953e-15 0)
(3 4.3958e-16 0)
(3 -5.11452e-16 0)
(3 -5.03809e-16 0)
(3 -3.08817e-16 0)
(3 -1.96959e-16 0)
(3 -4.35601e-16 0)
(3 -9.86163e-16 0)
(3 -1.49742e-15 0)
(3 -3.0185e-15 0)
(3 -3.29105e-15 0)
(3 -2.79489e-15 0)
(3 -2.03186e-15 0)
(3 -1.58571e-15 0)
(1.99848 0.370731 0)
(2.99993 -1.28392e-05 0)
(3 -2.42804e-16 0)
(3 5.72394e-16 0)
(3 1.0454e-15 0)
(3 2.45473e-15 0)
(3 3.10844e-15 0)
(3 2.03514e-15 0)
(3 1.29655e-15 0)
(3 3.97072e-16 0)
(3 6.25397e-16 0)
(3 9.15976e-16 0)
(3 1.15987e-15 0)
(3 1.1216e-15 0)
(3 -5.97217e-16 0)
(3 -2.83074e-15 0)
(3 -4.2701e-15 0)
(3 -3.93292e-15 0)
(3 -2.53767e-15 0)
(3 -1.7361e-15 0)
(1.99848 -0.370731 0)
(2.99993 1.28393e-05 0)
(3 -2.53554e-16 0)
(3 3.29252e-16 0)
(3 5.03389e-16 0)
(3 2.51223e-16 0)
(3 1.28339e-15 0)
(3 1.31964e-15 0)
(3 1.10144e-15 0)
(3 5.74816e-16 0)
(3 1.13841e-16 0)
(3 1.56058e-16 0)
(3 -1.67154e-16 0)
(3 -6.62919e-16 0)
(3 -9.88576e-16 0)
(3 -1.7025e-15 0)
(3 -1.46847e-15 0)
(3 -1.35382e-15 0)
(3 -1.60746e-15 0)
(3 -1.69984e-15 0)
(2.12607 -0.663517 0)
(2.99094 -0.000127813 0)
(3 2.45201e-17 0)
(3 8.41832e-16 0)
(3 1.01268e-15 0)
(3 9.90268e-16 0)
(3 6.44742e-16 0)
(3 2.70291e-16 0)
(3 2.95625e-16 0)
(3 -1.13498e-16 0)
(3 -4.34494e-16 0)
(3 -5.82399e-16 0)
(3 -1.00615e-15 0)
(3 -1.55877e-15 0)
(3 -1.82095e-15 0)
(3 -1.32055e-15 0)
(3 -5.2855e-16 0)
(3 -1.93961e-16 0)
(3 9.92603e-17 0)
(3 3.67712e-16 0)
(1.94159 -0.87853 0)
(2.70828 -0.210689 0)
(3 1.22039e-15 0)
(3 1.07104e-15 0)
(3 7.25938e-16 0)
(3 2.88654e-16 0)
(3 -1.82837e-16 0)
(3 -3.01111e-16 0)
(3 4.90676e-17 0)
(3 6.47887e-16 0)
(3 1.56569e-15 0)
(3 1.64654e-15 0)
(3 2.13505e-15 0)
(3 1.91435e-15 0)
(3 1.75897e-15 0)
(3 2.24149e-15 0)
(3 2.85154e-15 0)
(3 3.12941e-15 0)
(3 2.5752e-15 0)
(3 1.7147e-15 0)
(1.81617 -1.00634 0)
(2.44032 -0.446176 0)
(3 -1.74666e-15 0)
(3 -1.76141e-15 0)
(3 -1.25683e-15 0)
(3 8.89477e-16 0)
(3 1.49591e-15 0)
(3 1.0011e-15 0)
(3 4.68689e-16 0)
(3 8.50398e-16 0)
(3 1.47368e-15 0)
(3 2.30665e-15 0)
(3 2.44328e-15 0)
(3 2.55862e-15 0)
(3 2.63805e-15 0)
(3 2.98168e-15 0)
(3 2.8297e-15 0)
(3 2.19659e-15 0)
(3 1.49256e-15 0)
(3 1.24481e-15 0)
(1.76647 -1.10133 0)
(2.2182 -0.660713 0)
(3 -2.92202e-15 0)
(3 -3.33088e-15 0)
(3 -3.13264e-15 0)
(3 -1.83677e-15 0)
(3 -7.15528e-16 0)
(3 1.22949e-15 0)
(3 1.05406e-15 0)
(3 1.05975e-15 0)
(3 1.4954e-15 0)
(3 1.62178e-15 0)
(3 2.24485e-15 0)
(3 2.03641e-15 0)
(3 1.42414e-15 0)
(3 1.38883e-15 0)
(3 1.37829e-15 0)
(3 1.29139e-15 0)
(3 9.04004e-16 0)
(3 9.47012e-16 0)
(1.69382 -1.1701 0)
(2.05623 -0.82121 0)
(3 -1.94791e-15 0)
(3 -2.43947e-15 0)
(3 -2.4033e-15 0)
(3 -1.54445e-15 0)
(3 -3.53236e-16 0)
(3 6.72445e-16 0)
(3 1.27718e-15 0)
(3 1.32822e-15 0)
(3 1.61061e-15 0)
(3 1.34402e-15 0)
(3 1.15369e-15 0)
(3 5.26616e-16 0)
(3 -7.22519e-16 0)
(3 -7.7137e-16 0)
(3 -2.66645e-16 0)
(3 -9.54718e-16 0)
(3 -1.4457e-15 0)
(3 -1.65761e-15 0)
(1.67095 -1.19974 0)
(1.88423 -0.989089 0)
(2.98799 -0.0099411 0)
(3 -6.7554e-16 0)
(3 -1.723e-15 0)
(3 -5.3162e-16 0)
(3 1.32519e-15 0)
(3 1.66998e-15 0)
(3 1.5463e-15 0)
(3 9.48605e-16 0)
(3 6.30144e-16 0)
(3 5.97781e-16 0)
(3 4.04835e-16 0)
(3 -5.07864e-16 0)
(3 -9.51868e-16 0)
(3 -9.23359e-16 0)
(3 -1.00162e-15 0)
(3 -1.70947e-15 0)
(3 -1.43402e-15 0)
(3 -1.45721e-15 0)
(1.66195 -1.24001 0)
(1.84228 -1.09894 0)
(2.88327 -0.0899568 0)
(3 4.86868e-15 0)
(3 -1.07573e-16 0)
(3 3.26484e-16 0)
(3 1.78124e-15 0)
(3 1.65568e-15 0)
(3 2.00872e-15 0)
(3 1.49022e-15 0)
(3 9.15893e-16 0)
(3 3.65436e-16 0)
(3 4.18577e-16 0)
(3 1.61645e-16 0)
(3 -2.83888e-16 0)
(3 1.4489e-16 0)
(3 3.34774e-16 0)
(3 3.79951e-16 0)
(3 -2.70034e-16 0)
(3 5.44626e-18 0)
(1.6421 -1.26666 0)
(1.6442 -1.23724 0)
(2.66201 -0.275253 0)
(3 -9.14556e-13 0)
(3 1.14908e-13 0)
(3 2.33045e-15 0)
(3 8.3192e-16 0)
(3 2.60109e-15 0)
(3 2.36669e-15 0)
(3 2.10835e-15 0)
(3 1.78506e-15 0)
(3 1.76609e-15 0)
(3 1.69944e-15 0)
(3 1.15935e-15 0)
(3 6.56212e-16 0)
(3 3.01205e-16 0)
(3 -5.88824e-16 0)
(3 7.35999e-17 0)
(3 -3.28175e-16 0)
(3 1.08386e-16 0)
(1.62105 -1.28086 0)
(1.55707 -1.32148 0)
(2.39959 -0.549025 0)
(3 2.58681e-12 0)
(3 2.13412e-11 0)
(3 -2.2548e-13 0)
(3 2.09367e-15 0)
(3 1.8184e-15 0)
(3 2.625e-15 0)
(3 2.66669e-15 0)
(3 2.54989e-15 0)
(3 2.3801e-15 0)
(3 1.47815e-15 0)
(3 9.98378e-16 0)
(3 8.61514e-16 0)
(3 -5.04685e-16 0)
(3 -1.68127e-15 0)
(3 -1.13222e-15 0)
(3 -4.37919e-16 0)
(3 -8.83754e-16 0)
(1.60272 -1.29308 0)
(1.47639 -1.37216 0)
(2.19052 -0.807996 0)
(3.01072 0.00942512 0)
(3 -2.28136e-08 0)
(3 2.37691e-11 0)
(3 -4.9053e-15 0)
(3 2.52636e-15 0)
(3 2.36842e-15 0)
(3 2.70024e-15 0)
(3 1.93842e-15 0)
(3 1.35871e-15 0)
(3 1.00416e-15 0)
(3 7.92e-16 0)
(3 2.45133e-16 0)
(3 -9.57494e-16 0)
(3 -1.583e-15 0)
(3 -5.3003e-16 0)
(3 -1.09947e-15 0)
(3 -1.78379e-15 0)
(1.58764 -1.30919 0)
(1.46792 -1.36613 0)
(1.90834 -1.05727 0)
(2.83628 -0.141196 0)
(3 8.61774e-09 0)
(3 -1.03679e-10 0)
(3 6.25663e-15 0)
(3 2.37341e-15 0)
(3 2.53232e-15 0)
(3 2.32264e-15 0)
(3 1.30246e-15 0)
(3 8.08498e-16 0)
(3 8.71381e-17 0)
(3 -4.67524e-16 0)
(3 -2.60886e-16 0)
(3 4.09083e-16 0)
(3 -5.78281e-16 0)
(3 -1.05354e-15 0)
(3 -1.21527e-15 0)
(3 -1.62628e-15 0)
(1.58812 -1.32095 0)
(1.49477 -1.32902 0)
(1.77868 -1.17656 0)
(2.4552 -0.526726 0)
(3.0004 0.00029248 0)
(3 3.03632e-10 0)
(3 -6.99855e-13 0)
(3 4.79994e-13 0)
(3 -3.25524e-14 0)
(3 1.88374e-15 0)
(3 5.30125e-16 0)
(3 -1.74244e-17 0)
(3 -1.02134e-15 0)
(3 -1.55373e-15 0)
(3 -7.77074e-16 0)
(3 2.07529e-15 0)
(3 3.46505e-16 0)
(3 -1.55877e-15 0)
(3 -1.0215e-15 0)
(3 -1.29627e-15 0)
(1.58272 -1.29398 0)
(1.56467 -1.29471 0)
(1.68513 -1.23505 0)
(2.18681 -0.823854 0)
(3.02181 0.0219312 0)
(3 -8.37347e-11 0)
(3 1.34062e-10 0)
(3 -7.57539e-11 0)
(3 4.35018e-12 0)
(3 2.42482e-14 0)
(3 -9.38346e-16 0)
(3 -4.88001e-16 0)
(3 -1.62821e-15 0)
(3 -1.37655e-15 0)
(3 -2.81239e-16 0)
(3 6.61382e-16 0)
(3 -1.41798e-16 0)
(3 -1.76372e-15 0)
(3 -8.27017e-16 0)
(3 -9.89621e-16 0)
(1.58461 -1.28038 0)
(1.58092 -1.27695 0)
(1.63687 -1.26174 0)
(1.74187 -1.17305 0)
(2.67065 -0.274935 0)
(3 5.577e-10 0)
(3 -1.49395e-08 0)
(3 1.31111e-08 0)
(3 -5.52697e-10 0)
(3 -5.8476e-12 0)
(3 1.52232e-14 0)
(3 -9.58858e-16 0)
(3 -1.6116e-15 0)
(3 -1.10142e-15 0)
(3 -7.81285e-16 0)
(3 -9.53592e-16 0)
(3 -1.12839e-15 0)
(3 -4.06381e-17 0)
(3 3.14495e-16 0)
(3 -1.91172e-15 0)
(1.58521 -1.26937 0)
(1.59386 -1.26427 0)
(1.62519 -1.2606 0)
(1.73387 -1.2124 0)
(2.38628 -0.642748 0)
(3.01953 0.0195276 0)
(2.99975 -0.000144304 0)
(3 4.37602e-06 0)
(3 -8.51096e-08 0)
(3 1.23037e-11 0)
(3 1.23005e-15 0)
(3 -9.00524e-16 0)
(3 -1.53168e-15 0)
(3 -1.49643e-15 0)
(3 -1.27947e-15 0)
(3 -1.41634e-15 0)
(3 -6.88213e-16 0)
(3 1.67772e-15 0)
(3 1.757e-15 0)
(3 1.19452e-15 0)
(1.58385 -1.25754 0)
(1.60205 -1.25776 0)
(1.62083 -1.2563 0)
(1.62961 -1.27495 0)
(1.82397 -1.12223 0)
(2.73327 -0.235462 0)
(3.00475 0.000935783 0)
(2.99991 -7.47072e-05 0)
(3 8.93746e-07 0)
(3 -9.29674e-12 0)
(3 9.40226e-15 0)
(3 -6.96378e-16 0)
(3 -1.41136e-15 0)
(3 -2.11842e-15 0)
(3 -1.74991e-15 0)
(3 -1.22478e-15 0)
(3 -6.71771e-16 0)
(3 3.32172e-15 0)
(3 1.29977e-15 0)
(3 1.77041e-15 0)
(1.58478 -1.24853 0)
(1.60435 -1.25358 0)
(1.60996 -1.25624 0)
(1.60331 -1.28199 0)
(1.74599 -1.20452 0)
(2.30711 -0.782599 0)
(3.00485 0.00700076 0)
(3.0001 0.000441509 0)
(3 -7.86771e-07 0)
(3 9.73969e-12 0)
(3 -1.88733e-14 0)
(3 -1.40926e-15 0)
(3 -8.89762e-16 0)
(3 -1.94929e-15 0)
(3 -2.43089e-15 0)
(3 -1.59241e-15 0)
(3 -1.62353e-15 0)
(3 7.01971e-16 0)
(3 1.02327e-15 0)
(3 2.61719e-15 0)
(1.5838 -1.25207 0)
(1.59416 -1.25799 0)
(1.603 -1.26242 0)
(1.60445 -1.26323 0)
(1.65497 -1.24019 0)
(1.67389 -1.25004 0)
(2.26243 -0.738695 0)
(2.99495 -0.0174441 0)
(3 -3.32223e-08 0)
(3 -7.77209e-11 0)
(3 6.44877e-13 0)
(3 -1.19154e-15 0)
(3 -6.34681e-16 0)
(3 -2.65967e-15 0)
(3 -8.33171e-16 0)
(3 -1.1317e-15 0)
(3 -1.5412e-15 0)
(3 -3.53868e-16 0)
(3 3.48338e-16 0)
(3 2.68429e-15 0)
(1.5832 -1.25992 0)
(1.588 -1.26488 0)
(1.59293 -1.26979 0)
(1.59685 -1.26026 0)
(1.60677 -1.24537 0)
(1.58358 -1.26736 0)
(1.89465 -1.15276 0)
(2.92438 -0.397082 0)
(3.36533 0.604403 0)
(3 1.57762e-10 0)
(3 -1.35678e-10 0)
(3 9.48201e-13 0)
(3 1.741e-13 0)
(3 7.82539e-13 0)
(3 -1.26792e-13 0)
(3 8.29687e-14 0)
(3 5.62516e-13 0)
(3 -2.22616e-14 0)
(3 -2.55844e-13 0)
(3 -4.41508e-14 0)
(1.16749 -0.77681 0)
(1.84366 -1.14177 0)
(1.83646 -1.16612 0)
(1.74053 -1.19589 0)
(1.71252 -1.20223 0)
(1.65927 -1.24468 0)
(1.65247 -1.21524 0)
(1.72042 -1.16715 0)
(1.75446 -1.22903 0)
(1.79107 -1.14001 0)
(2.27222 -0.736936 0)
(2.86322 -0.203765 0)
(3.09904 0.03014 0)
(3.02063 0.0124679 0)
(3.00455 0.0054356 0)
(3.00182 0.00299134 0)
(3.00007 0.000597484 0)
(2.99998 2.28953e-05 0)
(2.99999 -1.38318e-05 0)
(3 -5.68922e-06 0)
(1.00706 -0.0345954 0)
(1.9226 -0.771261 0)
(2.14073 -0.759657 0)
(1.98661 -0.971964 0)
(1.9725 -0.985723 0)
(1.86641 -1.09002 0)
(1.78648 -1.14169 0)
(1.75791 -1.14947 0)
(1.7574 -1.1654 0)
(1.73835 -1.20369 0)
(1.72284 -1.19593 0)
(1.8633 -1.06956 0)
(2.09271 -0.886656 0)
(2.50282 -0.575159 0)
(2.98844 -0.133412 0)
(3.07197 0.0288359 0)
(3.00773 0.0074966 0)
(3.00277 0.00376224 0)
(3.00116 0.00214498 0)
(3.00009 0.000487855 0)
(0.953132 -0.0596217 0)
(1.94359 -0.278737 0)
(2.25242 -0.43053 0)
(2.2455 -0.447803 0)
(2.20525 -0.621202 0)
(2.13211 -0.781628 0)
(2.03639 -0.905307 0)
(1.96253 -0.972146 0)
(1.91916 -1.03549 0)
(1.85071 -1.12744 0)
(1.78833 -1.15891 0)
(1.79298 -1.15522 0)
(1.8111 -1.13494 0)
(1.85217 -1.09076 0)
(2.04421 -0.952308 0)
(2.26533 -0.826282 0)
(2.67509 -0.496869 0)
(3.03953 -0.0893987 0)
(3.05247 0.02242 0)
(3.00345 0.00435407 0)
(1.09901 0.598072 0)
(1.50652 0.849004 0)
(2.24532 -0.0281909 0)
(2.3925 -0.0266633 0)
(2.35801 -0.171525 0)
(2.35456 -0.241026 0)
(2.27439 -0.501444 0)
(2.1996 -0.658728 0)
(2.13021 -0.776138 0)
(2.0977 -0.896351 0)
(1.97977 -0.993198 0)
(1.91761 -1.05667 0)
(1.88613 -1.08144 0)
(1.87217 -1.09154 0)
(1.87489 -1.05766 0)
(1.89968 -1.04945 0)
(1.96459 -1.02171 0)
(2.17227 -0.899651 0)
(2.39697 -0.782646 0)
(2.80077 -0.425668 0)
(1.10374 1.51018 0)
(1.46549 1.71577 0)
(2.00434 1.25763 0)
(2.48572 -0.221293 0)
(2.48576 0.471591 0)
(2.46159 -0.0403988 0)
(2.44458 -0.0809356 0)
(2.37469 -0.28837 0)
(2.3495 -0.363763 0)
(2.32882 -0.541076 0)
(2.21545 -0.725771 0)
(2.13591 -0.843758 0)
(2.07786 -0.912165 0)
(2.02592 -0.967761 0)
(1.98859 -0.976814 0)
(1.95754 -0.995795 0)
(1.95669 -1.01453 0)
(1.97486 -1.00255 0)
(2.00296 -1.00062 0)
(2.08965 -0.978739 0)
(1.1614 1.62192 0)
(1.49355 2.12807 0)
(1.91414 1.67066 0)
(2.12827 0.904404 0)
(2.31396 0.69613 0)
(2.45462 0.254819 0)
(2.54724 0.24123 0)
(2.50577 -0.0823157 0)
(2.4951 -0.184142 0)
(2.45425 -0.368957 0)
(2.42067 -0.472674 0)
(2.33693 -0.614781 0)
(2.28471 -0.697665 0)
(2.21777 -0.783893 0)
(2.17155 -0.813237 0)
(2.12347 -0.842064 0)
(2.07405 -0.882269 0)
(2.06895 -0.895833 0)
(2.04546 -0.936182 0)
(2.07915 -0.958498 0)
(1.1996 1.58364 0)
(1.56209 2.27407 0)
(1.8686 1.97965 0)
(1.97758 1.78563 0)
(2.25159 1.12779 0)
(2.40922 1.23856 0)
(2.44073 0.523959 0)
(2.5189 0.388501 0)
(2.52414 0.125292 0)
(2.56626 0.0574999 0)
(2.53481 -0.147289 0)
(2.48139 -0.317809 0)
(2.44981 -0.410915 0)
(2.39664 -0.508286 0)
(2.34748 -0.565077 0)
(2.31701 -0.590715 0)
(2.2613 -0.646569 0)
(2.22589 -0.697546 0)
(2.18013 -0.774216 0)
(2.1434 -0.811259 0)
(1.20864 1.43924 0)
(1.70601 2.35434 0)
(1.95003 2.07324 0)
(1.88275 1.95197 0)
(2.10997 1.57842 0)
(2.24378 1.54809 0)
(2.37659 1.07455 0)
(2.41526 0.943343 0)
(2.4629 0.74005 0)
(2.53211 0.571759 0)
(2.55522 0.310948 0)
(2.55646 0.125343 0)
(2.5529 -0.0226856 0)
(2.53099 -0.154401 0)
(2.48709 -0.285532 0)
(2.47784 -0.34376 0)
(2.41231 -0.471431 0)
(2.36845 -0.538361 0)
(2.32515 -0.598012 0)
(2.33074 -0.554164 0)
(1.06996 1.06456 0)
(1.64837 2.08304 0)
(2.10813 2.27677 0)
(2.06263 2.08821 0)
(2.14703 1.79718 0)
(2.27268 1.65609 0)
(2.36547 1.35607 0)
(2.43012 1.12706 0)
(2.47827 0.999955 0)
(2.54587 0.792253 0)
(2.59905 0.618523 0)
(2.61057 0.393408 0)
(2.63463 0.227012 0)
(2.63348 0.0608714 0)
(2.60463 -0.110526 0)
(2.58949 -0.207303 0)
(2.54183 -0.331989 0)
(2.52359 -0.301664 0)
(2.47334 -0.367944 0)
(2.50714 -0.299643 0)
(1.02883 0.926509 0)
(1.31988 1.71107 0)
(1.94305 2.33954 0)
(2.26131 2.30488 0)
(2.40977 2.03484 0)
(2.49538 1.7703 0)
(2.51151 1.65176 0)
(2.63667 1.20896 0)
(2.72097 1.11716 0)
(2.75476 0.803016 0)
(2.76543 0.696008 0)
(2.73066 0.454925 0)
(2.74033 0.339056 0)
(2.7271 0.173032 0)
(2.70767 0.0627848 0)
(2.68248 -0.00139427 0)
(2.65111 -0.0570678 0)
(2.64603 -0.00772806 0)
(2.58877 -0.130804 0)
(2.61375 -0.111985 0)
(1.03575 0.929492 0)
(1.18369 1.59127 0)
(1.67396 2.22204 0)
(2.15093 2.32929 0)
(2.49107 2.17738 0)
(2.74674 1.9017 0)
(2.75854 1.82118 0)
(2.72979 1.3357 0)
(2.72924 1.19417 0)
(2.76609 0.978985 0)
(2.77299 0.922764 0)
(2.75464 0.735514 0)
(2.76528 0.654444 0)
(2.75786 0.491748 0)
(2.74078 0.404948 0)
(2.72049 0.33986 0)
(2.70775 0.284673 0)
(2.7102 0.235402 0)
(2.67487 0.0778018 0)
(2.64683 -0.0399001 0)
(1.10845 1.00513 0)
(1.1519 1.50604 0)
(1.50541 2.02753 0)
(1.90294 2.20641 0)
(2.15298 2.09669 0)
(2.35468 1.92043 0)
(2.42456 1.96502 0)
(2.37705 1.60322 0)
(2.41212 1.4526 0)
(2.47747 1.41663 0)
(2.53128 1.33245 0)
(2.57539 1.17228 0)
(2.61775 1.05851 0)
(2.66325 0.905161 0)
(2.67924 0.748221 0)
(2.70966 0.651098 0)
(2.73638 0.534027 0)
(2.74427 0.353903 0)
(2.73903 0.237096 0)
(2.70655 0.14036 0)
(1.24337 1.09835 0)
(1.26544 1.4732 0)
(1.47296 1.93363 0)
(1.65793 2.12742 0)
(1.86717 1.99976 0)
(1.93622 2.01055 0)
(1.97287 2.02437 0)
(2.08934 1.87971 0)
(2.22054 1.69577 0)
(2.27471 1.58892 0)
(2.37903 1.46765 0)
(2.46649 1.34144 0)
(2.54769 1.20127 0)
(2.63869 1.09912 0)
(2.67969 0.889242 0)
(2.74833 0.797478 0)
(2.77189 0.636704 0)
(2.79734 0.427421 0)
(2.77485 0.437105 0)
(2.75422 0.370725 0)
(1.41542 1.19534 0)
(1.42841 1.46678 0)
(1.49813 1.88134 0)
(1.60963 2.1096 0)
(1.78921 2.04436 0)
(1.81031 2.06128 0)
(1.86165 2.00401 0)
(1.96369 1.91124 0)
(2.12085 1.74849 0)
(2.24979 1.65342 0)