/*--------------------------------*- C++ -*----------------------------------*\
  =========                 |
  \\      /  F ield         | OpenFOAM: The Open Source CFD Toolbox
   \\    /   O peration     | Website:  https://openfoam.org
    \\  /    A nd           | Version:  7
     \\/     M anipulation  |
\*---------------------------------------------------------------------------*/
FoamFile
{
    version     2.0;
    format      ascii;
    class       volScalarField;
    location    "4.2";
    object      p;
}
// * * * * * * * * * * * * * * * * * * * * * * * * * * * * * * * * * * * * * //

dimensions      [1 -1 -2 0 0 0 0];

internalField   nonuniform List<scalar> 
3700
(
0.106219
0.182365
0.235982
0.278937
0.317432
0.368662
0.432976
0.458547
0.474169
0.466854
0.462759
0.471895
0.475201
0.474789
0.465855
0.465553
0.498786
0.515277
0.52396
0.527145
0.0650189
0.0828338
0.110181
0.133129
0.147003
0.167235
0.18056
0.184317
0.179736
0.161844
0.155988
0.159126
0.166722
0.174788
0.175451
0.174421
0.179932
0.191025
0.21534
0.212712
0.0604923
0.073225
0.0836188
0.0817431
0.0712924
0.0584348
0.0509182
0.0505267
0.0529418
0.0562535
0.0641278
0.0726153
0.0831294
0.095631
0.105964
0.113239
0.117507
0.11968
0.120989
0.122511
0.0661065
0.0758354
0.0768738
0.069548
0.0586046
0.0558058
0.0552589
0.0570317
0.0608735
0.0690241
0.0706373
0.0776529
0.0894196
0.105153
0.121177
0.138278
0.154986
0.167366
0.175707
0.177333
0.0694614
0.0731642
0.0681589
0.0620739
0.0593394
0.0662606
0.0688782
0.0790829
0.0942112
0.108713
0.104435
0.109868
0.106484
0.111674
0.125433
0.147445
0.171333
0.196103
0.219651
0.241972
0.0812106
0.071312
0.0640711
0.058268
0.0576283
0.0683871
0.0746169
0.0901191
0.114826
0.130888
0.146424
0.161631
0.160788
0.165883
0.166255
0.171758
0.186477
0.21976
0.256888
0.316201
0.0960266
0.0667292
0.0551177
0.0514032
0.0529333
0.0652295
0.0727606
0.0909332
0.118807
0.14481
0.174445
0.192794
0.216189
0.236626
0.248558
0.257922
0.268692
0.281365
0.308049
0.39324
0.0956837
0.0550288
0.045715
0.0478595
0.0535206
0.0649752
0.0735743
0.090351
0.114233
0.146351
0.18646
0.215081
0.257488
0.292242
0.326313
0.359195
0.38786
0.412819
0.435697
0.529017
0.0865913
0.0448082
0.044337
0.0531583
0.0692235
0.0824073
0.100339
0.126062
0.140596
0.159486
0.192534
0.232274
0.289591
0.340892
0.394453
0.454083
0.511032
0.569897
0.607327
0.729606
0.0754983
0.0410295
0.0463721
0.0618396
0.0804104
0.102381
0.142384
0.185198
0.218495
0.254454
0.283886
0.321701
0.367394
0.422472
0.481829
0.560035
0.654358
0.747911
0.84015
0.963228
0.0665356
0.0381137
0.0438125
0.0582901
0.0765613
0.106709
0.166081
0.221131
0.285539
0.363258
0.425716
0.490741
0.555256
0.620728
0.675652
0.746368
0.847209
0.961707
1.16624
1.15013
0.0543388
0.0313339
0.0314223
0.0444823
0.0634576
0.100492
0.166833
0.225172
0.314475
0.439801
0.547982
0.65646
0.767156
0.863885
0.962868
1.07227
1.18776
1.31066
1.53786
1.50972
0.0379048
0.0226514
0.0219001
0.0379033
0.0604976
0.100063
0.162773
0.23697
0.375225
0.543611
0.712689
0.86782
1.02529
1.16199
1.32952
1.50598
1.67814
1.83908
2.09019
2.07789
0.0254849
0.0172214
0.0171112
0.0351695
0.0650546
0.186692
0.33332
0.515115
0.743017
0.957794
1.14561
1.30834
1.4736
1.63492
1.85152
2.09725
2.34497
2.59248
2.79422
3.0051
0.018019
0.0147716
0.0154137
0.0463505
0.163052
0.43251
0.672361
0.941303
1.25221
1.54823
1.77116
1.97999
2.19265
2.41644
2.70588
2.99253
3.27465
3.51258
3.65507
3.77922
0.0113369
0.0149856
0.0264782
0.15753
0.440277
0.756301
1.09169
1.48485
1.91782
2.29237
2.57215
2.84717
3.12408
3.42219
3.74695
3.97069
4.10341
4.14332
4.04855
3.91771
0.00712667
0.0216347
0.146128
0.438948
0.931332
1.44629
1.97078
2.53695
3.14129
3.52585
3.75305
3.98903
4.19773
4.36388
4.46223
4.38987
4.17666
3.6462
2.79211
1.89149
0.0241458
0.149927
0.553318
1.21882
2.06624
2.88824
3.5845
4.2824
4.79587
4.83744
4.73547
4.73167
4.69026
4.52582
4.01915
3.06353
2.08949
1.33156
1.01823
0.992897
0.312242
0.884392
1.97089
3.18827
4.22601
4.88907
5.44307
5.91115
5.76596
5.30276
4.85978
4.32072
3.40229
2.32901
1.42514
1.02899
0.989379
0.994931
0.997323
0.999441
2.31358
3.63282
4.87497
5.70362
6.22999
6.49658
6.60685
6.27404
4.5565
3.21609
2.38107
1.57409
1.08464
0.987666
0.993004
0.996335
0.999164
0.999973
1.00002
1.00001
6.94511
6.89109
6.81951
6.89468
7.06415
6.86825
6.01238
2.25944
0.65103
1
1
1
1
1
1
1
1
1
1
1
6.879
6.84839
6.72704
6.65651
6.87129
5.8067
2.57533
1.01088
1
1
1
1
1
1
1
1
1
1
1
1
6.78922
6.85192
6.78982
6.57216
6.28335
3.4194
1.0651
0.998845
1
1
1
1
1
1
1
1
1
1
1
1
6.65811
6.84559
6.85761
6.59499
4.73643
1.455
0.99284
1.00012
0.999999
1
1
1
1
1
1
1
1
1
1
1
6.50538
6.80424
6.84285
6.24229
2.65289
0.975855
1.00036
0.999994
1
1
1
1
1
1
1
1
1
1
1
1
6.41402
6.72644
6.73139
4.87915
1.40781
1
1
1
1
1
1
1
1
1
1
1
1
1
1
1
6.38545
6.70278
6.63569
3.56602
0.977435
1
1
1
1
1
1
1
1
1
1
1
1
1
1
1
6.49621
6.68334
6.08933
2.05412
1
1
1
1
1
1
1
1
1
1
1
1
1
1
1
1
6.94478
6.67709
4.89891
1.1928
1
1
1
1
1
1
1
1
1
1
1
1
1
1
1
1
7.23676
6.36227
3.49411
0.987541
1
1
1
1
1
1
1
1
1
1
1
1
1
1
1
1
7.44876
6.03653
2.29379
1
1
1
1
1
1
1
1
1
1
1
1
1
1
1
1
1
7.52782
5.37006
1.61681
1
1
1
1
1
1
1
1
1
1
1
1
1
1
1
1
1
7.57936
4.72706
1.15847
1
1
1
1
1
1
1
1
1
1
1
1
1
1
1
1
1
7.37907
3.9673
1.00006
1
1
1
1
1
1
1
1
1
1
1
1
1
1
1
1
1
7.12139
3.28357
1
1
1
1
1
1
1
1
1
1
1
1
1
1
1
1
1
1
7.03749
2.5098
1
1
1
1
1
1
1
1
1
1
1
1
1
1
1
1
1
1
6.66829
1.84504
1
1
1
1
1
1
1
1
1
1
1
1
1
1
1
1
1
1
6.27883
1.34318
1
1
1
1
1
1
1
1
1
1
1
1
1
1
1
1
1
1
5.75613
1.00507
1
1
1
1
1
1
1
1
1
1
1
1
1
1
1
1
1
1
4.64876
1.00012
1
1
1
1
1
1
1
1
1
1
1
1
1
1
1
1
1
1
4.64395
1.00011
1
1
1
1
1
1
1
1
1
1
1
1
1
1
1
1
1
1
5.76383
1.00526
1
1
1
1
1
1
1
1
1
1
1
1
1
1
1
1
1
1
6.28161
1.34821
1
1
1
1
1
1
1
1
1
1
1
1
1
1
1
1
1
1
6.65359
1.84457
1
1
1
1
1
1
1
1
1
1
1
1
1
1
1
1
1
1
7.04247
2.50273
1
1
1
1
1
1
1
1
1
1
1
1
1
1
1
1
1
1
7.12507
3.28379
1
1
1
1
1
1
1
1
1
1
1
1
1
1
1
1
1
1
7.37243
3.97216
1.00005
1
1
1
1
1
1
1
1
1
1
1
1
1
1
1
1
1
7.57704
4.72844
1.15659
1
1
1
1
1
1
1
1
1
1
1
1
1
1
1
1
1
7.52902
5.3672
1.61472
1
1
1
1
1
1
1
1
1
1
1
1
1
1
1
1
1
7.45223
6.0327
2.29344
1
1
1
1
1
1
1
1
1
1
1
1
1
1
1
1
1
7.24061
6.36429
3.49047
0.98756
1
1
1
1
1
1
1
1
1
1
1
1
1
1
1
1
6.94708
6.67003
4.8935
1.1943
1
1
1
1
1
1
1
1
1
1
1
1
1
1
1
1
6.50207
6.68867
6.09528
2.05087
1
1
1
1
1
1
1
1
1
1
1
1
1
1
1
1
6.38831
6.70686
6.63766
3.57522
0.979381
1
1
1
1
1
1
1
1
1
1
1
1
1
1
1
6.41798
6.7224
6.72408
4.88415
1.41335
1
1
1
1
1
1
1
1
1
1
1
1
1
1
1
6.50564
6.79675
6.83555
6.23148
2.64806
0.975965
1.00036
0.999994
1
1
1
1
1
1
1
1
1
1
1
1
6.65911
6.84583
6.85666
6.60625
4.73298
1.44969
0.99289
1.00012
0.999999
1
1
1
1
1
1
1
1
1
1
1
6.79663
6.85672
6.79808
6.57921
6.28523
3.42097
1.06488
0.998825
1
1
1
1
1
1
1
1
1
1
1
1
6.88425
6.85232
6.73098
6.66117
6.87416
5.80206
2.58102
1.0116
1
1
1
1
1
1
1
1
1
1
1
1
6.93989
6.88724
6.81698
6.89659
7.06562
6.86368
6.00936
2.2591
0.652318
1
1
1
1
1
1
1
1
1
1
1
2.31385
3.63629
4.88724
5.71768
6.23623
6.48364
6.60091
6.26843
4.55422
3.21536
2.38071
1.57408
1.08473
0.987647
0.993007
0.996335
0.999163
0.999973
1.00002
1.00001
0.303374
0.852237
1.92698
3.16476
4.2379
4.90501
5.45235
5.90909
5.76363
5.30116
4.85879
4.32029
3.4027
2.32993
1.42588
1.02917
0.989349
0.994911
0.997314
0.999438
0.0385068
0.174839
0.54864
1.18875
2.04094
2.88198
3.59371
4.29514
4.80558
4.83753
4.73474
4.73062
4.68937
4.5255
4.02051
3.06605
2.09223
1.33327
1.0186
0.992883
0.00721187
0.0423389
0.157829
0.426774
0.90292
1.43016
1.96902
2.54213
3.14801
3.53342
3.7583
3.9911
4.19753
4.36317
4.46237
4.3905
4.178
3.64901
2.79511
1.8935
0.00842602
0.0183491
0.0345732
0.173828
0.44549
0.741758
1.07024
1.46774
1.90923
2.28887
2.57024
2.84414
3.11995
3.41872
3.74381
3.96814
4.10266
4.14375
4.04947
3.91884
0.0167657
0.0161642
0.0171913
0.0538474
0.183495
0.441347
0.673659
0.937726
1.2456
1.544
1.769
1.97877
2.19135
2.41611
2.70532
2.99174
3.27475
3.5141
3.65619
3.77922
0.027474
0.0173645
0.0188167
0.0376208
0.0739869
0.209486
0.353803
0.530785
0.754098
0.967205
1.15368
1.31464
1.47733
1.63584
1.84982
2.09476
2.3435
2.59361
2.79563
3.00422
0.0383574
0.0225587
0.0225705
0.0402294
0.0642846
0.104121
0.164471
0.23817
0.377901
0.543708
0.712043
0.866073
1.02284
1.15872
1.32675
1.50558
1.68002
1.84113
2.09102
2.07767
0.0510925
0.0313977
0.0310223
0.0437725
0.0651732
0.0987008
0.161397
0.217577
0.305454
0.432388
0.542767
0.652798
0.765656
0.862978
0.96396
1.07483
1.19099
1.31277
1.53751
1.50943
0.065333
0.0404136
0.0438719
0.0546538
0.0725537
0.102502
0.164083
0.215844
0.280489
0.360718
0.425168
0.491417
0.557803
0.624571
0.67994
0.749555
0.846696
0.959573
1.16497
1.1493
0.0802081
0.0463081
0.0488614
0.0623627
0.0764778
0.0990856
0.144314
0.184462
0.219909
0.257894
0.288043
0.325321
0.368884
0.42283
0.480391
0.557144
0.651421
0.746378
0.841304
0.963791
0.0913873
0.0501798
0.0453937
0.0565046
0.0682305
0.0788849
0.100094
0.125795
0.143041
0.161366
0.19037
0.228499
0.285086
0.337035
0.390918
0.452015
0.510602
0.571155
0.609695
0.732475
0.0987246
0.0546605
0.0441713
0.047661
0.0536796
0.0590129
0.0700301
0.0893493
0.112562
0.143435
0.183212
0.212156
0.255163
0.290654
0.325518
0.359902
0.389891
0.41604
0.437934
0.532742
0.10146
0.0629136
0.0475689
0.0472541
0.051811
0.0584631
0.0700366
0.0905362
0.11707
0.142485
0.172917
0.192022
0.216564
0.23753
0.251458
0.261164
0.272325
0.284189
0.307867
0.39198
0.091565
0.0693424
0.0579082
0.0529068
0.0563213
0.0648719
0.0744856
0.0920304
0.113843
0.130003
0.14692
0.162519
0.164392
0.169601
0.169624
0.174094
0.186108
0.216904
0.254002
0.314964
0.0790752
0.0726872
0.0671674
0.0624835
0.0621906
0.0673709
0.0716667
0.0811554
0.0947393
0.110596
0.107009
0.113182
0.109437
0.113285
0.124708
0.145314
0.168918
0.194481
0.218625
0.242352
0.0748573
0.0764616
0.0752511
0.069023
0.0624877
0.0586689
0.0556801
0.0568
0.0619444
0.0724872
0.0742169
0.0805061
0.090085
0.104323
0.119535
0.136544
0.153875
0.167325
0.176889
0.178549
0.0669889
0.075019
0.0836342
0.0799447
0.0700276
0.0570311
0.0485892
0.048028
0.0510478
0.0558602
0.0636235
0.0715807
0.0817342
0.0940884
0.104991
0.113308
0.118439
0.120969
0.122005
0.123274
0.0669556
0.0882712
0.108602
0.136521
0.146159
0.13107
0.10839
0.0955963
0.0973758
0.1036
0.118175
0.127672
0.143
0.168479
0.19886
0.233324
0.250342
0.234838
0.205761
0.1886
0.0995454
0.199353
0.225841
0.273317
0.320047
0.354086
0.392538
0.409482
0.427403
0.433626
0.453157
0.46145
0.473597
0.489547
0.490995
0.498206
0.513338
0.511842
0.499144
0.509339
0.561356
0.654006
0.700192
0.772003
0.826382
0.873507
0.894259
0.889536
0.873431
0.87492
0.900016
0.952398
0.979853
0.971982
0.936451
0.921396
0.934638
0.965277
0.967695
0.938774
0.290129
0.421078
0.543388
0.658536
0.758429
0.829593
0.871518
0.895636
0.890781
0.888873
0.900228
0.931206
0.958124
0.961171
0.95134
0.939851
0.943995
0.958653
0.958686
0.935703
0.136534
0.160526
0.240559
0.34959
0.52491
0.675557
0.778585
0.865774
0.913864
0.906597
0.906272
0.912598
0.928479
0.948983
0.959165
0.964004
0.964814
0.955755
0.943972
0.926301
0.185833
0.217655
0.241326
0.237192
0.251178
0.314595
0.490297
0.717547
0.854159
0.911904
0.916293
0.896235
0.903562
0.928398
0.959656
0.973616
0.974306
0.959175
0.939658
0.925719
0.236833
0.262069
0.279298
0.282215
0.272606
0.273612
0.286506
0.37783
0.615707
0.841046
0.887023
0.881474
0.877558
0.911933
0.961434
0.982381
0.97922
0.95581
0.937945
0.929384
0.313083
0.324455
0.347712
0.336463
0.317968
0.313682
0.315378
0.325124
0.368904
0.536253
0.760912
0.87041
0.862602
0.8945
0.950848
0.974559
0.972622
0.950687
0.941835
0.937716
0.395992
0.408883
0.40869
0.394171
0.367251
0.358276
0.358693
0.366555
0.374667
0.388649
0.473553
0.694192
0.845748
0.890759
0.931684
0.963108
0.961997
0.94694
0.947283
0.944827
0.512895
0.49872
0.487592
0.466444
0.430339
0.403956
0.395206
0.392809
0.394883
0.397576
0.401536
0.449856
0.657641
0.844247
0.904254
0.950395
0.93857
0.936428
0.951424
0.94712
0.671496
0.604509
0.570872
0.545695
0.502916
0.459826
0.43949
0.426777
0.426434
0.425666
0.414096
0.41412
0.451956
0.630118
0.839997
0.94432
0.908577
0.926746
0.957004
0.948262
0.86927
0.73552
0.664088
0.637361
0.585831
0.528833
0.486263
0.456487
0.440602
0.447607
0.444043
0.433522
0.433135
0.458528
0.607448
0.823697
0.867752
0.934966
0.961055
0.944362
1.2858
0.955283
0.725354
0.681515
0.684648
0.675457
0.628114
0.543584
0.50572
0.494332
0.490047
0.481745
0.47325
0.46781
0.476683
0.556671
0.744341
0.891353
0.934763
0.929827
2.02769
1.53965
1.15109
0.86245
0.804603
0.812321
0.775565
0.671502
0.594441
0.563784
0.544012
0.544505
0.536312
0.511917
0.484991
0.488403
0.530049
0.646569
0.794295
0.889567
2.50081
2.16279
1.74293
1.36039
1.04365
0.905973
0.862317
0.774734
0.687745
0.668751
0.663306
0.650273
0.619166
0.580115
0.552694
0.526032
0.530414
0.537665
0.578652
0.727398
2.3658
2.3489
2.23311
1.94
1.5822
1.22091
1.07212
0.969976
0.885114
0.813426
0.757062
0.718641
0.669299
0.626499
0.59912
0.583229
0.568608
0.55707
0.550475
0.573753
1.68309
2.14888
2.2233
2.19231
2.06789
1.77974
1.4631
1.25023
1.0913
0.963274
0.837165
0.783645
0.748871
0.717398
0.698894
0.679016
0.651318
0.625004
0.590824
0.568342
1.10946
1.43893
1.84924
2.11452
2.11347
2.07643
1.9256
1.68883
1.43048
1.2421
1.08022
0.968152
0.906873
0.857324
0.8055
0.744109
0.693038
0.658304
0.633966
0.608037
1.00454
1.04475
1.20486
1.54982
1.86006
2.0195
2.01362
1.97348
1.83347
1.61662
1.41434
1.21459
1.07392
0.969985
0.886378
0.824304
0.772151
0.725816
0.725672
0.700131
1.00009
1.00113
1.01043
1.07782
1.27027
1.56994
1.82478
1.93577
1.92824
1.88557
1.76961
1.57833
1.38675
1.219
1.07567
1.01052
0.946878
0.874853
0.825772
0.759963
1
1.00001
1.00015
1.00244
1.01931
1.10036
1.28887
1.55778
1.7651
1.85849
1.85315
1.81754
1.71604
1.55487
1.37308
1.22045
1.10901
1.00228
0.920051
0.830226
1
1
1
1.00003
1.00033
1.00394
1.02408
1.10877
1.28694
1.52207
1.70477
1.78856
1.78383
1.75559
1.67917
1.53465
1.37903
1.23438
1.12562
0.997332
1
1
1
1
1
1.00005
1.00048
1.00471
1.02706
1.10519
1.26363
1.47684
1.63815
1.72534
1.72336
1.70283
1.64253
1.5312
1.39815
1.19286
1
1
1
1
1
1
1
1.00006
1.00059
1.0048
1.02498
1.09515
1.2347
1.42371
1.57355
1.66667
1.66495
1.65296
1.61675
1.46178
1
1
1
1
1
1
1
1
1.00001
1.00006
1.00057
1.00431
1.0221
1.08028
1.19701
1.37178
1.50657
1.60887
1.61414
1.58781
1
1
1
1
1
1
1
1
1
1
1.00001
1.00006
1.0005
1.00345
1.0175
1.06343
1.165
1.31393
1.44535
1.54735
1
1
1
1
1
1
1
1
1
1
1
1
1.00001
1.00005
1.0004
1.00255
1.01415
1.05122
1.13669
1.38617
1.61808
2.46523
2.5849
2.08415
1.30905
1.03688
1.00188
1.00005
1
1
1
1
1
1
1
2.35126
2.81768
2.52699
1.53868
1.04786
1.0008
1
1
1
1
1
1
1
1
1
2.93394
2.87242
1.97903
1.15203
1.00521
1.00005
1
1
1
1
1
1
1
1
1
3.25533
2.55721
1.36518
1.01932
1.00019
1
1
1
1
1
1
1
1
1
1
3.31917
1.6837
1.04699
1.00049
1
1
1
1
1
1
1
1
1
1
1
2.06658
1.07287
1.0005
0.999999
1
1
1
1
1
1
1
1
1
1
1
1.10211
1.00056
0.999997
0.999999
1
1
1
1
1
1
1
1
1
1
1
0.998152
0.999866
0.999996
1
1
1
1
1
1
1
1
1
1
1
1
0.999966
1
1
1
1
1
1
1
1
1
1
1
1
1
1
1
1
1
1
1
1
1
1
1
1
1
1
1
1
1
1
1
1
1
1
1
1
1
1
1
1
1
1
1
1
1
1
1
1
1
1
1
1
1
1
1
1
1
1
1
1
1
1
1
1
1
1
1
1
1
1
1
1
1
1
1
1
1
1
1
1
1
1
1
1
1
1
1
1
1
1
1
1
1
1
1
1
1
1
1
1
1
1
1
1
1
1
1
1
1
1
1
1
1
1
1
1
1
1
1
1
1
1
1
1
1
1
1
1
1
1
1
1
1
1
1
1
1
1
1
1
1
1
1
1
1
1
1
1
1
1
1
1
1
1
1
1
1
1
1
1
1
1
1
1
1
1
1
1
1
1
1
1
1
1
1
1
1
1
1
1
1
1
1
1
1
1
1
1
1
1
1
1
1
1
1
1
1
1
1
1
1
1
1
1
1
1
1
1
1
1
1
1
1
1
1
1
1
1
1
1
1
1
1
1
1
1
1
1
1
1
1
1
1
1
1
1
1
1
1
1
1
1
1
1
1
1
1
1
1
1
1
1
1
1
1
1
1
1
1
1
1
1
1
1
1
1
1
1
1
1
1
1
1
1
1
1
1
1
1
1
1
1
1
1
1
1
1
1
1
1
1
1
1
1
1
1
1
1
1
1
1
1
1
1
1
1
1
1
1
1
1
1
1
1
1
1
1
1
1
1
1
1
1
1
1
1
1
1
1
1
1
1
1
1
1
1
1
1
1
1
1
1
1
1
1
1
1
1
1
1
1
1
1
1
1
1
1
1
1
1
1
1
1
1
1
1
1
1
1
1
1
1
1
1
1
1
1
1
1
1
1
1
1
1
1
1
1
1
1
1
1
1
1
1
1
1
1
1
1
1
1
1
1
1
1
1
1
1
1
1
1
1
1
1
1
1
1
1
1
1
1
1
1
1
1
1
1
1
1
1
1
1
1
1
1
1
1
1
1
1
1
1
1
1
1
1
1
1
1
1
1
1
1
1
1
1
1
1
1
1
1
1
1
1
1
1
1
1
1
1
1
1
1
1
1
1
1
1
1
1
1
1
1
1
1
1
1
1
1
1
1
1
1
1
1
1
1
1
1
1
1
1
1
1
1
1
1
1
1
1
1
1
1
1
1
1
1
1
1
1
1
1
1
1
1
1
1
1
1
1
1
1
1
1
1
1
1
1
1
1
1
1
1
1
1
1
1
1
1
1
1
1
1
1
1
1
1
1
1
1
1
1
1
1
1
1
1
1
1
1
1
1
1
1
1
1
1
1
1
1
1
1
1
1
1
1
1
1
1
1
1
1
1
1
1
1
1
1
1
1
1
1
1
1
1
1
1
1
1
1
1
1
1
1
1
1
1
1
1
1
1
1
1
1
1
1
1
1
1
1
1
1
1
1
1
1
1
1
1
1
1
1
1
1
1
1
1
1
1
1
1
1
1
1
1
1
1
1
1
1
1
1
1
1
1
1
1
1
1
1
1
1
1
1
1
1
1
1
1
1
1
1
1
1
1
1
1
1
1
1
1
1
1
1
1
1
1
1
1
1
1
1
1
1
1
1
1
1
1
1
1
1
1
1
1
1
1
1
1
1
1
1
1
1
1
1
1
1
1
1
1
1
1
1
1
1
1
1
1
1
1
1
1
1
1
1
1
1
1
1
1
1
1
1
1
1
1
1
1
1
1
1
1
1
1
1
1
1
1
1
1
1
1
1
1
1
1
1
1
1
1
1
1
1
1
1
1
1
1
1
1
1
1
1
1
1
1
1
1
1
1
1
1
1
1
1
1
1
1
1
1
1
1
1
1
1
1
1
1
1
1
1
1
1
1
1
1
1
1
1
1
1
1
1
1
1
1
1
1
1
1
1
1
1
0.999966
1
1
1
1
1
1
1
1
1
1
1
1
1
1
0.998148
0.999866
0.999996
1
1
1
1
1
1
1
1
1
1
1
1
1.10241
1.00056
0.999997
0.999999
1
1
1
1
1
1
1
1
1
1
1
2.06698
1.07285
1.00049
0.999999
1
1
1
1
1
1
1
1
1
1
1
3.31859
1.68322
1.04698
1.00049
1
1
1
1
1
1
1
1
1
1
1
3.25458
2.55687
1.36509
1.01931
1.00019
1
1
1
1
1
1
1
1
1
1
2.93281
2.87186
1.97906
1.15213
1.00521
1.00005
1
1
1
1
1
1
1
1
1
2.35058
2.81664
2.5267
1.53882
1.04789
1.0008
1
1
1
1
1
1
1
1
1
1.61785
2.46412
2.58477
2.08418
1.3091
1.03688
1.00188
1.00005
1
1
1
1
1
1
1
1.28669
2.02769
2.50115
2.3666
1.68315
1.10935
1.00453
1.00009
1
1
1
1
1
1
1
0.965131
1.53674
2.16529
2.34907
2.14949
1.43866
1.04467
1.00113
1.00001
1
1
1
1
1
1
0.728147
1.15075
1.7404
2.23373
2.22333
1.84908
1.20472
1.01042
1.00015
1
1
1
1
1
1
0.672026
0.869948
1.35258
1.94223
2.19171
2.11436
1.54995
1.07787
1.00244
1.00003
1
1
1
1
1
0.678717
0.82226
1.0447
1.57747
2.06741
2.11347
1.86014
1.27037
1.01932
1.00033
1
1
1
1
1
0.666816
0.82188
0.916502
1.21278
1.7805
2.07661
2.01978
1.57015
1.1004
1.00394
1.00005
1
1
1
1
0.616126
0.76953
0.867701
1.07738
1.4649
1.92672
2.01403
1.82502
1.28893
1.02408
1.00048
1
1
1
1
0.541284
0.657176
0.776518
0.982408
1.25009
1.69046
1.97386
1.93605
1.5578
1.10872
1.0047
1.00006
1
1
1
0.514057
0.585068
0.691201
0.897268
1.09005
1.42956
1.83346
1.92842
1.76516
1.28688
1.02705
1.00059
1.00001
1
1
0.504451
0.559258
0.664045
0.818995
0.962189
1.2398
1.616
1.88561
1.85845
1.52203
1.10519
1.0048
1.00006
1
1
0.498109
0.542513
0.654468
0.757585
0.836448
1.07895
1.41425
1.76948
1.85303
1.70469
1.26366
1.025
1.00057
1.00001
1
0.489579
0.545036
0.64092
0.716679
0.784791
0.968065
1.21474
1.57832
1.81741
1.78844
1.4768
1.09516
1.00431
1.00006
1
0.479752
0.537796
0.612494
0.667805
0.751224
0.906961
1.07394
1.38638
1.71581
1.78373
1.63811
1.23469
1.0221
1.0005
1.00001
0.470178
0.514657
0.577203
0.625512
0.720473
0.85737
0.970175
1.21886
1.55437
1.75546
1.72527
1.42371
1.08029
1.00345
1.00005
0.476401
0.487876
0.553214
0.598747
0.700059
0.805236
0.885939
1.0748
1.37312
1.67915
1.72331
1.57355
1.19703
1.0175
1.0004
0.55521
0.490306
0.527566
0.582893
0.678917
0.743698
0.823977
1.00972
1.22046
1.53478
1.70283
1.66667
1.37178
1.06343
1.00255
0.744042
0.530776
0.531475
0.568175
0.650956
0.692812
0.772498
0.946987
1.10895
1.37893
1.64251
1.66495
1.50656
1.16499
1.01415
0.890494
0.645755
0.537612
0.556368
0.624751
0.657801
0.726515
0.875331
1.00253
1.23441
1.53118
1.65297
1.60889
1.31393
1.05122
0.93412
0.793165
0.577853
0.550381
0.590552
0.632982
0.726365
0.825643
0.920135
1.12594
1.39825
1.61678
1.61417
1.44537
1.13669
0.929602
0.889261
0.726977
0.573864
0.568558
0.607591
0.700451
0.759582
0.829961
0.997466
1.19292
1.46183
1.58784
1.54738
1.38619
0.869668
0.735455
0.652237
0.631016
0.588152
0.529733
0.489457
0.450012
0.444515
0.453363
0.448857
0.438504
0.435066
0.456897
0.604536
0.824696
0.867926
0.934392
0.96058
0.944169
0.657862
0.604595
0.568252
0.54277
0.495616
0.45375
0.433451
0.4175
0.419644
0.424601
0.419308
0.416299
0.449641
0.624074
0.824665
0.934106
0.903996
0.924635
0.9569
0.948392
0.499119
0.498735
0.493875
0.471233
0.424504
0.399788
0.391872
0.392544
0.39553
0.403599
0.403971
0.450135
0.647639
0.838348
0.898946
0.948499
0.937344
0.935756
0.951502
0.947342
0.395056
0.406186
0.414112
0.399137
0.367468
0.360218
0.360378
0.365227
0.372439
0.387861
0.479703
0.696167
0.842244
0.878339
0.92941
0.966781
0.965341
0.948256
0.948318
0.945192
0.312393
0.327698
0.345529
0.333146
0.310149
0.306708
0.311104
0.323236
0.369611
0.53668
0.754573
0.859153
0.858892
0.88874
0.948926
0.975711
0.974374
0.952707
0.942652
0.93773
0.237946
0.259318
0.289876
0.291171
0.280821
0.278254
0.29465
0.388162
0.615421
0.837573
0.884204
0.881884
0.886831
0.91642
0.961194
0.982066
0.979193
0.956603
0.938017
0.929236
0.186542
0.216379
0.232255
0.237461
0.248654
0.317314
0.51622
0.729719
0.84073
0.905833
0.918773
0.904744
0.908698
0.93094
0.959938
0.972809
0.973908
0.95838
0.93891
0.925657
0.136571
0.157202
0.242678
0.355894
0.510734
0.68245
0.786238
0.859374
0.903357
0.899471
0.906371
0.919936
0.936885
0.951456
0.957817
0.960808
0.961765
0.956279
0.94529
0.927853
0.271563
0.405958
0.553814
0.669683
0.749366
0.842026
0.873749
0.889676
0.884108
0.88267
0.900759
0.939514
0.965409
0.965672
0.950639
0.938075
0.940505
0.953432
0.955696
0.934794
0.556898
0.650759
0.702599
0.777018
0.824446
0.881004
0.885539
0.876465
0.860464
0.864745
0.89647
0.951182
0.974492
0.963477
0.930459
0.920396
0.933177
0.963339
0.969119
0.942216
)
;

boundaryField
{
    inlet
    {
        type            fixedValue;
        value           uniform 1;
    }
    outlet
    {
        type            zeroGradient;
    }
    airfoil
    {
        type            zeroGradient;
    }
    top
    {
        type            symmetryPlane;
    }
    bottom
    {
        type            symmetryPlane;
    }
    defaultFaces
    {
        type            empty;
    }
}


// ************************************************************************* //
