/*--------------------------------*- C++ -*----------------------------------*\
  =========                 |
  \\      /  F ield         | OpenFOAM: The Open Source CFD Toolbox
   \\    /   O peration     | Website:  https://openfoam.org
    \\  /    A nd           | Version:  7
     \\/     M anipulation  |
\*---------------------------------------------------------------------------*/
FoamFile
{
    version     2.0;
    format      ascii;
    class       volScalarField;
    location    "4.2";
    object      rho;
}
// * * * * * * * * * * * * * * * * * * * * * * * * * * * * * * * * * * * * * //

dimensions      [1 -3 0 0 0 0 0];

internalField   nonuniform List<scalar> 
3700
(
0.148034
0.253668
0.32791
0.38737
0.440512
0.510982
0.599523
0.634867
0.65652
0.646493
0.640968
0.653641
0.658088
0.657518
0.645249
0.644974
0.690985
0.713709
0.725751
0.730234
0.0909347
0.115762
0.153745
0.185649
0.204922
0.232776
0.250889
0.256056
0.249733
0.225032
0.217144
0.221597
0.232183
0.243463
0.244511
0.243244
0.250913
0.266269
0.29991
0.2963
0.0846545
0.102423
0.116934
0.114336
0.0997769
0.0818565
0.0713754
0.0708329
0.0742114
0.0788392
0.0898469
0.101704
0.116387
0.133856
0.148298
0.158472
0.164445
0.167498
0.169348
0.171486
0.092497
0.106073
0.107539
0.097323
0.0820592
0.0781714
0.0774296
0.0799279
0.0853128
0.0967247
0.0989781
0.108775
0.125207
0.147183
0.169568
0.193463
0.216803
0.234098
0.245765
0.24808
0.0971689
0.102331
0.0953583
0.0868665
0.0830379
0.092713
0.0964
0.11068
0.131842
0.152133
0.146191
0.1538
0.149084
0.156325
0.17554
0.206286
0.239653
0.27422
0.307094
0.338242
0.113506
0.0997244
0.0896319
0.081532
0.0806342
0.0956635
0.104386
0.126045
0.160551
0.183011
0.204731
0.226003
0.224865
0.232012
0.232566
0.240277
0.260848
0.307293
0.359079
0.441787
0.134096
0.0933098
0.0771366
0.071965
0.0741057
0.0912753
0.101802
0.127174
0.166088
0.2024
0.243774
0.269422
0.302094
0.33065
0.34733
0.360438
0.375524
0.39325
0.430501
0.549217
0.133598
0.0769967
0.0640409
0.0670447
0.074949
0.0909533
0.102959
0.126381
0.159733
0.204561
0.260544
0.300503
0.359661
0.408156
0.455684
0.501558
0.541577
0.57641
0.608329
0.738349
0.120976
0.0627609
0.0621332
0.074475
0.0969337
0.115356
0.140399
0.1763
0.196596
0.222938
0.269073
0.324535
0.404458
0.475989
0.550644
0.633736
0.713104
0.795163
0.847321
1.0175
0.105605
0.0575003
0.0649887
0.0866152
0.112561
0.143227
0.199068
0.258793
0.30526
0.355397
0.396478
0.449218
0.512943
0.589723
0.672428
0.781334
0.912641
1.0429
1.17128
1.34244
0.0931469
0.0534474
0.0614106
0.0816456
0.107181
0.149243
0.232077
0.308859
0.398626
0.506906
0.593966
0.68458
0.774456
0.865676
0.942179
1.04066
1.18099
1.34027
1.62461
1.60224
0.0761367
0.0439836
0.0440948
0.0623442
0.0888679
0.140551
0.233066
0.314464
0.438902
0.613418
0.764078
0.915135
1.06925
1.20392
1.34163
1.49377
1.6543
1.82513
2.14078
2.10172
0.0531701
0.031833
0.0307686
0.0531473
0.0847156
0.139848
0.227301
0.330802
0.523445
0.757903
0.993225
1.20911
1.4282
1.61837
1.85121
2.09633
2.33534
2.55872
2.90726
2.89025
0.0357902
0.0242198
0.0240503
0.0493188
0.0909768
0.260423
0.464718
0.717787
1.03487
1.33359
1.59486
1.82123
2.05107
2.27531
2.5761
2.91708
3.26059
3.6038
3.88372
4.17647
0.025333
0.0207823
0.0216626
0.064899
0.227531
0.602527
0.936282
1.31024
1.74234
2.15371
2.46353
2.75364
3.04894
3.35949
3.76094
4.15836
4.54945
4.87939
5.07753
5.2503
0.0159599
0.0210692
0.0371103
0.21991
0.613287
1.05278
1.51899
2.06518
2.66648
3.18663
3.57502
3.9565
4.34035
4.75334
5.20344
5.51356
5.69792
5.75371
5.62352
5.44423
0.0100473
0.0303823
0.204151
0.61153
1.29563
2.01098
2.73925
3.52498
4.36347
4.89687
5.21177
5.53856
5.82735
6.05769
6.19426
6.09447
5.80145
5.0703
3.88882
2.6407
0.0339755
0.209638
0.770789
1.69499
2.87094
4.01107
4.97655
5.94401
6.65591
6.71318
6.57171
6.56643
6.50907
6.28235
5.58383
4.26249
2.91484
1.86231
1.42544
1.39009
0.43664
1.23165
2.73918
4.42657
5.86426
6.78316
7.55095
8.19998
7.99889
7.35699
6.74336
5.99863
4.72899
3.24544
1.99229
1.44044
1.38518
1.39293
1.39627
1.39922
3.21662
5.04376
6.76322
7.90999
8.63894
9.00917
9.16236
8.70287
6.32556
4.46829
3.31427
2.19851
1.51803
1.3828
1.39024
1.39489
1.39884
1.39997
1.40003
1.40002
9.62708
9.55242
9.45364
9.55809
9.79364
9.52485
8.34436
3.14944
0.912774
1.40001
1.40001
1.40001
1.40001
1.40001
1.40001
1.40001
1.40001
1.40001
1.40001
1.40001
9.53588
9.49359
9.32602
9.22927
9.52803
8.05941
3.58814
1.4151
1.40001
1.40001
1.40001
1.40001
1.40001
1.40001
1.40001
1.40001
1.40001
1.40001
1.40001
1.40001
9.41193
9.49866
9.41308
9.11313
8.71608
4.75631
1.49039
1.3984
1.40001
1.40001
1.40001
1.40001
1.40001
1.40001
1.40001
1.40001
1.40001
1.40001
1.40001
1.40001
9.23068
9.49003
9.50701
9.14576
6.57875
2.03201
1.39003
1.40018
1.4
1.40001
1.40001
1.40001
1.40001
1.40001
1.40001
1.40001
1.40001
1.40001
1.40001
1.40001
9.0194
9.43284
9.48696
8.65965
3.69373
1.36631
1.40051
1.4
1.40001
1.40001
1.40001
1.40001
1.40001
1.40001
1.40001
1.40001
1.40001
1.40001
1.40001
1.40001
8.8929
9.32514
9.33279
6.7751
1.96607
1.40001
1.40001
1.40001
1.40001
1.40001
1.40001
1.40001
1.40001
1.40001
1.40001
1.40001
1.40001
1.40001
1.40001
1.40001
8.85317
9.29238
9.20063
4.95756
1.36847
1.40001
1.40001
1.40001
1.40001
1.40001
1.40001
1.40001
1.40001
1.40001
1.40001
1.40001
1.40001
1.40001
1.40001
1.40001
9.00588
9.26567
8.44697
2.86223
1.4
1.40001
1.40001
1.40001
1.40001
1.40001
1.40001
1.40001
1.40001
1.40001
1.40001
1.40001
1.40001
1.40001
1.40001
1.40001
9.62615
9.25802
6.80257
1.66754
1.40001
1.40001
1.40001
1.40001
1.40001
1.40001
1.40001
1.40001
1.40001
1.40001
1.40001
1.40001
1.40001
1.40001
1.40001
1.40001
10.0298
8.82413
4.85862
1.38261
1.40001
1.40001
1.40001
1.40001
1.40001
1.40001
1.40001
1.40001
1.40001
1.40001
1.40001
1.40001
1.40001
1.40001
1.40001
1.40001
10.3228
8.37516
3.19521
1.40001
1.40001
1.40001
1.40001
1.40001
1.40001
1.40001
1.40001
1.40001
1.40001
1.40001
1.40001
1.40001
1.40001
1.40001
1.40001
1.40001
10.4318
7.45479
2.25629
1.40001
1.40001
1.40001
1.40001
1.40001
1.40001
1.40001
1.40001
1.40001
1.40001
1.40001
1.40001
1.40001
1.40001
1.40001
1.40001
1.40001
10.5028
6.56592
1.62012
1.40001
1.40001
1.40001
1.40001
1.40001
1.40001
1.40001
1.40001
1.40001
1.40001
1.40001
1.40001
1.40001
1.40001
1.40001
1.40001
1.40001
10.2255
5.51396
1.40009
1.40001
1.40001
1.40001
1.40001
1.40001
1.40001
1.40001
1.40001
1.40001
1.40001
1.40001
1.40001
1.40001
1.40001
1.40001
1.40001
1.40001
9.87006
4.56582
1.40001
1.40001
1.40001
1.40001
1.40001
1.40001
1.40001
1.40001
1.40001
1.40001
1.40001
1.40001
1.40001
1.40001
1.40001
1.40001
1.40001
1.40001
9.75597
3.49381
1.40001
1.40001
1.40001
1.40001
1.40001
1.40001
1.40001
1.40001
1.40001
1.40001
1.40001
1.40001
1.40001
1.40001
1.40001
1.40001
1.40001
1.40001
9.24817
2.57229
1.40001
1.40001
1.40001
1.40001
1.40001
1.40001
1.40001
1.40001
1.40001
1.40001
1.40001
1.40001
1.40001
1.40001
1.40001
1.40001
1.40001
1.40001
8.71164
1.87628
1.40001
1.40001
1.40001
1.40001
1.40001
1.40001
1.40001
1.40001
1.40001
1.40001
1.40001
1.40001
1.40001
1.40001
1.40001
1.40001
1.40001
1.40001
7.98926
1.40705
1.40001
1.40001
1.40001
1.40001
1.40001
1.40001
1.40001
1.40001
1.40001
1.40001
1.40001
1.40001
1.40001
1.40001
1.40001
1.40001
1.40001
1.40001
6.45582
1.40017
1.40001
1.40001
1.40001
1.40001
1.40001
1.40001
1.40001
1.40001
1.40001
1.40001
1.40001
1.40001
1.40001
1.40001
1.40001
1.40001
1.40001
1.40001
6.44921
1.40016
1.40001
1.40001
1.40001
1.40001
1.40001
1.40001
1.40001
1.40001
1.40001
1.40001
1.40001
1.40001
1.40001
1.40001
1.40001
1.40001
1.40001
1.40001
7.99989
1.40731
1.40001
1.40001
1.40001
1.40001
1.40001
1.40001
1.40001
1.40001
1.40001
1.40001
1.40001
1.40001
1.40001
1.40001
1.40001
1.40001
1.40001
1.40001
8.71536
1.88325
1.40001
1.40001
1.40001
1.40001
1.40001
1.40001
1.40001
1.40001
1.40001
1.40001
1.40001
1.40001
1.40001
1.40001
1.40001
1.40001
1.40001
1.40001
9.22781
2.57165
1.40001
1.40001
1.40001
1.40001
1.40001
1.40001
1.40001
1.40001
1.40001
1.40001
1.40001
1.40001
1.40001
1.40001
1.40001
1.40001
1.40001
1.40001
9.76293
3.48404
1.40001
1.40001
1.40001
1.40001
1.40001
1.40001
1.40001
1.40001
1.40001
1.40001
1.40001
1.40001
1.40001
1.40001
1.40001
1.40001
1.40001
1.40001
9.8752
4.56613
1.40001
1.40001
1.40001
1.40001
1.40001
1.40001
1.40001
1.40001
1.40001
1.40001
1.40001
1.40001
1.40001
1.40001
1.40001
1.40001
1.40001
1.40001
10.2162
5.52066
1.40007
1.40001
1.40001
1.40001
1.40001
1.40001
1.40001
1.40001
1.40001
1.40001
1.40001
1.40001
1.40001
1.40001
1.40001
1.40001
1.40001
1.40001
10.4996
6.56784
1.6175
1.40001
1.40001
1.40001
1.40001
1.40001
1.40001
1.40001
1.40001
1.40001
1.40001
1.40001
1.40001
1.40001
1.40001
1.40001
1.40001
1.40001
10.4335
7.45084
2.25339
1.40001
1.40001
1.40001
1.40001
1.40001
1.40001
1.40001
1.40001
1.40001
1.40001
1.40001
1.40001
1.40001
1.40001
1.40001
1.40001
1.40001
10.3276
8.36991
3.19473
1.40001
1.40001
1.40001
1.40001
1.40001
1.40001
1.40001
1.40001
1.40001
1.40001
1.40001
1.40001
1.40001
1.40001
1.40001
1.40001
1.40001
10.0352
8.82693
4.85358
1.38264
1.40001
1.40001
1.40001
1.40001
1.40001
1.40001
1.40001
1.40001
1.40001
1.40001
1.40001
1.40001
1.40001
1.40001
1.40001
1.40001
9.62938
9.24833
6.79513
1.66963
1.40001
1.40001
1.40001
1.40001
1.40001
1.40001
1.40001
1.40001
1.40001
1.40001
1.40001
1.40001
1.40001
1.40001
1.40001
1.40001
9.01402
9.27303
8.45523
2.85774
1.4
1.40001
1.40001
1.40001
1.40001
1.40001
1.40001
1.40001
1.40001
1.40001
1.40001
1.40001
1.40001
1.40001
1.40001
1.40001
8.8571
9.29799
9.20329
4.97025
1.37118
1.40001
1.40001
1.40001
1.40001
1.40001
1.40001
1.40001
1.40001
1.40001
1.40001
1.40001
1.40001
1.40001
1.40001
1.40001
8.89833
9.3195
9.32261
6.78195
1.97374
1.40001
1.40001
1.40001
1.40001
1.40001
1.40001
1.40001
1.40001
1.40001
1.40001
1.40001
1.40001
1.40001
1.40001
1.40001
9.01969
9.42242
9.47683
8.64472
3.68704
1.36646
1.4005
1.4
1.40001
1.40001
1.40001
1.40001
1.40001
1.40001
1.40001
1.40001
1.40001
1.40001
1.40001
1.40001
9.23204
9.49033
9.5057
9.1614
6.57405
2.02464
1.3901
1.40018
1.4
1.40001
1.40001
1.40001
1.40001
1.40001
1.40001
1.40001
1.40001
1.40001
1.40001
1.40001
9.42217
9.50531
9.42453
9.12292
8.71873
4.75851
1.49009
1.39837
1.40001
1.40001
1.40001
1.40001
1.40001
1.40001
1.40001
1.40001
1.40001
1.40001
1.40001
1.40001
9.54316
9.49904
9.33148
9.23574
9.53202
8.053
3.59603
1.4161
1.40001
1.40001
1.40001
1.40001
1.40001
1.40001
1.40001
1.40001
1.40001
1.40001
1.40001
1.40001
9.61989
9.54714
9.45018
9.56076
9.79567
9.51841
8.34006
3.14894
0.914581
1.40001
1.40001
1.40001
1.40001
1.40001
1.40001
1.40001
1.40001
1.40001
1.40001
1.40001
3.217
5.0486
6.78023
7.92944
8.64759
8.99129
9.15417
8.69511
6.32242
4.46729
3.31377
2.19849
1.51816
1.38277
1.39025
1.39489
1.39884
1.39997
1.40003
1.40002
0.424192
1.18689
2.67826
4.39402
5.88072
6.80522
7.56379
8.19714
7.99567
7.35479
6.74199
5.99803
4.72954
3.24671
1.99332
1.44069
1.38514
1.3929
1.39626
1.39922
0.0541487
0.244434
0.764288
1.6532
2.83578
4.00235
4.98928
5.96163
6.66936
6.71331
6.57071
6.56499
6.50783
6.28189
5.58571
4.26597
2.91865
1.8647
1.42597
1.39007
0.0101626
0.0594133
0.220541
0.594688
1.25623
1.98856
2.73677
3.5321
4.37275
4.90736
5.21904
5.54143
5.82709
6.0567
6.19444
6.09534
5.80328
5.07417
3.89296
2.6435
0.0118597
0.0257931
0.0484575
0.24266
0.62053
1.03256
1.4892
2.04144
2.65457
3.18179
3.57239
3.95232
4.33465
4.74855
5.19908
5.51002
5.69687
5.7543
5.62478
5.44579
0.0235388
0.0227175
0.0241398
0.0753456
0.255965
0.614812
0.938098
1.30529
1.73318
2.14784
2.46055
2.75195
3.04715
3.35902
3.76015
4.15726
4.54959
4.8815
5.07908
5.2503
0.038493
0.0243915
0.0264241
0.052733
0.103421
0.292151
0.493232
0.739585
1.05028
1.34668
1.60607
1.82997
2.05624
2.27659
2.57376
2.91364
3.25858
3.60537
3.88568
4.17525
0.0536914
0.0316615
0.0316905
0.0563905
0.089984
0.145457
0.229618
0.33243
0.527144
0.758037
0.992336
1.2067
1.42482
1.61383
1.84738
2.09578
2.33795
2.56156
2.9084
2.88994
0.07149
0.0440317
0.0435278
0.0613522
0.0912635
0.138037
0.225474
0.303874
0.426344
0.60311
0.75683
0.91005
1.06716
1.20266
1.34315
1.49734
1.65878
1.82806
2.14028
2.10133
0.0913754
0.0566338
0.0614999
0.0765638
0.101581
0.14337
0.22929
0.3015
0.391604
0.503381
0.593212
0.685529
0.778005
0.871025
0.948142
1.04509
1.18028
1.33731
1.62284
1.60109
0.112102
0.0648671
0.0684725
0.0873464
0.107073
0.138635
0.201777
0.25779
0.307248
0.360212
0.40229
0.454275
0.515026
0.590228
0.670433
0.777321
0.908564
1.04077
1.17288
1.34322
0.127641
0.070263
0.0636165
0.0791645
0.0955622
0.110457
0.140083
0.175958
0.200041
0.225592
0.266076
0.31929
0.398194
0.470624
0.545728
0.630864
0.712509
0.796914
0.850615
1.02149
0.137851
0.0764942
0.0618945
0.0667724
0.0751866
0.0826429
0.0980315
0.125004
0.157421
0.200512
0.256027
0.296433
0.356426
0.405946
0.454581
0.502544
0.544407
0.580898
0.611441
0.74353
0.141687
0.087986
0.0666134
0.0661852
0.0725534
0.0818528
0.0980153
0.126632
0.163679
0.199164
0.241646
0.268343
0.302614
0.33191
0.351375
0.364956
0.380585
0.397181
0.430245
0.547467
0.127963
0.0969749
0.0810193
0.0740393
0.0788139
0.0907643
0.104205
0.128716
0.159183
0.18177
0.205414
0.227233
0.229887
0.237197
0.237266
0.243537
0.260333
0.303314
0.355057
0.440061
0.110588
0.101664
0.0939557
0.0874137
0.087012
0.0942608
0.100285
0.113564
0.132568
0.154749
0.149773
0.158422
0.15321
0.158583
0.174533
0.203312
0.236282
0.271958
0.305662
0.338769
0.104704
0.106942
0.105257
0.0965696
0.0874632
0.0821487
0.0780002
0.079591
0.0868077
0.101569
0.103992
0.112774
0.126143
0.146025
0.167276
0.191043
0.215253
0.234039
0.247413
0.249768
0.0937046
0.104916
0.116948
0.11182
0.0980037
0.0798964
0.06812
0.0673401
0.0715654
0.0782939
0.0891432
0.100259
0.114439
0.131701
0.146937
0.158569
0.165745
0.169291
0.170763
0.172552
0.0936125
0.123268
0.151538
0.190309
0.203694
0.182759
0.151198
0.133336
0.135853
0.144505
0.164732
0.178014
0.19938
0.234811
0.276933
0.324621
0.348216
0.326767
0.286653
0.263049
0.138666
0.277044
0.313806
0.379557
0.444157
0.491101
0.544013
0.567298
0.592146
0.600812
0.62775
0.639257
0.656082
0.678013
0.6798
0.689734
0.710703
0.708729
0.691476
0.705942
0.777798
0.906246
0.97049
1.07027
1.14589
1.21144
1.24043
1.23417
1.21212
1.21431
1.24917
1.32187
1.36
1.34927
1.30027
1.27952
1.29792
1.34044
1.34384
1.3039
0.403811
0.585742
0.755417
0.915269
1.05363
1.15223
1.21047
1.24393
1.23709
1.23443
1.25023
1.29327
1.33065
1.33493
1.32138
1.30552
1.3113
1.33167
1.33176
1.29999
0.191097
0.224612
0.336179
0.487976
0.731684
0.940955
1.084
1.20481
1.27101
1.2607
1.26027
1.26908
1.29109
1.31943
1.33344
1.3401
1.34123
1.32867
1.31232
1.28779
0.259976
0.304435
0.337504
0.331759
0.351249
0.439611
0.68424
1.00031
1.18977
1.26961
1.27573
1.24788
1.25796
1.29227
1.33552
1.35482
1.35575
1.3347
1.30753
1.28811
0.331148
0.366393
0.390493
0.394588
0.381246
0.382642
0.400605
0.527835
0.858855
1.17196
1.23592
1.22818
1.22269
1.27031
1.33899
1.36804
1.36363
1.33105
1.30616
1.29419
0.437502
0.453411
0.485881
0.470229
0.444452
0.438491
0.440866
0.45446
0.515473
0.748409
1.06086
1.21312
1.20227
1.24656
1.32481
1.35776
1.35506
1.32454
1.31219
1.30644
0.553084
0.571096
0.570856
0.550658
0.513126
0.50062
0.50123
0.512222
0.523556
0.543043
0.661259
0.968261
1.17903
1.24161
1.29849
1.34216
1.34061
1.31967
1.32013
1.31672
0.715941
0.696245
0.680763
0.651317
0.601002
0.564238
0.552098
0.548829
0.551756
0.555539
0.561064
0.628391
0.917593
1.17717
1.26061
1.32471
1.30828
1.30529
1.32613
1.32015
0.936701
0.843498
0.796677
0.761644
0.702082
0.642063
0.613784
0.596161
0.595751
0.594714
0.578624
0.578685
0.63143
0.879506
1.1715
1.31649
1.26678
1.29202
1.33408
1.32195
1.21173
1.02572
0.926379
0.889244
0.817551
0.738188
0.678929
0.637546
0.615524
0.625325
0.620394
0.605762
0.605265
0.640705
0.848121
1.14902
1.21024
1.30361
1.33993
1.31676
1.79048
1.33134
1.0117
0.95079
0.955197
0.942415
0.876523
0.758884
0.70627
0.690492
0.68457
0.673039
0.661233
0.653739
0.666181
0.777632
1.03887
1.24334
1.30381
1.29697
2.82137
2.14371
1.60378
1.20257
1.1223
1.1331
1.08199
0.937164
0.829936
0.787353
0.759883
0.760607
0.749245
0.71533
0.67788
0.682704
0.740795
0.903155
1.1089
1.24155
3.47997
3.01028
2.4269
1.89535
1.45509
1.26373
1.20304
1.08113
0.960028
0.933697
0.92623
0.90816
0.864893
0.810551
0.77242
0.735321
0.741514
0.751732
0.808921
1.01623
3.29604
3.27058
3.10954
2.70202
2.20461
1.70233
1.4954
1.35329
1.2352
1.13549
1.05711
1.0037
0.935024
0.875425
0.837332
0.815282
0.794999
0.778997
0.76987
0.802439
2.35044
2.99712
3.09882
3.0545
2.88137
2.48052
2.0401
1.74399
1.52283
1.34463
1.16907
1.09461
1.04622
1.00241
0.9767
0.949084
0.910568
0.873965
0.826367
0.795112
1.55257
2.01158
2.58238
2.95043
2.94742
2.89499
2.685
2.35542
1.99585
1.73363
1.50821
1.35217
1.26687
1.19789
1.12574
1.04022
0.969081
0.920707
0.886813
0.850734
1.40633
1.46244
1.68571
2.16639
2.59805
2.81913
2.80983
2.75327
2.5582
2.25618
1.97446
1.69624
1.50028
1.35547
1.23897
1.15246
1.07978
1.01519
1.01505
0.979526
1.40013
1.40158
1.41457
1.50858
1.77698
2.19466
2.54939
2.70334
2.69205
2.63216
2.4705
2.20395
1.93702
1.70325
1.50347
1.41265
1.32393
1.22351
1.15511
1.06336
1.40001
1.40002
1.40021
1.40341
1.42695
1.54004
1.80298
2.17787
2.46655
2.59627
2.58817
2.53837
2.39683
2.17214
1.91876
1.70597
1.55059
1.40175
1.28706
1.16177
1.40001
1.40001
1.40001
1.40004
1.40047
1.4055
1.43361
1.55177
1.80031
2.12817
2.38265
2.49919
2.49214
2.45271
2.34611
2.1446
1.92766
1.72596
1.57429
1.39532
1.40001
1.40001
1.40001
1.40001
1.40001
1.40007
1.40068
1.40657
1.43777
1.54678
1.76781
2.06514
2.28989
2.41129
2.40822
2.37958
2.29548
2.14024
1.95475
1.66839
1.40001
1.40001
1.40001
1.40001
1.40001
1.40001
1.40001
1.40009
1.40083
1.4067
1.43487
1.53277
1.72745
1.99106
2.19989
2.32964
2.32703
2.31031
2.25979
2.04368
1.40001
1.40001
1.40001
1.40001
1.40001
1.40001
1.40001
1.40001
1.40001
1.40009
1.4008
1.40602
1.43085
1.51203
1.67488
1.91865
2.10653
2.24914
2.25632
2.21959
1.40001
1.40001
1.40001
1.40001
1.40001
1.40001
1.40001
1.40001
1.40001
1.40001
1.40001
1.40009
1.40071
1.40482
1.42443
1.48851
1.63021
1.83796
2.02121
2.16333
1.40001
1.40001
1.40001
1.40001
1.40001
1.40001
1.40001
1.40001
1.40001
1.40001
1.40001
1.40001
1.40001
1.40007
1.40056
1.40356
1.41975
1.47148
1.59073
1.93862
2.25187
3.4289
3.59692
2.90576
1.83008
1.45138
1.40263
1.40007
1.40001
1.40001
1.40001
1.40001
1.40001
1.40001
1.40001
3.26983
3.91877
3.51958
2.14951
1.46669
1.40112
1.40001
1.4
1.40001
1.40001
1.40001
1.40001
1.40001
1.40001
1.40001
4.07884
3.99604
2.76035
1.61166
1.40726
1.40008
1.40001
1.40001
1.40001
1.40001
1.40001
1.40001
1.40001
1.40001
1.40001
4.52495
3.56163
1.90806
1.42692
1.40027
1.40001
1.40001
1.40001
1.40001
1.40001
1.40001
1.40001
1.40001
1.40001
1.40001
4.61685
2.35052
1.46543
1.40069
1.40001
1.40001
1.40001
1.40001
1.40001
1.40001
1.40001
1.40001
1.40001
1.40001
1.40001
2.88188
1.50146
1.4007
1.4
1.4
1.40001
1.40001
1.40001
1.40001
1.40001
1.40001
1.40001
1.40001
1.40001
1.40001
1.5423
1.40078
1.4
1.4
1.40001
1.40001
1.40001
1.40001
1.40001
1.40001
1.40001
1.40001
1.40001
1.40001
1.40001
1.39743
1.39982
1.4
1.40001
1.40001
1.40001
1.40001
1.40001
1.40001
1.40001
1.40001
1.40001
1.40001
1.40001
1.40001
1.39996
1.40001
1.40001
1.40001
1.40001
1.40001
1.40001
1.40001
1.40001
1.40001
1.40001
1.40001
1.40001
1.40001
1.40001
1.40001
1.40001
1.40001
1.40001
1.40001
1.40001
1.40001
1.40001
1.40001
1.40001
1.40001
1.40001
1.40001
1.40001
1.40001
1.40001
1.40001
1.40001
1.40001
1.40001
1.40001
1.40001
1.40001
1.40001
1.40001
1.40001
1.40001
1.40001
1.40001
1.40001
1.40001
1.40001
1.40001
1.40001
1.40001
1.40001
1.40001
1.40001
1.40001
1.40001
1.40001
1.40001
1.40001
1.40001
1.40001
1.40001
1.40001
1.40001
1.40001
1.40001
1.40001
1.40001
1.40001
1.40001
1.40001
1.40001
1.40001
1.40001
1.40001
1.40001
1.40001
1.40001
1.40001
1.40001
1.40001
1.40001
1.40001
1.40001
1.40001
1.40001
1.40001
1.40001
1.40001
1.40001
1.40001
1.40001
1.40001
1.40001
1.40001
1.40001
1.40001
1.40001
1.40001
1.40001
1.40001
1.40001
1.40001
1.40001
1.40001
1.40001
1.40001
1.40001
1.40001
1.40001
1.40001
1.40001
1.40001
1.40001
1.40001
1.40001
1.40001
1.40001
1.40001
1.40001
1.40001
1.40001
1.40001
1.40001
1.40001
1.40001
1.40001
1.40001
1.40001
1.40001
1.40001
1.40001
1.40001
1.40001
1.40001
1.40001
1.40001
1.40001
1.40001
1.40001
1.40001
1.40001
1.40001
1.40001
1.40001
1.40001
1.40001
1.40001
1.40001
1.40001
1.40001
1.40001
1.40001
1.40001
1.40001
1.40001
1.40001
1.40001
1.40001
1.40001
1.40001
1.40001
1.40001
1.40001
1.40001
1.40001
1.40001
1.40001
1.40001
1.40001
1.40001
1.40001
1.40001
1.40001
1.40001
1.40001
1.40001
1.40001
1.40001
1.40001
1.40001
1.40001
1.40001
1.40001
1.40001
1.40001
1.40001
1.40001
1.40001
1.40001
1.40001
1.40001
1.40001
1.40001
1.40001
1.40001
1.40001
1.40001
1.40001
1.40001
1.40001
1.40001
1.40001
1.40001
1.40001
1.40001
1.40001
1.40001
1.40001
1.40001
1.40001
1.40001
1.40001
1.40001
1.40001
1.40001
1.40001
1.40001
1.40001
1.40001
1.40001
1.40001
1.40001
1.40001
1.40001
1.40001
1.40001
1.40001
1.40001
1.40001
1.40001
1.40001
1.40001
1.40001
1.40001
1.40001
1.40001
1.40001
1.40001
1.40001
1.40001
1.40001
1.40001
1.40001
1.40001
1.40001
1.40001
1.40001
1.40001
1.40001
1.40001
1.40001
1.40001
1.40001
1.40001
1.40001
1.40001
1.40001
1.40001
1.40001
1.40001
1.40001
1.40001
1.40001
1.40001
1.40001
1.40001
1.40001
1.40001
1.40001
1.40001
1.40001
1.40001
1.40001
1.40001
1.40001
1.40001
1.40001
1.40001
1.40001
1.40001
1.40001
1.40001
1.40001
1.40001
1.40001
1.40001
1.40001
1.40001
1.40001
1.40001
1.40001
1.40001
1.40001
1.40001
1.40001
1.40001
1.40001
1.40001
1.40001
1.40001
1.40001
1.40001
1.40001
1.40001
1.40001
1.40001
1.40001
1.40001
1.40001
1.40001
1.40001
1.40001
1.40001
1.40001
1.40001
1.40001
1.40001
1.40001
1.40001
1.40001
1.40001
1.40001
1.40001
1.40001
1.40001
1.40001
1.40001
1.40001
1.40001
1.40001
1.40001
1.40001
1.40001
1.40001
1.40001
1.40001
1.40001
1.40001
1.40001
1.40001
1.40001
1.40001
1.40001
1.40001
1.40001
1.40001
1.40001
1.40001
1.40001
1.40001
1.40001
1.40001
1.40001
1.40001
1.40001
1.40001
1.40001
1.40001
1.40001
1.40001
1.40001
1.40001
1.40001
1.40001
1.40001
1.40001
1.40001
1.40001
1.40001
1.40001
1.40001
1.40001
1.40001
1.40001
1.40001
1.40001
1.40001
1.40001
1.40001
1.40001
1.40001
1.40001
1.40001
1.40001
1.40001
1.40001
1.40001
1.40001
1.40001
1.40001
1.40001
1.40001
1.40001
1.40001
1.40001
1.40001
1.40001
1.40001
1.40001
1.40001
1.40001
1.40001
1.40001
1.40001
1.40001
1.40001
1.40001
1.40001
1.40001
1.40001
1.40001
1.40001
1.40001
1.40001
1.40001
1.40001
1.40001
1.40001
1.40001
1.40001
1.40001
1.40001
1.40001
1.40001
1.40001
1.40001
1.40001
1.40001
1.40001
1.40001
1.40001
1.40001
1.40001
1.40001
1.40001
1.40001
1.40001
1.40001
1.40001
1.40001
1.40001
1.40001
1.40001
1.40001
1.40001
1.40001
1.40001
1.40001
1.40001
1.40001
1.40001
1.40001
1.40001
1.40001
1.40001
1.40001
1.40001
1.40001
1.40001
1.40001
1.40001
1.40001
1.40001
1.40001
1.40001
1.40001
1.40001
1.40001
1.40001
1.40001
1.40001
1.40001
1.40001
1.40001
1.40001
1.40001
1.40001
1.40001
1.40001
1.40001
1.40001
1.40001
1.40001
1.40001
1.40001
1.40001
1.40001
1.40001
1.40001
1.40001
1.40001
1.40001
1.40001
1.40001
1.40001
1.40001
1.40001
1.40001
1.40001
1.40001
1.40001
1.40001
1.40001
1.40001
1.40001
1.40001
1.40001
1.40001
1.40001
1.40001
1.40001
1.40001
1.40001
1.40001
1.40001
1.40001
1.40001
1.40001
1.40001
1.40001
1.40001
1.40001
1.40001
1.40001
1.40001
1.40001
1.40001
1.40001
1.40001
1.40001
1.40001
1.40001
1.40001
1.40001
1.40001
1.40001
1.40001
1.40001
1.40001
1.40001
1.40001
1.40001
1.40001
1.40001
1.40001
1.40001
1.40001
1.40001
1.40001
1.40001
1.40001
1.40001
1.40001
1.40001
1.40001
1.40001
1.40001
1.40001
1.40001
1.40001
1.40001
1.40001
1.40001
1.40001
1.40001
1.40001
1.40001
1.40001
1.40001
1.40001
1.40001
1.40001
1.40001
1.40001
1.40001
1.40001
1.40001
1.40001
1.40001
1.40001
1.40001
1.40001
1.40001
1.40001
1.40001
1.40001
1.40001
1.40001
1.40001
1.40001
1.40001
1.40001
1.40001
1.40001
1.40001
1.40001
1.40001
1.40001
1.40001
1.40001
1.40001
1.40001
1.40001
1.40001
1.40001
1.40001
1.40001
1.40001
1.40001
1.40001
1.40001
1.40001
1.40001
1.40001
1.40001
1.40001
1.40001
1.40001
1.40001
1.40001
1.40001
1.40001
1.40001
1.40001
1.40001
1.40001
1.40001
1.40001
1.40001
1.40001
1.40001
1.40001
1.40001
1.40001
1.40001
1.40001
1.40001
1.40001
1.40001
1.40001
1.40001
1.40001
1.40001
1.40001
1.40001
1.40001
1.40001
1.40001
1.40001
1.40001
1.40001
1.40001
1.40001
1.40001
1.40001
1.40001
1.40001
1.40001
1.40001
1.40001
1.40001
1.40001
1.40001
1.40001
1.40001
1.40001
1.40001
1.40001
1.40001
1.40001
1.40001
1.40001
1.40001
1.40001
1.40001
1.40001
1.40001
1.40001
1.40001
1.40001
1.40001
1.40001
1.40001
1.40001
1.40001
1.40001
1.40001
1.40001
1.40001
1.40001
1.40001
1.40001
1.40001
1.40001
1.40001
1.40001
1.40001
1.40001
1.40001
1.40001
1.40001
1.40001
1.40001
1.40001
1.40001
1.40001
1.40001
1.40001
1.40001
1.40001
1.40001
1.40001
1.40001
1.40001
1.40001
1.40001
1.40001
1.40001
1.40001
1.40001
1.40001
1.40001
1.40001
1.40001
1.40001
1.40001
1.40001
1.40001
1.40001
1.40001
1.40001
1.40001
1.40001
1.40001
1.40001
1.40001
1.40001
1.40001
1.40001
1.40001
1.40001
1.40001
1.40001
1.40001
1.40001
1.40001
1.40001
1.40001
1.40001
1.40001
1.40001
1.40001
1.40001
1.40001
1.40001
1.40001
1.40001
1.40001
1.40001
1.40001
1.40001
1.40001
1.40001
1.40001
1.40001
1.40001
1.40001
1.40001
1.40001
1.40001
1.40001
1.40001
1.40001
1.40001
1.40001
1.40001
1.40001
1.40001
1.40001
1.40001
1.40001
1.40001
1.40001
1.40001
1.40001
1.40001
1.40001
1.40001
1.40001
1.40001
1.40001
1.40001
1.40001
1.40001
1.40001
1.40001
1.40001
1.40001
1.40001
1.40001
1.40001
1.40001
1.40001
1.40001
1.40001
1.40001
1.40001
1.40001
1.40001
1.40001
1.40001
1.40001
1.40001
1.40001
1.40001
1.40001
1.40001
1.40001
1.40001
1.40001
1.40001
1.40001
1.40001
1.40001
1.40001
1.40001
1.40001
1.40001
1.40001
1.40001
1.40001
1.40001
1.40001
1.40001
1.40001
1.40001
1.40001
1.40001
1.40001
1.40001
1.40001
1.40001
1.40001
1.40001
1.40001
1.39996
1.40001
1.40001
1.40001
1.40001
1.40001
1.40001
1.40001
1.40001
1.40001
1.40001
1.40001
1.40001
1.40001
1.40001
1.39742
1.39982
1.4
1.40001
1.40001
1.40001
1.40001
1.40001
1.40001
1.40001
1.40001
1.40001
1.40001
1.40001
1.40001
1.54272
1.40079
1.4
1.4
1.40001
1.40001
1.40001
1.40001
1.40001
1.40001
1.40001
1.40001
1.40001
1.40001
1.40001
2.88244
1.50144
1.40069
1.4
1.4
1.40001
1.40001
1.40001
1.40001
1.40001
1.40001
1.40001
1.40001
1.40001
1.40001
4.61606
2.34985
1.46542
1.40069
1.40001
1.40001
1.40001
1.40001
1.40001
1.40001
1.40001
1.40001
1.40001
1.40001
1.40001
4.52391
3.56117
1.90793
1.4269
1.40027
1.40001
1.40001
1.40001
1.40001
1.40001
1.40001
1.40001
1.40001
1.40001
1.40001
4.07728
3.99526
2.76039
1.6118
1.40727
1.40008
1.40001
1.40001
1.40001
1.40001
1.40001
1.40001
1.40001
1.40001
1.40001
3.2689
3.91734
3.51917
2.1497
1.46673
1.40112
1.40001
1.4
1.40001
1.40001
1.40001
1.40001
1.40001
1.40001
1.40001
2.25157
3.42737
3.59675
2.90581
1.83016
1.45139
1.40263
1.40007
1.40001
1.40001
1.40001
1.40001
1.40001
1.40001
1.40001
1.79173
2.82137
3.48045
3.29715
2.35052
1.55242
1.40632
1.40013
1.40001
1.40001
1.40001
1.40001
1.40001
1.40001
1.40001
1.34503
2.13966
3.01376
3.27081
2.99797
2.01121
1.46232
1.40158
1.40002
1.40001
1.40001
1.40001
1.40001
1.40001
1.40001
1.01558
1.60334
2.42338
3.1104
3.09886
2.58215
1.68551
1.41455
1.40021
1.40001
1.40001
1.40001
1.40001
1.40001
1.40001
0.937588
1.21302
1.88449
2.70512
3.05368
2.95021
2.16658
1.50865
1.40341
1.40004
1.40001
1.40001
1.40001
1.40001
1.40001
0.946932
1.14686
1.45656
2.19802
2.8807
2.9474
2.59815
1.77713
1.42696
1.40047
1.40001
1.40001
1.40001
1.40001
1.40001
0.930379
1.14639
1.27838
1.69103
2.48156
2.89525
2.81952
2.19494
1.54009
1.4055
1.40007
1.40001
1.40001
1.40001
1.40001
0.859836
1.07359
1.21052
1.50271
2.04259
2.68655
2.8104
2.54972
1.80306
1.43361
1.40068
1.40001
1.40001
1.40001
1.40001
0.755695
0.917218
1.08359
1.37058
1.7438
2.35769
2.75379
2.70373
2.1779
1.55171
1.40657
1.40009
1.40001
1.40001
1.40001
0.717889
0.816886
0.964828
1.25212
1.52109
1.99456
2.55818
2.69231
2.46664
1.80023
1.43776
1.40083
1.40001
1.40001
1.40001
0.70459
0.781057
0.927135
1.14324
1.34313
1.73042
2.25531
2.63221
2.59621
2.12811
1.54679
1.40671
1.40009
1.40001
1.40001
0.695806
0.757807
0.913917
1.05784
1.16808
1.50645
1.97434
2.47031
2.58801
2.38254
1.76784
1.43489
1.4008
1.40001
1.40001
0.683953
0.76135
0.895129
1.00096
1.0962
1.35205
1.69645
2.20393
2.5382
2.49903
2.06508
1.53279
1.40603
1.40009
1.40001
0.67029
0.751311
0.855596
0.932938
1.0495
1.26699
1.5003
1.93651
2.3965
2.49199
2.28983
1.72743
1.43085
1.40071
1.40001
0.657038
0.719151
0.806492
0.874045
1.0067
1.19795
1.35574
1.70306
2.17145
2.45252
2.4112
1.99106
1.51204
1.40482
1.40007
0.665789
0.681907
0.773145
0.83681
0.97832
1.12537
1.23836
1.50227
1.91882
2.34607
2.40816
2.19989
1.6749
1.42443
1.40056
0.775596
0.685362
0.737461
0.814814
0.948946
1.03965
1.15201
1.41154
1.70598
2.14479
2.37958
2.32963
1.91865
1.48852
1.40356
1.03845
0.741808
0.742997
0.794396
0.910064
0.968765
1.08026
1.32408
1.5505
1.92751
2.29546
2.32702
2.10652
1.63021
1.41975
1.24215
0.902021
0.75166
0.778019
0.873612
0.920004
1.01616
1.22418
1.40209
1.726
2.14022
2.31031
2.24917
1.83795
1.47147
1.30291
1.10732
0.807807
0.769741
0.825988
0.88544
1.01602
1.15493
1.28718
1.57473
1.95489
2.25984
2.25636
2.02124
1.59073
1.29665
1.24113
1.01564
0.802593
0.795414
0.850112
0.979971
1.06283
1.1614
1.39551
1.66848
2.04375
2.21963
2.16337
1.93865
1.21229
1.02563
0.909894
0.880412
0.820774
0.73944
0.683386
0.628537
0.620977
0.633344
0.627096
0.612697
0.607949
0.638426
0.844071
1.15041
1.21048
1.30282
1.33926
1.31649
0.917738
0.843622
0.793034
0.75757
0.691911
0.633601
0.605378
0.583249
0.586289
0.593227
0.585877
0.581711
0.6282
0.871091
1.15019
1.3023
1.26042
1.28909
1.33393
1.32213
0.696752
0.696264
0.68951
0.657988
0.592878
0.558444
0.547462
0.548462
0.552658
0.56393
0.56445
0.62877
0.903686
1.16897
1.25324
1.32208
1.30658
1.30436
1.32624
1.32046
0.551776
0.567336
0.578414
0.557575
0.513433
0.503336
0.503584
0.510373
0.520442
0.54193
0.669811
0.971017
1.17419
1.22437
1.29533
1.34726
1.34526
1.3215
1.32158
1.31723
0.436541
0.457925