/*--------------------------------*- C++ -*----------------------------------*\
  =========                 |
  \\      /  F ield         | OpenFOAM: The Open Source CFD Toolbox
   \\    /   O peration     | Website:  https://openfoam.org
    \\  /    A nd           | Version:  7
     \\/     M anipulation  |
\*---------------------------------------------------------------------------*/
FoamFile
{
    version     2.0;
    format      ascii;
    class       volScalarField;
    location    "4.2";
    object      T;
}
// * * * * * * * * * * * * * * * * * * * * * * * * * * * * * * * * * * * * * //

dimensions      [0 0 0 1 0 0 0];

internalField   nonuniform List<scalar> 
3700
(
100.455
100.648
100.752
100.812
100.884
101.007
101.109
101.118
101.115
101.099
101.076
101.073
101.093
101.093
101.077
101.055
101.059
101.076
101.074
101.064
100.101
100.178
100.331
100.394
100.431
100.582
100.755
100.777
100.76
100.689
100.571
100.533
100.529
100.51
100.458
100.389
100.396
100.438
100.522
100.505
100.041
100.091
100.114
100.091
100.033
99.942
99.8744
99.8654
99.8752
99.8934
99.9247
99.9584
99.9954
100.021
100.036
100.04
100.04
100.033
100.022
100.017
100.057
100.091
100.079
100.046
99.9848
99.945
99.9137
99.8958
99.895
99.9063
99.9136
99.9439
99.985
100.022
100.047
100.065
100.082
100.092
100.092
100.075
100.08
100.097
100.068
100.043
100.045
100.056
100.031
100.033
100.041
100.043
100.013
100.011
99.9965
100.012
100.038
100.067
100.09
100.119
100.136
100.154
100.167
100.113
100.076
100.053
100.057
100.082
100.075
100.097
100.128
100.127
100.128
100.125
100.107
100.097
100.082
100.077
100.085
100.121
100.157
100.203
100.255
100.119
100.037
99.9995
100.002
100.051
100.062
100.104
100.146
100.166
100.184
100.182
100.189
100.19
100.188
100.181
100.172
100.169
100.179
100.24
100.269
100.057
99.938
99.9386
99.9734
100.014
100.044
100.088
100.122
100.162
100.192
100.203
100.229
100.241
100.254
100.263
100.264
100.267
100.271
100.308
100.208
99.9533
99.9014
99.9288
99.9788
100.012
100.054
100.107
100.121
100.154
100.177
100.2
100.24
100.265
100.289
100.313
100.328
100.339
100.347
100.388
100.088
99.8978
99.896
99.9544
100.013
100.075
100.136
100.187
100.208
100.236
100.243
100.259
100.275
100.295
100.318
100.348
100.38
100.401
100.422
100.453
100.004
99.8354
99.8813
99.9521
100.005
100.1
100.188
100.235
100.284
100.327
100.343
100.359
100.375
100.387
100.397
100.41
100.432
100.457
100.501
100.496
99.9185
99.7362
99.7653
99.8896
99.9696
100.098
100.215
100.247
100.311
100.376
100.406
100.427
100.447
100.459
100.477
100.496
100.518
100.537
100.571
100.566
99.8059
99.6202
99.6478
99.8447
99.978
100.173
100.256
100.289
100.358
100.416
100.457
100.483
100.505
100.521
100.547
100.575
100.602
100.626
100.654
100.651
99.6893
99.5466
99.607
99.8351
100.11
100.363
100.415
100.47
100.518
100.549
100.564
100.574
100.584
100.597
100.622
100.654
100.686
100.713
100.726
100.735
99.5804
99.5092
99.6151
99.9874
100.326
100.496
100.537
100.579
100.617
100.642
100.654
100.667
100.681
100.701
100.726
100.75
100.771
100.784
100.78
100.774
99.4473
99.5763
99.8903
100.287
100.506
100.574
100.617
100.659
100.693
100.712
100.727
100.747
100.769
100.794
100.813
100.824
100.823
100.816
100.791
100.745
99.3043
99.6918
100.21
100.49
100.636
100.688
100.724
100.759
100.787
100.803
100.816
100.832
100.849
100.855
100.854
100.843
100.791
100.678
100.518
100.28
99.4959
100.124
100.501
100.67
100.759
100.81
100.839
100.864
100.876
100.883
100.882
100.882
100.881
100.857
100.77
100.621
100.358
100.101
100.005
99.9978
100.115
100.528
100.733
100.836
100.89
100.908
100.919
100.923
100.919
100.909
100.895
100.84
100.724
100.468
100.146
100.01
99.9967
99.9985
99.9992
99.9998
100.696
100.837
100.913
100.949
100.962
100.955
100.952
100.929
100.847
100.766
100.58
100.238
100.031
99.9958
99.9978
99.9989
99.9998
100
100
100
100.998
100.996
100.991
100.989
100.982
100.953
100.875
100.438
99.8544
100
100
100
100
100
100
100
100
100
100
100
100.994
100.992
100.985
100.974
100.964
100.869
100.483
100.01
100
100
100
100
100
100
100
100
100
100
100
100
100.988
100.99
100.985
100.965
100.925
100.649
100.051
99.9991
100
100
100
100
100
100
100
100
100
100
100
100
100.983
100.989
100.985
100.954
100.795
100.246
99.9962
100
100
100
100
100
100
100
100
100
100
100
100
100
100.978
100.987
100.981
100.919
100.551
99.9923
100
100
100
100
100
100
100
100
100
100
100
100
100
100
100.976
100.986
100.977
100.823
100.248
100
100
100
100
100
100
100
100
100
100
100
100
100
100
100
100.977
100.985
100.971
100.704
99.9956
100
100
100
100
100
100
100
100
100
100
100
100
100
100
100
100.987
100.983
100.925
100.474
100
100
100
100
100
100
100
100
100
100
100
100
100
100
100
100
101.003
100.972
100.822
100.143
100
100
100
100
100
100
100
100
100
100
100
100
100
100
100
100
101.014
100.942
100.682
99.9964
100
100
100
100
100
100
100
100
100
100
100
100
100
100
100
100
101.022
100.908
100.504
100
100
100
100
100
100
100
100
100
100
100
100
100
100
100
100
100
101.027
100.85
100.321
100
100
100
100
100
100
100
100
100
100
100
100
100
100
100
100
100
101.031
100.792
100.108
100
100
100
100
100
100
100
100
100
100
100
100
100
100
100
100
100
101.029
100.731
100
100
100
100
100
100
100
100
100
100
100
100
100
100
100
100
100
100
101.012
100.683
100
100
100
100
100
100
100
100
100
100
100
100
100
100
100
100
100
100
100.99
100.57
100
100
100
100
100
100
100
100
100
100
100
100
100
100
100
100
100
100
100.946
100.419
100
100
100
100
100
100
100
100
100
100
100
100
100
100
100
100
100
100
100.904
100.222
100
100
100
100
100
100
100
100
100
100
100
100
100
100
100
100
100
100
100.868
100.004
100
100
100
100
100
100
100
100
100
100
100
100
100
100
100
100
100
100
100.813
100
100
100
100
100
100
100
100
100
100
100
100
100
100
100
100
100
100
100
100.812
100
100
100
100
100
100
100
100
100
100
100
100
100
100
100
100
100
100
100
100.869
100.004
100
100
100
100
100
100
100
100
100
100
100
100
100
100
100
100
100
100
100.906
100.226
100
100
100
100
100
100
100
100
100
100
100
100
100
100
100
100
100
100
100.945
100.418
100
100
100
100
100
100
100
100
100
100
100
100
100
100
100
100
100
100
100.989
100.568
100
100
100
100
100
100
100
100
100
100
100
100
100
100
100
100
100
100
101.012
100.683
100
100
100
100
100
100
100
100
100
100
100
100
100
100
100
100
100
100
101.03
100.732
100
100
100
100
100
100
100
100
100
100
100
100
100
100
100
100
100
100
101.031
100.792
100.107
100
100
100
100
100
100
100
100
100
100
100
100
100
100
100
100
100
101.027
100.849
100.321
100
100
100
100
100
100
100
100
100
100
100
100
100
100
100
100
100
101.022
100.907
100.504
100
100
100
100
100
100
100
100
100
100
100
100
100
100
100
100
100
101.013
100.941
100.682
99.9964
100
100
100
100
100
100
100
100
100
100
100
100
100
100
100
100
101.003
100.97
100.821
100.144
100
100
100
100
100
100
100
100
100
100
100
100
100
100
100
100
100.986
100.983
100.925
100.472
100
100
100
100
100
100
100
100
100
100
100
100
100
100
100
100
100.977
100.986
100.972
100.706
99.9971
100
100
100
100
100
100
100
100
100
100
100
100
100
100
100
100.976
100.986
100.978
100.824
100.251
100
100
100
100
100
100
100
100
100
100
100
100
100
100
100
100.978
100.988
100.981
100.918
100.55
99.9923
100
100
100
100
100
100
100
100
100
100
100
100
100
100
100.983
100.989
100.985
100.954
100.793
100.244
99.9962
100
100
100
100
100
100
100
100
100
100
100
100
100
100.989
100.99
100.985
100.965
100.925
100.649
100.051
99.9991
100
100
100
100
100
100
100
100
100
100
100
100
100.994
100.992
100.985
100.974
100.964
100.868
100.484
100.01
100
100
100
100
100
100
100
100
100
100
100
100
100.998
100.995
100.991
100.988
100.982
100.954
100.876
100.439
99.8543
100
100
100
100
100
100
100
100
100
100
100
100.696
100.836
100.913
100.95
100.962
100.955
100.952
100.928
100.846
100.766
100.58
100.238
100.031
99.9958
99.9978
99.9989
99.9998
100
100
100
100.125
100.526
100.729
100.834
100.89
100.908
100.919
100.923
100.919
100.909
100.895
100.84
100.724
100.468
100.146
100.01
99.9966
99.9985
99.9992
99.9998
99.5588
100.14
100.499
100.669
100.759
100.81
100.84
100.865
100.877
100.883
100.882
100.882
100.881
100.857
100.77
100.622
100.359
100.102
100.006
99.9978
99.3512
99.7667
100.19
100.471
100.626
100.687
100.726
100.761
100.789
100.804
100.816
100.832
100.849
100.855
100.854
100.843
100.792
100.679
100.519
100.28
99.4672
99.596
99.8868
100.289
100.509
100.572
100.613
100.657
100.692
100.712
100.727
100.746
100.768
100.794
100.813
100.824
100.823
100.816
100.791
100.746
99.7165
99.6147
99.7019
100.054
100.363
100.5
100.536
100.577
100.615
100.641
100.653
100.666
100.681
100.701
100.726
100.75
100.771
100.784
100.78
100.774
99.924
99.6675
99.6952
99.879
100.155
100.387
100.425
100.475
100.52
100.551
100.566
100.576
100.585
100.597
100.622
100.653
100.686
100.713
100.726
100.735
100.017
99.7498
99.7107
99.8773
100.016
100.215
100.28
100.303
100.364
100.416
100.456
100.481
100.503
100.519
100.546
100.574
100.602
100.626
100.655
100.651
100.056
99.8302
99.7784
99.8852
99.9772
100.105
100.214
100.242
100.303
100.371
100.402
100.425
100.446
100.458
100.477
100.496
100.519
100.538
100.572
100.566
100.1
99.9038
99.8714
99.937
99.9949
100.092
100.186
100.226
100.276
100.323
100.341
100.358
100.375
100.388
100.398
100.411
100.432
100.456
100.501
100.496
100.169
99.9452
99.9032
99.9563
99.9962
100.062
100.131
100.178
100.204
100.234
100.242
100.259
100.274
100.294
100.316
100.345
100.377
100.4
100.422
100.453
100.237
99.9844
99.8977
99.927
99.959
99.9837
100.035
100.088
100.108
100.142
100.167
100.191
100.233
100.261
100.286
100.311
100.328
100.34
100.348
100.389
100.264
100.04
99.912
99.9298
99.9535
99.9703
100.011
100.068
100.105
100.149
100.184
100.198
100.225
100.239
100.252
100.263
100.265
100.268
100.273
100.311
100.252
100.106
99.9748
99.9558
99.9754
99.995
100.037
100.094
100.134
100.159
100.181
100.182
100.19
100.191
100.19
100.185
100.177
100.172
100.179
100.239
100.178
100.108
100.065
100.041
100.046
100.063
100.072
100.099
100.124
100.129
100.134
100.13
100.114
100.103
100.088
100.08
100.084
100.116
100.154
100.202
100.106
100.097
100.084
100.073
100.063
100.062
100.048
100.047
100.051
100.056
100.026
100.021
100.001
100.011
100.034
100.063
100.086
100.116
100.135
100.155
100.092
100.098
100.09
100.065
100.023
99.9855
99.9387
99.9112
99.9018
99.9146
99.9159
99.9426
99.9815
100.019
100.044
100.062
100.08
100.093
100.094
100.08
100.086
100.105
100.12
100.092
100.036
99.9342
99.8608
99.8505
99.8627
99.8859
99.9215
99.9546
99.991
100.018
100.034
100.04
100.043
100.039
100.026
100.018
100.134
100.253
100.334
100.431
100.456
100.405
100.363
100.374
100.349
100.371
100.433
100.408
100.412
100.452
100.532
100.627
100.65
100.614
100.493
100.377
100.503
100.74
100.756
100.813
100.88
100.941
101.019
101.054
101.051
101.043
101.063
101.06
101.06
101.085
101.117
101.125
101.122
101.108
101.06
101.011
101.042
101.033
101.008
100.985
100.964
100.947
100.93
100.906
100.882
100.872
100.869
100.869
100.867
100.853
100.828
100.816
100.815
100.817
100.814
100.797
100.587
100.644
100.706
100.73
100.776
100.799
100.798
100.801
100.809
100.809
100.807
100.806
100.806
100.802
100.794
100.788
100.785
100.785
100.782
100.769
100.027
100.056
100.18
100.297
100.436
100.513
100.556
100.604
100.661
100.677
100.676
100.675
100.681
100.694
100.704
100.709
100.71
100.707
100.705
100.701
100.073
100.093
100.105
100.094
100.114
100.187
100.318
100.425
100.509
100.556
100.555
100.549
100.559
100.58
100.599
100.609
100.611
100.61
100.611
100.614
100.127
100.138
100.135
100.131
100.106
100.109
100.126
100.214
100.365
100.47
100.479
100.479
100.482
100.504
100.525
100.533
100.534
100.532
100.534
100.537
100.187
100.183
100.189
100.175
100.159
100.152
100.151
100.157
100.193
100.314
100.416
100.45
100.447
100.461
100.482
100.488
100.488
100.485
100.486
100.488
100.236
100.235
100.23
100.215
100.2
100.193
100.188
100.187
100.187
100.196
100.26
100.373
100.426
100.439
100.452
100.462
100.462
100.458
100.46
100.459
100.295
100.282
100.274
100.262
100.245
100.231
100.216
100.201
100.196
100.192
100.194
100.224
100.339
100.406
100.424
100.441
100.438
100.437
100.443
100.441
100.363
100.334
100.32
100.306
100.285
100.264
100.245
100.223
100.211
100.205
100.192
100.188
100.208
100.303
100.384
100.422
100.413
100.42
100.43
100.425
100.434
100.391
100.361
100.345
100.32
100.295
100.271
100.241
100.215
100.212
100.204
100.193
100.186
100.193
100.272
100.362
100.381
100.41
100.415
100.407
100.539
100.455
100.376
100.351
100.347
100.343
100.324
100.282
100.247
100.228
100.219
100.209
100.2
100.183
100.177
100.22
100.31
100.367
100.373
100.37
100.617
100.551
100.483
100.404
100.37
100.367
100.351
100.314
100.275
100.247
100.229
100.224
100.213
100.19
100.164
100.156
100.172
100.226
100.281
100.31
100.608
100.586
100.544
100.486
100.415
100.367
100.35
100.324
100.294
100.274
100.259
100.245
100.225
100.199
100.175
100.153
100.144
100.133
100.148
100.21
100.488
100.547
100.541
100.518
100.476
100.408
100.373
100.346
100.321
100.292
100.263
100.239
100.214
100.192
100.172
100.152
100.133
100.116
100.104
100.102
100.251
100.378
100.446
100.483
100.475
100.449
100.404
100.364
100.328
100.294
100.254
100.228
100.21
100.194
100.18
100.162
100.141
100.119
100.096
100.072
100.043
100.146
100.254
100.336
100.389
100.415
100.404
100.38
100.342
100.307
100.272
100.24
100.218
100.198
100.175
100.147
100.121
100.1
100.084
100.061
100.002
100.015
100.065
100.155
100.233
100.29
100.329
100.349
100.339
100.315
100.285
100.247
100.214
100.185
100.158
100.136
100.115
100.094
100.088
100.068
100
100
100.003
100.025
100.078
100.149
100.208
100.25
100.278
100.291
100.282
100.26
100.229
100.197
100.164
100.147
100.129
100.105
100.085
100.055
100
100
100
100.001
100.006
100.031
100.08
100.139
100.186
100.217
100.241
100.244
100.235
100.215
100.186
100.156
100.131
100.104
100.079
100.048
100
100
100
100
100
100.001
100.007
100.033
100.079
100.129
100.169
100.192
100.21
100.209
100.202
100.182
100.155
100.126
100.101
100.068
100
100
100
100
100
100
100
100.001
100.008
100.031
100.072
100.118
100.154
100.174
100.186
100.184
100.177
100.161
100.137
100.097
100
100
100
100
100
100
100
100
100
100.001
100.008
100.029
100.066
100.107
100.14
100.159
100.168
100.167
100.162
100.138
100
100
100
100
100
100
100
100
100
100
100
100.001
100.007
100.024
100.056
100.097
100.127
100.146
100.154
100.151
100
100
100
100
100
100
100
100
100
100
100
100
100
100.001
100.005
100.019
100.048
100.084
100.113
100.137
100
100
100
100
100
100
100
100
100
100
100
100
100
100
100
100.001
100.004
100.016
100.041
100.105
100.597
100.654
100.61
100.415
100.142
100.017
100.001
100
100
100
100
100
100
100
100
100.671
100.663
100.518
100.216
100.022
100
100
100
100
100
100
100
100
100
100
100.703
100.635
100.373
100.074
100.002
100
100
100
100
100
100
100
100
100
100
100.719
100.519
100.168
100.009
100
100
100
100
100
100
100
100
100
100
100
100.65
100.284
100.024
100
100
100
100
100
100
100
100
100
100
100
100
100.394
100.038
100
100
100
100
100
100
100
100
100
100
100
100
100
100.043
100
100
100
100
100
100
100
100
100
100
100
100
100
100
99.9995
100
100
100
100
100
100
100
100
100
100
100
100
100
100
100
100
100
100
100
100
100
100
100
100
100
100
100
100
100
100
100
100
100
100
100
100
100
100
100
100
100
100
100
100
100
100
100
100
100
100
100
100
100
100
100
100
100
100
100
100
100
100
100
100
100
100
100
100
100
100
100
100
100
100
100
100
100
100
100
100
100
100
100
100
100
100
100
100
100
100
100
100
100
100
100
100
100
100
100
100
100
100
100
100
100
100
100
100
100
100
100
100
100
100
100
100
100
100
100
100
100
100
100
100
100
100
100
100
100
100
100
100
100
100
100
100
100
100
100
100
100
100
100
100
100
100
100
100
100
100
100
100
100
100
100
100
100
100
100
100
100
100
100
100
100
100
100
100
100
100
100
100
100
100
100
100
100
100
100
100
100
100
100
100
100
100
100
100
100
100
100
100
100
100
100
100
100
100
100
100
100
100
100
100
100
100
100
100
100
100
100
100
100
100
100
100
100
100
100
100
100
100
100
100
100
100
100
100
100
100
100
100
100
100
100
100
100
100
100
100
100
100
100
100
100
100
100
100
100
100
100
100
100
100
100
100
100
100
100
100
100
100
100
100
100
100
100
100
100
100
100
100
100
100
100
100
100
100
100
100
100
100
100
100
100
100
100
100
100
100
100
100
100
100
100
100
100
100
100
100
100
100
100
100
100
100
100
100
100
100
100
100
100
100
100
100
100
100
100
100
100
100
100
100
100
100
100
100
100
100
100
100
100
100
100
100
100
100
100
100
100
100
100
100
100
100
100
100
100
100
100
100
100
100
100
100
100
100
100
100
100
100
100
100
100
100
100
100
100
100
100
100
100
100
100
100
100
100
100
100
100
100
100
100
100
100
100
100
100
100
100
100
100
100
100
100
100
100
100
100
100
100
100
100
100
100
100
100
100
100
100
100
100
100
100
100
100
100
100
100
100
100
100
100
100
100
100
100
100
100
100
100
100
100
100
100
100
100
100
100
100
100
100
100
100
100
100
100
100
100
100
100
100
100
100
100
100
100
100
100
100
100
100
100
100
100
100
100
100
100
100
100
100
100
100
100
100
100
100
100
100
100
100
100
100
100
100
100
100
100
100
100
100
100
100
100
100
100
100
100
100
100
100
100
100
100
100
100
100
100
100
100
100
100
100
100
100
100
100
100
100
100
100
100
100
100
100
100
100
100
100
100
100
100
100
100
100
100
100
100
100
100
100
100
100
100
100
100
100
100
100
100
100
100
100
100
100
100
100
100
100
100
100
100
100
100
100
100
100
100
100
100
100
100
100
100
100
100
100
100
100
100
100
100
100
100
100
100
100
100
100
100
100
100
100
100
100
100
100
100
100
100
100
100
100
100
100
100
100
100
100
100
100
100
100
100
100
100
100
100
100
100
100
100
100
100
100
100
100
100
100
100
100
100
100
100
100
100
100
100
100
100
100
100
100
100
100
100
100
100
100
100
100
100
100
100
100
100
100
100
100
100
100
100
100
100
100
100
100
100
100
100
100
100
100
100
100
100
100
100
100
100
100
100
100
100
100
100
100
100
100
100
100
100
100
100
100
100
100
100
100
100
100
100
100
100
100
100
100
100
100
100
100
100
100
100
100
100
100
100
100
100
100
100
100
100
100
100
100
100
100
100
100
100
100
100
100
100
100
100
100
100
100
100
100
100
100
100
100
100
100
100
100
100
100
100
100
100
100
100
100
100
100
100
100
100
100
100
100
100
100
100
100
100
100
100
100
100
100
100
100
100
100
100
100
100
100
100
100
100
100
100
100
100
100
100
100
100
100
100
100
100
100
100
100
100
100
100
100
100
100
100
100
100
100
100
100
100
100
100
100
100
100
100
100
100
100
100
100
100
100
100
100
100
100
100
100
100
100
100
100
100
100
100
100
100
100
100
100
100
100
100
100
100
100
100
100
100
100
100
100
100
100
100
100
100
100
100
100
100
100
100
100
100
99.9995
100
100
100
100
100
100
100
100
100
100
100
100
100
100
100.043
100
100
100
100
100
100
100
100
100
100
100
100
100
100
100.394
100.038
100
100
100
100
100
100
100
100
100
100
100
100
100
100.65
100.284
100.024
100
100
100
100
100
100
100
100
100
100
100
100
100.719
100.518
100.168
100.009
100
100
100
100
100
100
100
100
100
100
100
100.703
100.635
100.373
100.074
100.002
100
100
100
100
100
100
100
100
100
100
100.671
100.663
100.518
100.216
100.022
100
100
100
100
100
100
100
100
100
100
100.597
100.654
100.61
100.415
100.142
100.017
100.001
100
100
100
100
100
100
100
100
100.539
100.617
100.608
100.488
100.251
100.043
100.002
100
100
100
100
100
100
100
100
100.458
100.551
100.586
100.547
100.378
100.146
100.015
100
100
100
100
100
100
100
100
100.377
100.482
100.544
100.541
100.446
100.254
100.065
100.003
100
100
100
100
100
100
100
100.347
100.405
100.485
100.518
100.483
100.336
100.155
100.025
100.001
100
100
100
100
100
100
100.346
100.376
100.414
100.475
100.475
100.389
100.233
100.079
100.006
100
100
100
100
100
100
100.34
100.371
100.37
100.406
100.449
100.415
100.29
100.149
100.031
100.001
100
100
100
100
100
100.319
100.35
100.352
100.374
100.405
100.404
100.329
100.208
100.08
100.007
100
100
100
100
100
100.279
100.309
100.327
100.35
100.363
100.38
100.349
100.25
100.139
100.033
100.001
100
100
100
100
100.25
100.271
100.296
100.325
100.328
100.342
100.339
100.278
100.186
100.079
100.008
100
100
100
100
100.233
100.244
100.273
100.294
100.294
100.306
100.315
100.291
100.217
100.129
100.031
100.001
100
100
100
100.223
100.226
100.256
100.263
100.253
100.271
100.285
100.282
100.241
100.169
100.072
100.008
100
100
100
100.213
100.224
100.241
100.239
100.229
100.24
100.247
100.26
100.244
100.192
100.118
100.029
100.001
100
100
100.204
100.214
100.222
100.214
100.211
100.218
100.214
100.229
100.235
100.21
100.154
100.066
100.007
100
100
100.185
100.191
100.198
100.192
100.196
100.198
100.185
100.197
100.215
100.209
100.174
100.107
100.024
100.001
100
100.177
100.165
100.175
100.172
100.181
100.175
100.158
100.164
100.186
100.202
100.186
100.14
100.056
100.005
100
100.219
100.156
100.154
100.152
100.162
100.147
100.136
100.147
100.156
100.182
100.184
100.159
100.097
100.019
100.001
100.31
100.173
100.144
100.132
100.14
100.121
100.115
100.129
100.131
100.155
100.177
100.168
100.127
100.048
100.004
100.366
100.226
100.133
100.116
100.119
100.1
100.095
100.105
100.104
100.126
100.161
100.167
100.146
100.084
100.016
100.373
100.281
100.147
100.103
100.095
100.083
100.088
100.085
100.079
100.101
100.137
100.162
100.154
100.113
100.041
100.37
100.31
100.21
100.102
100.072
100.061
100.068
100.055
100.048
100.068
100.097
100.138
100.151
100.137
100.105
100.433
100.391
100.356
100.342
100.322
100.296
100.272
100.236
100.217
100.216
100.208
100.198
100.189
100.193
100.27
100.362
100.381
100.41
100.415
100.407
100.356
100.334
100.318
100.305
100.282
100.261
100.24
100.215
100.207
100.205
100.197
100.191
100.207
100.3
100.378
100.418
100.411
100.419
100.43
100.426
100.289
100.283
100.278
100.265
100.241
100.226
100.212
100.201
100.196
100.197
100.197
100.226
100.333
100.404
100.422
100.44
100.437
100.437
100.443
100.441
100.236
100.234
100.233
100.219
100.199
100.193
100.188
100.185
100.187
100.199
100.265
100.373
100.422
100.433
100.451
100.463
100.462
100.459
100.46
100.459
100.186
100.186
100.187
100.171
100.15
100.144
100.146
100.155
100.194
100.315
100.414
100.442
100.442
100.456
100.48
100.488
100.489
100.486
100.486
100.488
100.128
100.136
100.145
100.14
100.121
100.116
100.137
100.224
100.366
100.467
100.478
100.479
100.485
100.503
100.522
100.532
100.534
100.533
100.535
100.538
100.076
100.092
100.097
100.095
100.106
100.185
100.338
100.439
100.503
100.546
100.555
100.557
100.566
100.58
100.595
100.606
100.612
100.613
100.614
100.617
100.029
100.041
100.188
100.314
100.417
100.498
100.568
100.624
100.658
100.665
100.672
100.681
100.689
100.696
100.702
100.708
100.712
100.711
100.71
100.707
100.538
100.609
100.716
100.754
100.769
100.786
100.805
100.816
100.81
100.8
100.801
100.808
100.809
100.803
100.794
100.789
100.788
100.787
100.786
100.774
101.021
101.019
101.006
100.993
100.966
100.946
100.929
100.906
100.878
100.866
100.865
100.867
100.864
100.848
100.826
100.816
100.816
100.818
100.817
100.8
)
;

boundaryField
{
    inlet
    {
        type            fixedValue;
        value           uniform 100;
    }
    outlet
    {
        type            inletOutlet;
        inletValue      uniform 100;
        value           nonuniform List<scalar> 
50
(
100.37
100.31
100.21
100.102
100.072
100.061
100.068
100.055
100.048
100.068
100.097
100.138
100.151
100.137
100.105
100.797
100.769
100.701
100.614
100.537
100.488
100.459
100.441
100.425
100.407
100.407
100.426
100.441
100.459
100.488
100.538
100.617
100.707
100.774
100.8
100.37
100.309
100.21
100.102
100.072
100.061
100.068
100.055
100.048
100.068
100.097
100.138
100.151
100.137
100.105
)
;
    }
    airfoil
    {
        type            zeroGradient;
    }
    top
    {
        type            symmetryPlane;
    }
    bottom
    {
        type            symmetryPlane;
    }
    defaultFaces
    {
        type            empty;
    }
}


// ************************************************************************* //
