/*--------------------------------*- C++ -*----------------------------------*\
  =========                 |
  \\      /  F ield         | OpenFOAM: The Open Source CFD Toolbox
   \\    /   O peration     | Website:  https://openfoam.org
    \\  /    A nd           | Version:  7
     \\/     M anipulation  |
\*---------------------------------------------------------------------------*/
FoamFile
{
    version     2.0;
    format      ascii;
    class       volVectorField;
    location    "4.2";
    object      U;
}
// * * * * * * * * * * * * * * * * * * * * * * * * * * * * * * * * * * * * * //

dimensions      [0 1 -1 0 0 0 0];

internalField   nonuniform List<vector> 
3700
(
(1.38821 -0.452904 0)
(1.26333 -0.59004 0)
(1.2453 -0.313992 0)
(1.30249 -0.346125 0)
(1.363 -0.342236 0)
(1.3931 -0.219235 0)
(1.4547 -0.100379 0)
(1.47253 -0.0769184 0)
(1.48133 -0.0829646 0)
(1.50445 -0.111548 0)
(1.55594 -0.200391 0)
(1.60161 -0.222165 0)
(1.63842 -0.176569 0)
(1.7147 -0.163518 0)
(1.75145 -0.19275 0)
(1.7949 -0.267121 0)
(1.81326 -0.290401 0)
(1.7752 -0.264931 0)
(1.76396 -0.166569 0)
(1.82367 -0.149818 0)
(1.78213 -1.26133 0)
(1.59317 -1.32252 0)
(1.59241 -1.08634 0)
(1.6935 -1.015 0)
(1.79269 -1.18922 0)
(1.79041 -1.12025 0)
(1.72686 -0.961875 0)
(1.72153 -0.898762 0)
(1.74995 -0.961441 0)
(1.8268 -1.11543 0)
(1.88277 -1.34507 0)
(1.93097 -1.3777 0)
(1.9808 -1.34117 0)
(2.06683 -1.32125 0)
(2.19363 -1.34672 0)
(2.28376 -1.35595 0)
(2.29754 -1.29792 0)
(2.29883 -1.21842 0)
(2.29532 -1.04697 0)
(2.33355 -1.0552 0)
(1.58139 -1.28729 0)
(1.58471 -1.43339 0)
(1.66702 -1.47779 0)
(1.73141 -1.65352 0)
(1.79461 -1.90831 0)
(1.82601 -2.11838 0)
(1.95551 -2.22697 0)
(2.00584 -2.19027 0)
(2.01155 -2.18957 0)
(2.09652 -2.12513 0)
(2.1294 -2.13892 0)
(2.18977 -2.04743 0)
(2.24459 -1.96506 0)
(2.27493 -1.92879 0)
(2.33744 -1.85248 0)
(2.42264 -1.79347 0)
(2.51156 -1.7144 0)
(2.62285 -1.65158 0)
(2.71411 -1.55967 0)
(2.77684 -1.52628 0)
(1.41029 -1.33351 0)
(1.52372 -1.58183 0)
(1.60131 -1.78898 0)
(1.65097 -2.03412 0)
(1.7046 -2.17928 0)
(1.74633 -2.22907 0)
(1.81468 -2.17255 0)
(1.9621 -1.98773 0)
(2.05055 -1.98774 0)
(2.26199 -1.97594 0)
(2.41516 -1.80948 0)
(2.47328 -1.80294 0)
(2.50825 -1.77062 0)
(2.45059 -1.8142 0)
(2.45183 -1.74967 0)
(2.47553 -1.70368 0)
(2.51759 -1.58414 0)
(2.58875 -1.47318 0)
(2.67772 -1.37394 0)
(2.80154 -1.19129 0)
(1.30056 -1.32571 0)
(1.47076 -1.67162 0)
(1.623 -1.94492 0)
(1.66709 -2.15542 0)
(1.72211 -2.26585 0)
(1.79767 -2.30331 0)
(1.91914 -2.16704 0)
(2.00489 -1.96606 0)
(2.03264 -1.9253 0)
(2.20827 -1.87088 0)
(2.37008 -1.70079 0)
(2.53452 -1.63588 0)
(2.64169 -1.45233 0)
(2.66113 -1.43941 0)
(2.66625 -1.39622 0)
(2.63399 -1.45548 0)
(2.61083 -1.4252 0)
(2.61252 -1.30989 0)
(2.63335 -1.33815 0)
(2.70981 -1.1386 0)
(1.28774 -1.45263 0)
(1.48117 -1.83484 0)
(1.7046 -2.08468 0)
(1.79646 -2.19722 0)
(2.03501 -2.28265 0)
(2.13826 -2.29042 0)
(2.13451 -2.11914 0)
(2.08661 -1.98774 0)
(2.07968 -1.94193 0)
(2.19651 -1.83856 0)
(2.31659 -1.67405 0)
(2.49479 -1.58056 0)
(2.56821 -1.43469 0)
(2.71365 -1.33706 0)
(2.75343 -1.11439 0)
(2.77801 -1.0099 0)
(2.74898 -1.00651 0)
(2.75503 -0.935071 0)
(2.69103 -1.06575 0)
(2.68435 -0.978547 0)
(1.39504 -1.64922 0)
(1.61458 -1.99205 0)
(1.90452 -2.26662 0)
(2.0595 -2.29032 0)
(2.28613 -2.19212 0)
(2.36636 -2.18466 0)
(2.39916 -1.88865 0)
(2.3272 -1.87842 0)
(2.30619 -1.8868 0)
(2.34692 -1.77749 0)
(2.4028 -1.64735 0)
(2.49001 -1.54237 0)
(2.53903 -1.36118 0)
(2.63946 -1.28278 0)
(2.68159 -1.10805 0)
(2.7597 -0.933879 0)
(2.81154 -0.770822 0)
(2.83152 -0.575006 0)
(2.77099 -0.580868 0)
(2.72004 -0.612718 0)
(1.53419 -1.76815 0)
(1.82388 -2.15433 0)
(1.92575 -2.30786 0)
(2.09054 -2.32415 0)
(2.28822 -2.16582 0)
(2.39636 -2.07484 0)
(2.50401 -1.72001 0)
(2.51773 -1.65657 0)
(2.54977 -1.63391 0)
(2.63303 -1.48717 0)
(2.60745 -1.52078 0)
(2.65118 -1.33767 0)
(2.62583 -1.23019 0)
(2.64494 -1.1396 0)
(2.66417 -0.994863 0)
(2.69445 -0.87759 0)
(2.7559 -0.769248 0)
(2.79025 -0.563727 0)
(2.79309 -0.384628 0)
(2.74469 -0.301387 0)
(1.70853 -1.89776 0)
(1.77802 -2.18526 0)
(1.83771 -2.31132 0)
(1.87782 -2.3094 0)
(2.06068 -2.04585 0)
(2.18377 -1.83695 0)
(2.3714 -1.60241 0)
(2.48699 -1.54288 0)
(2.6469 -1.41497 0)
(2.72513 -1.14443 0)
(2.76951 -1.14234 0)
(2.79396 -0.912932 0)
(2.76167 -0.899568 0)
(2.7516 -0.800102 0)
(2.73478 -0.71693 0)
(2.71092 -0.632253 0)
(2.70874 -0.579257 0)
(2.74068 -0.510611 0)
(2.71405 -0.309545 0)
(2.68304 -0.130782 0)
(1.76928 -1.92841 0)
(1.68511 -2.17805 0)
(1.70109 -2.27957 0)
(1.74396 -2.17028 0)
(1.93653 -1.95638 0)
(2.05106 -1.70195 0)
(2.15225 -1.61121 0)
(2.25642 -1.50927 0)
(2.40501 -1.38028 0)
(2.53534 -1.13253 0)
(2.65306 -0.901825 0)
(2.71269 -0.653448 0)
(2.73861 -0.504447 0)
(2.75236 -0.370363 0)
(2.74439 -0.266315 0)
(2.7228 -0.247235 0)
(2.69752 -0.21102 0)
(2.68922 -0.277669 0)
(2.64966 -0.185334 0)
(2.61898 -0.0233232 0)
(1.68239 -1.83978 0)
(1.60701 -2.06419 0)
(1.55217 -2.09387 0)
(1.74786 -1.93818 0)
(1.96651 -1.81699 0)
(2.12903 -1.52186 0)
(2.1263 -1.54815 0)
(2.25132 -1.40332 0)
(2.34028 -1.24852 0)
(2.41802 -1.11392 0)
(2.52493 -0.91638 0)
(2.60073 -0.703692 0)
(2.65073 -0.478738 0)
(2.70685 -0.305304 0)
(2.66824 -0.0552667 0)
(2.65709 0.0454249 0)
(2.62396 0.171187 0)
(2.60145 0.0939198 0)
(2.55349 0.123969 0)
(2.58921 0.0438413 0)
(1.52411 -1.68148 0)
(1.5332 -1.83058 0)
(1.60538 -1.7078 0)
(1.81107 -1.6049 0)
(1.98921 -1.60454 0)
(2.18425 -1.2828 0)
(2.30215 -1.35267 0)
(2.43143 -1.16778 0)
(2.51641 -0.909449 0)
(2.52939 -0.844955 0)
(2.57053 -0.635948 0)
(2.59429 -0.469085 0)
(2.59999 -0.307456 0)
(2.62564 -0.192372 0)
(2.58341 0.00765875 0)
(2.59046 0.103433 0)
(2.53338 0.289454 0)
(2.48723 0.36249 0)
(2.43054 0.402397 0)
(2.46048 0.321078 0)
(1.33432 -1.45101 0)
(1.52481 -1.52529 0)
(1.82643 -1.39082 0)
(1.87997 -1.4999 0)
(1.98971 -1.46072 0)
(2.27128 -1.20407 0)
(2.51535 -0.961635 0)
(2.68715 -0.530369 0)
(2.67549 -0.299391 0)
(2.64128 -0.201772 0)
(2.63117 -0.071505 0)
(2.60579 0.053296 0)
(2.57912 0.137737 0)
(2.54806 0.212793 0)
(2.49726 0.286624 0)
(2.47482 0.302742 0)
(2.43127 0.369483 0)
(2.37718 0.475661 0)
(2.30313 0.59249 0)
(2.29773 0.569995 0)
(1.12677 -1.25206 0)
(1.41803 -1.29528 0)
(1.82968 -1.1345 0)
(1.9117 -1.52138 0)
(2.39251 -1.00571 0)
(2.57834 -0.953801 0)
(2.67267 -0.706251 0)
(2.6385 -0.318656 0)
(2.60954 -0.239077 0)
(2.5814 -0.00555076 0)
(2.56454 0.171192 0)
(2.49421 0.368798 0)
(2.45452 0.479445 0)
(2.38619 0.594548 0)
(2.33736 0.638969 0)
(2.29768 0.646038 0)
(2.25757 0.662533 0)
(2.24683 0.662782 0)
(2.18087 0.739256 0)
(2.13563 0.783397 0)
(0.943192 -1.0809 0)
(1.36714 -1.21967 0)
(1.89978 -0.876855 0)
(2.40257 -1.21251 0)
(2.5758 -0.605622 0)
(2.47183 -0.777588 0)
(2.49208 -0.500575 0)
(2.48466 -0.208208 0)
(2.45859 -0.0237695 0)
(2.45641 0.13999 0)
(2.41467 0.33352 0)
(2.34741 0.509752 0)
(2.30152 0.629061 0)
(2.22293 0.753004 0)
(2.1634 0.820704 0)
(2.11246 0.854058 0)
(2.06142 0.909387 0)
(2.05667 0.90834 0)
(2.0424 0.927432 0)
(2.06334 0.949868 0)
(0.898522 -0.79352 0)
(1.33413 -1.24259 0)
(2.4081 -0.18057 0)
(2.29928 -0.735547 0)
(2.35496 -0.594463 0)
(2.45875 -0.296386 0)
(2.43172 0.101617 0)
(2.39394 0.287719 0)
(2.32688 0.448433 0)
(2.30342 0.583419 0)
(2.20529 0.735925 0)
(2.13369 0.835083 0)
(2.08437 0.888753 0)
(2.03068 0.944061 0)
(1.99359 0.958009 0)
(1.95529 0.986366 0)
(1.95338 1.0179 0)
(1.96879 0.999366 0)
(1.99385 0.998658 0)
(2.0714 0.979957 0)
(0.989024 -0.464545 0)
(1.78872 -0.189328 0)
(2.23638 -0.603381 0)
(2.30439 -0.114146 0)
(2.34962 0.0169973 0)
(2.34289 0.333107 0)
(2.29293 0.550022 0)
(2.18927 0.729741 0)
(2.13217 0.801766 0)
(2.07427 0.923123 0)
(1.96445 1.02168 0)
(1.90629 1.0716 0)
(1.87841 1.08517 0)
(1.8676 1.08852 0)
(1.87352 1.05479 0)
(1.89813 1.047 0)
(1.96215 1.02042 0)
(2.16237 0.903649 0)
(2.3786 0.794178 0)
(2.77693 0.443663 0)
(1.09383 -0.0737492 0)
(1.89803 0.0326815 0)
(2.24293 0.152073 0)
(2.23177 0.466177 0)
(2.18585 0.669698 0)
(2.14206 0.780371 0)
(2.04652 0.900767 0)
(1.97003 0.961423 0)
(1.9078 1.03286 0)
(1.84937 1.12307 0)
(1.78555 1.15554 0)
(1.78815 1.15033 0)
(1.80941 1.12991 0)
(1.85221 1.0861 0)
(2.04009 0.94997 0)
(2.25578 0.828812 0)
(2.66193 0.503998 0)
(3.03678 0.091091 0)
(3.05582 -0.0242256 0)
(3.00404 -0.00469646 0)
(0.98849 0.0604623 0)
(1.92914 0.726526 0)
(2.09634 0.83881 0)
(1.9857 0.969482 0)
(1.95734 0.977872 0)
(1.88688 1.06773 0)
(1.7928 1.13674 0)
(1.75722 1.1475 0)
(1.75336 1.16378 0)
(1.72941 1.20531 0)
(1.70986 1.19802 0)
(1.8621 1.0714 0)
(2.10052 0.885941 0)
(2.5058 0.577099 0)
(2.98909 0.134475 0)
(3.07397 -0.0298551 0)
(3.00815 -0.00769847 0)
(3.00293 -0.00384856 0)
(3.00122 -0.00220029 0)
(3.00008 -0.000484608 0)
(1.16579 0.753679 0)
(1.81863 1.15935 0)
(1.83552 1.15201 0)
(1.73126 1.19793 0)
(1.7148 1.19658 0)
(1.66993 1.24088 0)
(1.65947 1.21623 0)
(1.72664 1.16635 0)
(1.75533 1.23358 0)
(1.78184 1.1469 0)
(2.26082 0.750112 0)
(2.84869 0.218264 0)
(3.09562 -0.0254528 0)
(3.02095 -0.0123917 0)
(3.00444 -0.00532939 0)
(3.00184 -0.00297042 0)
(3.00006 -0.000588615 0)
(2.99998 -2.40063e-05 0)
(2.99999 1.43528e-05 0)
(3 5.90266e-06 0)
(1.57271 1.25675 0)
(1.57904 1.26584 0)
(1.58273 1.27563 0)
(1.59461 1.2672 0)
(1.61848 1.25029 0)
(1.61424 1.26293 0)
(1.90445 1.16961 0)
(3.00046 0.356967 0)
(3.33096 -0.59216 0)
(3 -2.66122e-11 0)
(3 7.06258e-11 0)
(3 -1.01558e-11 0)
(3 4.43812e-10 0)
(3 -4.05533e-10 0)
(3 6.06198e-13 0)
(3 6.02419e-13 0)
(3 1.91117e-13 0)
(3 5.36082e-14 0)
(3 2.68183e-14 0)
(3 -2.1741e-14 0)
(1.57929 1.2546 0)
(1.58911 1.26483 0)
(1.59203 1.28364 0)
(1.59336 1.28643 0)
(1.67374 1.25905 0)
(1.78899 1.20696 0)
(2.31646 0.72376 0)
(3.00267 0.00771615 0)
(3 8.11926e-08 0)
(3 1.1849e-10 0)
(3 -1.76864e-13 0)
(3 4.07543e-14 0)
(3 -3.61122e-13 0)
(3 3.09114e-13 0)
(3 -2.53094e-15 0)
(3 -1.64432e-15 0)
(3 -3.05964e-16 0)
(3 -1.57937e-17 0)
(3 -1.94001e-17 0)
(3 1.00705e-15 0)
(1.58918 1.25552 0)
(1.60636 1.25881 0)
(1.60974 1.26829 0)
(1.5814 1.3002 0)
(1.69374 1.21922 0)
(2.12933 0.83961 0)
(2.97967 0.0112405 0)
(3.00039 -0.000735568 0)
(3 7.18859e-08 0)
(3 6.68351e-11 0)
(3 1.11952e-13 0)
(3 -5.93857e-15 0)
(3 -1.37247e-15 0)
(3 -2.25752e-15 0)
(3 -2.37802e-15 0)
(3 -1.97739e-15 0)
(3 -3.50296e-16 0)
(3 -5.39871e-16 0)
(3 -2.58881e-16 0)
(3 1.11943e-15 0)
(1.59055 1.25778 0)
(1.61237 1.25915 0)
(1.62988 1.26213 0)
(1.61349 1.28769 0)
(1.85088 1.08409 0)
(2.74699 0.217337 0)
(3.00523 -0.00255041 0)
(2.99992 7.63455e-05 0)
(3 -4.05117e-07 0)
(3 7.0555e-10 0)
(3 -9.52345e-13 0)
(3 2.67654e-15 0)
(3 -3.35203e-15 0)
(3 -1.33969e-15 0)
(3 -1.63212e-15 0)
(3 -1.42514e-15 0)
(3 1.76461e-16 0)
(3 -3.77717e-16 0)
(3 -3.54755e-16 0)
(3 -5.44207e-17 0)
(1.58987 1.26779 0)
(1.60864 1.26422 0)
(1.63584 1.25 0)
(1.73645 1.20057 0)
(2.35474 0.629634 0)
(3.02037 -0.0178134 0)
(2.99974 0.000170885 0)
(3 -3.9406e-06 0)
(3 7.66734e-08 0)
(3 -7.56828e-10 0)
(3 1.08634e-12 0)
(3 -4.52886e-15 0)
(3 -3.47949e-15 0)
(3 -3.40747e-15 0)
(3 -1.00658e-15 0)
(3 -9.4379e-16 0)
(3 -4.14997e-16 0)
(3 -1.79602e-16 0)
(3 -4.54667e-16 0)
(3 -8.18059e-17 0)
(1.58485 1.27839 0)
(1.58361 1.27322 0)
(1.63708 1.25153 0)
(1.78917 1.13608 0)
(2.72179 0.232476 0)
(3 -5.55548e-10 0)
(3 1.29251e-08 0)
(3 -1.16259e-08 0)
(3 4.94242e-10 0)
(3 2.58051e-12 0)
(3 -1.002e-13 0)
(3 -1.35918e-15 0)
(3 -2.75749e-15 0)
(3 -2.41757e-15 0)
(3 -1.12789e-15 0)
(3 -2.11831e-15 0)
(3 -9.81985e-16 0)
(3 -1.08162e-15 0)
(3 -7.63769e-16 0)
(3 -1.00418e-15 0)
(1.58197 1.29022 0)
(1.55258 1.28482 0)
(1.66688 1.23727 0)
(2.15307 0.841769 0)
(3.02055 -0.0174265 0)
(3 -2.10093e-11 0)
(3 1.60063e-11 0)
(3 -2.22988e-12 0)
(3 -9.51261e-13 0)
(3 1.60542e-14 0)
(3 -3.01026e-15 0)
(3 -2.63226e-15 0)
(3 -2.36975e-15 0)
(3 -2.37606e-15 0)
(3 -2.12718e-15 0)
(3 -3.40216e-15 0)
(3 -1.84073e-15 0)
(3 -1.2474e-15 0)
(3 -5.87959e-16 0)
(3 -5.38979e-16 0)
(1.58319 1.32323 0)
(1.5066 1.32473 0)
(1.76281 1.18777 0)
(2.41098 0.557605 0)
(3 -1.276e-08 0)
(3 5.39479e-11 0)
(3 -1.1812e-12 0)
(3 -1.85629e-14 0)
(3 -3.42271e-16 0)
(3 -5.05234e-15 0)
(3 -3.98511e-15 0)
(3 -3.63992e-15 0)
(3 -2.99558e-15 0)
(3 -2.20497e-15 0)
(3 -2.70788e-15 0)
(3 -4.22122e-15 0)
(3 -2.32526e-15 0)
(3 -1.86593e-15 0)
(3 -8.36366e-16 0)
(3 -7.76746e-16 0)
(1.5907 1.30693 0)
(1.47287 1.34558 0)
(1.95982 1.03887 0)
(2.87239 0.12245 0)
(3 -1.09727e-11 0)
(3 -1.96219e-14 0)
(3 8.73766e-16 0)
(3 -4.37129e-15 0)
(3 -4.17245e-15 0)
(3 -3.37234e-15 0)
(3 -2.1869e-15 0)
(3 -1.62652e-15 0)
(3 -2.21742e-15 0)
(3 -2.67291e-15 0)
(3 -3.53168e-15 0)
(3 -4.2722e-15 0)
(3 -4.30858e-15 0)
(3 -4.40941e-15 0)
(3 -2.85576e-15 0)
(3 -1.57347e-15 0)
(1.60388 1.29651 0)
(1.48419 1.39042 0)
(2.13177 0.845066 0)
(3.01121 -0.00922874 0)
(3 9.34107e-11 0)
(3 -1.04965e-13 0)
(3 -2.51134e-15 0)
(3 -3.30754e-15 0)
(3 -3.60072e-15 0)
(3 -2.8206e-15 0)
(3 -1.23683e-15 0)
(3 -4.79786e-16 0)
(3 -2.21239e-15 0)
(3 -3.55668e-15 0)
(3 -3.72897e-15 0)
(3 -4.06867e-15 0)
(3 -4.36421e-15 0)
(3 -4.80093e-15 0)
(3 -4.29769e-15 0)
(3 -3.15585e-15 0)
(1.61951 1.28075 0)
(1.57805 1.30733 0)
(2.42767 0.52991 0)
(3 3.11358e-15 0)
(3 -1.20148e-13 0)
(3 -6.54224e-16 0)
(3 -2.12438e-15 0)
(3 -2.37197e-15 0)
(3 -2.36652e-15 0)
(3 -2.54017e-15 0)
(3 -9.64693e-16 0)
(3 -1.42595e-15 0)
(3 -2.34225e-15 0)
(3 -3.74204e-15 0)
(3 -3.8273e-15 0)
(3 -3.86309e-15 0)
(3 -3.52677e-15 0)
(3 -4.35085e-15 0)
(3 -4.78499e-15 0)
(3 -4.93727e-15 0)
(1.63735 1.2613 0)
(1.61533 1.25219 0)
(2.64046 0.297552 0)
(3 -1.05964e-16 0)
(3 -1.11496e-15 0)
(3 -1.58287e-15 0)
(3 -1.45466e-15 0)
(3 -1.83102e-15 0)
(3 -1.88334e-15 0)
(3 -1.80371e-15 0)
(3 -1.22948e-16 0)
(3 -8.59008e-17 0)
(3 -1.15096e-15 0)
(3 -1.91709e-15 0)
(3 -1.80353e-15 0)
(3 -1.49002e-15 0)
(3 -1.40655e-15 0)
(3 -1.09854e-15 0)
(3 -2.31443e-15 0)
(3 -3.6033e-15 0)
(1.6572 1.24072 0)
(1.82259 1.09664 0)
(2.87907 0.0849444 0)
(3 -2.5493e-15 0)
(3 -6.80899e-16 0)
(3 -1.23755e-15 0)
(3 -1.32477e-15 0)
(3 -1.32272e-15 0)
(3 -1.21818e-15 0)
(3 -1.32854e-15 0)
(3 1.25273e-16 0)
(3 3.81563e-16 0)
(3 -4.41166e-16 0)
(3 -1.24729e-15 0)
(3 -2.72285e-15 0)
(3 -3.23384e-15 0)
(3 -3.00286e-15 0)
(3 -1.3227e-15 0)
(3 3.11008e-17 0)
(3 -8.09868e-16 0)
(1.68448 1.19236 0)
(1.91621 0.970952 0)
(2.99995 1.14226e-05 0)
(3 -9.95477e-17 0)
(3 6.97124e-16 0)
(3 -3.57807e-16 0)
(3 -9.32136e-16 0)
(3 -1.03865e-15 0)
(3 -5.84007e-16 0)
(3 -8.08238e-16 0)
(3 -1.10279e-15 0)
(3 -3.47627e-16 0)
(3 -2.04764e-16 0)
(3 -5.01245e-16 0)
(3 -1.08051e-15 0)
(3 -1.9399e-15 0)
(3 -2.37261e-15 0)
(3 -1.90889e-15 0)
(3 -1.09356e-15 0)
(3 -1.06161e-15 0)
(1.68644 1.1769 0)
(2.02983 0.836912 0)
(3 2.16587e-16 0)
(3 2.07832e-16 0)
(3 -4.36917e-16 0)
(3 -9.3921e-16 0)
(3 -1.66546e-15 0)
(3 -1.69645e-15 0)
(3 -1.25466e-15 0)
(3 -9.7988e-16 0)
(3 -1.11199e-15 0)
(3 -1.1114e-15 0)
(3 -8.91708e-16 0)
(3 -6.11688e-16 0)
(3 -5.93776e-16 0)
(3 -7.29152e-16 0)
(3 -9.84628e-16 0)
(3 -1.21349e-15 0)
(3 -1.3875e-15 0)
(3 -1.80733e-15 0)
(1.76505 1.10478 0)
(2.23037 0.647191 0)
(3 1.38922e-17 0)
(3 -1.1425e-15 0)
(3 -1.49357e-15 0)
(3 -1.64206e-15 0)
(3 -1.88797e-15 0)
(3 -1.92783e-15 0)
(3 -1.42822e-15 0)
(3 -1.08876e-15 0)
(3 -1.02638e-15 0)
(3 -1.29016e-15 0)
(3 -9.23017e-16 0)
(3 -7.21335e-16 0)
(3 -7.37591e-16 0)
(3 -9.79032e-16 0)
(3 -1.04091e-15 0)
(3 -1.22364e-15 0)
(3 -1.51395e-15 0)
(3 -1.94501e-15 0)
(1.85098 1.00924 0)
(2.46736 0.435811 0)
(3 -6.32078e-16 0)
(3 -4.31832e-16 0)
(3 -3.95268e-16 0)
(3 -9.82454e-17 0)
(3 -5.68429e-16 0)
(3 -1.25253e-15 0)
(3 -1.73003e-15 0)
(3 -2.27062e-15 0)
(3 -2.82966e-15 0)
(3 -3.01798e-15 0)
(3 -2.77489e-15 0)
(3 -2.55231e-15 0)
(3 -2.40756e-15 0)
(3 -2.29115e-15 0)
(3 -2.41257e-15 0)
(3 -2.66326e-15 0)
(3 -2.77395e-15 0)
(3 -2.40226e-15 0)
(1.93365 0.86288 0)
(2.7241 0.197454 0)
(3 -1.73363e-15 0)
(3 -2.39002e-15 0)
(3 -2.6351e-15 0)
(3 -2.46869e-15 0)
(3 -2.23478e-15 0)
(3 -2.06308e-15 0)
(3 -1.36683e-15 0)
(3 -9.81421e-16 0)
(3 -9.34462e-16 0)
(3 -1.53083e-15 0)
(3 -2.22232e-15 0)
(3 -2.69506e-15 0)
(3 -2.51486e-15 0)
(3 -2.16318e-15 0)
(3 -1.9727e-15 0)
(3 -1.87345e-15 0)
(3 -1.97571e-15 0)
(3 -1.82838e-15 0)
(2.08672 0.659852 0)
(2.99195 1.42342e-05 0)
(3 -3.0609e-15 0)
(3 -4.10396e-15 0)
(3 -3.70468e-15 0)
(3 -2.7789e-15 0)
(3 -1.10625e-15 0)
(3 -6.41569e-16 0)
(3 -2.75611e-16 0)
(3 -4.81499e-16 0)
(3 -6.98545e-17 0)
(3 -6.2411e-17 0)
(3 -2.40657e-16 0)
(3 -1.10508e-16 0)
(3 2.30086e-18 0)
(3 -9.9589e-17 0)
(3 -2.0533e-16 0)
(3 -3.99839e-17 0)
(3 4.30531e-17 0)
(3 -1.11568e-16 0)
(1.99132 0.37462 0)
(2.99985 -1.90285e-05 0)
(3 -3.1091e-15 0)
(3 -3.39622e-15 0)
(3 -3.21524e-15 0)
(3 -2.85753e-15 0)
(3 -1.83834e-15 0)
(3 -1.00325e-15 0)
(3 -4.08706e-16 0)
(3 -1.63247e-16 0)
(3 2.31672e-16 0)
(3 7.59416e-16 0)
(3 1.19832e-15 0)
(3 1.99735e-15 0)
(3 1.8781e-15 0)
(3 1.98293e-15 0)
(3 1.70858e-15 0)
(3 1.32361e-15 0)
(3 1.16871e-15 0)
(3 9.52242e-16 0)
(1.99169 -0.37408 0)
(2.99986 1.61748e-05 0)
(3 -4.68271e-15 0)
(3 -3.21146e-15 0)
(3 -2.60301e-15 0)
(3 -1.5767e-15 0)
(3 -1.69037e-15 0)
(3 -1.88041e-15 0)
(3 -1.55783e-15 0)
(3 -1.03083e-15 0)
(3 -2.30668e-16 0)
(3 5.61126e-16 0)
(3 1.37749e-15 0)
(3 1.87365e-15 0)
(3 2.1784e-15 0)
(3 3.20212e-15 0)
(3 3.80444e-15 0)
(3 3.92137e-15 0)
(3 3.7748e-15 0)
(3 3.8259e-15 0)
(2.08856 -0.662246 0)
(2.99165 -2.31224e-06 0)
(3 -2.80077e-15 0)
(3 -2.01673e-15 0)
(3 -1.03347e-15 0)
(3 -7.6417e-16 0)
(3 -4.41887e-16 0)
(3 -1.60821e-16 0)
(3 7.71472e-18 0)
(3 2.23946e-16 0)
(3 4.95935e-16 0)
(3 6.33168e-16 0)
(3 1.46564e-16 0)
(3 -4.25451e-16 0)
(3 3.3822e-16 0)
(3 1.89707e-15 0)
(3 2.13761e-15 0)
(3 2.1475e-15 0)
(3 2.54483e-15 0)
(3 2.66805e-15 0)
(1.92989 -0.863673 0)
(2.72006 -0.199979 0)
(3 -1.48431e-15 0)
(3 4.83592e-16 0)
(3 1.21842e-15 0)
(3 2.08118e-15 0)
(3 2.0609e-15 0)
(3 2.03002e-15 0)
(3 1.95737e-15 0)
(3 2.00802e-15 0)
(3 1.77104e-15 0)
(3 1.5132e-15 0)
(3 1.41214e-15 0)
(3 1.26078e-15 0)
(3 1.26548e-15 0)
(3 1.24887e-15 0)
(3 7.76621e-16 0)
(3 9.67895e-16 0)
(3 1.48056e-15 0)
(3 1.51317e-15 0)
(1.84866 -1.00725 0)
(2.46789 -0.435033 0)
(3 -6.6951e-17 0)
(3 1.28407e-15 0)
(3 2.40761e-15 0)
(3 2.70725e-15 0)
(3 2.69174e-15 0)
(3 1.9218e-15 0)
(3 9.07786e-16 0)
(3 6.18327e-16 0)
(3 6.56298e-16 0)
(3 8.81194e-16 0)
(3 1.22208e-15 0)
(3 1.65746e-15 0)
(3 1.98689e-15 0)
(3 2.04324e-15 0)
(3 1.29624e-15 0)
(3 6.94339e-16 0)
(3 2.53497e-16 0)
(3 -5.45086e-16 0)
(1.76795 -1.10501 0)
(2.23277 -0.646474 0)
(3 -2.67077e-15 0)
(3 -1.15156e-15 0)
(3 1.02925e-16 0)
(3 3.39877e-16 0)
(3 4.36055e-19 0)
(3 -5.73337e-16 0)
(3 -8.47277e-16 0)
(3 -8.61158e-16 0)
(3 -6.16656e-16 0)
(3 -7.70587e-16 0)
(3 -2.16425e-16 0)
(3 -4.39966e-16 0)
(3 -9.21545e-16 0)
(3 -1.50633e-15 0)
(3 -1.99036e-15 0)
(3 -2.26683e-15 0)
(3 -3.12366e-15 0)
(3 -3.34855e-15 0)
(1.68721 -1.17753 0)
(2.03095 -0.835845 0)
(3 3.2837e-17 0)
(3 -6.87056e-16 0)
(3 7.98358e-17 0)
(3 -6.77654e-17 0)
(3 -8.75513e-16 0)
(3 -8.5644e-16 0)
(3 -6.15044e-16 0)
(3 -2.24609e-16 0)
(3 -2.03553e-16 0)
(3 -8.62758e-17 0)
(3 -1.55348e-16 0)
(3 -7.43801e-16 0)
(3 -1.23665e-15 0)
(3 -1.55438e-15 0)
(3 -1.67963e-15 0)
(3 -2.10498e-15 0)
(3 -2.11948e-15 0)
(3 -9.93892e-16 0)
(1.68309 -1.19274 0)
(1.91284 -0.972654 0)
(2.99996 -8.5159e-06 0)
(3 -3.74681e-16 0)
(3 2.33306e-16 0)
(3 6.0577e-16 0)
(3 3.15086e-16 0)
(3 -1.95324e-16 0)
(3 6.87185e-16 0)
(3 9.97121e-16 0)
(3 6.93166e-16 0)
(3 3.01551e-16 0)
(3 1.99009e-16 0)
(3 -6.51521e-16 0)
(3 -8.04519e-16 0)
(3 -3.57337e-16 0)
(3 2.40073e-16 0)
(3 5.90776e-16 0)
(3 5.21144e-16 0)
(3 1.32022e-15 0)
(1.65724 -1.24061 0)
(1.82656 -1.09634 0)
(2.88017 -0.0848837 0)
(3 1.28947e-15 0)
(3 -8.14704e-16 0)
(3 8.14688e-17 0)
(3 2.69545e-16 0)
(3 6.22519e-16 0)
(3 1.65053e-15 0)
(3 1.28504e-15 0)
(3 1.45603e-15 0)
(3 1.13269e-15 0)
(3 7.82169e-16 0)
(3 -9.41455e-18 0)
(3 -1.43242e-16 0)
(3 3.98151e-16 0)
(3 9.75174e-16 0)
(3 9.56034e-16 0)
(3 1.03593e-15 0)
(3 1.67885e-15 0)
(1.63777 -1.26114 0)
(1.61534 -1.25248 0)
(2.64154 -0.296613 0)
(3 -1.03561e-15 0)
(3 -9.21886e-16 0)
(3 5.34796e-16 0)
(3 6.15043e-16 0)
(3 1.54562e-16 0)
(3 -5.78392e-17 0)
(3 7.95016e-16 0)
(3 1.023e-15 0)
(3 4.4172e-16 0)
(3 -2.87608e-16 0)
(3 -6.32244e-16 0)
(3 -6.00813e-16 0)
(3 1.09963e-15 0)
(3 1.64632e-15 0)
(3 1.47071e-15 0)
(3 1.35589e-15 0)
(3 9.06661e-16 0)
(1.62003 -1.28052 0)
(1.57681 -1.30786 0)
(2.42684 -0.530188 0)
(3 -4.41079e-15 0)
(3 1.12875e-13 0)
(3 -3.83064e-16 0)
(3 8.90333e-16 0)
(3 1.82763e-16 0)
(3 -4.99819e-16 0)
(3 1.48788e-16 0)
(3 7.56213e-16 0)
(3 4.32174e-16 0)
(3 -4.30079e-16 0)
(3 -8.0351e-16 0)
(3 -7.39274e-16 0)
(3 1.38866e-15 0)
(3 1.71355e-15 0)
(3 1.14222e-15 0)
(3 1.1146e-15 0)
(3 6.07161e-16 0)
(1.60399 -1.29649 0)
(1.4829 -1.38946 0)
(2.13515 -0.84246 0)
(3.01117 0.00918242 0)
(3 -9.03054e-11 0)
(3 9.53417e-14 0)
(3 1.0595e-15 0)
(3 6.13428e-16 0)
(3 6.98582e-16 0)
(3 1.30883e-15 0)
(3 1.42194e-15 0)
(3 4.61697e-16 0)
(3 -5.03927e-16 0)
(3 -1.44196e-15 0)
(3 -2.60823e-16 0)
(3 1.02712e-15 0)
(3 8.49817e-16 0)
(3 1.15909e-15 0)
(3 1.33195e-15 0)
(3 1.07568e-15 0)
(1.5909 -1.30699 0)
(1.4714 -1.34678 0)
(1.95566 -1.03858 0)
(2.87093 -0.122354 0)
(3 1.04546e-11 0)
(3 1.76125e-14 0)
(3 -2.90271e-15 0)
(3 1.49805e-15 0)
(3 1.56487e-15 0)
(3 1.43377e-15 0)
(3 8.67337e-16 0)
(3 2.29625e-16 0)
(3 -2.35976e-16 0)
(3 -2.54678e-16 0)
(3 4.90704e-16 0)
(3 1.03363e-15 0)
(3 1.23175e-15 0)
(3 1.58009e-15 0)
(3 1.44883e-15 0)
(3 1.17288e-15 0)
(1.58455 -1.32391 0)
(1.50793 -1.32606 0)
(1.76638 -1.18592 0)
(2.41303 -0.554985 0)
(3 9.57043e-09 0)
(3 -5.15538e-11 0)
(3 1.12234e-12 0)
(3 1.9693e-14 0)
(3 -3.81042e-15 0)
(3 1.64648e-15 0)
(3 1.0539e-15 0)
(3 4.06679e-16 0)
(3 3.07769e-16 0)
(3 3.08685e-16 0)
(3 8.1266e-16 0)
(3 1.34278e-15 0)
(3 8.56248e-16 0)
(3 9.93572e-16 0)
(3 6.91677e-16 0)
(3 8.04385e-16 0)
(1.58144 -1.29072 0)
(1.55263 -1.28524 0)
(1.66519 -1.23893 0)
(2.15075 -0.843834 0)
(3.01887 0.0159375 0)
(3 1.9238e-11 0)
(3 -1.57759e-11 0)
(3 2.679e-12 0)
(3 9.82559e-13 0)
(3 -1.87324e-14 0)
(3 1.0851e-15 0)
(3 8.9963e-16 0)
(3 3.13565e-16 0)
(3 2.31296e-16 0)
(3 -1.92532e-16 0)
(3 -4.82699e-16 0)
(3 1.31313e-16 0)
(3 2.74377e-17 0)
(3 7.02499e-16 0)
(3 9.86144e-16 0)
(1.58447 -1.27748 0)
(1.58272 -1.27283 0)
(1.63613 -1.25347 0)
(1.78821 -1.139 0)
(2.71906 -0.236273 0)
(3 5.67999e-10 0)
(3 -1.32266e-08 0)
(3 1.19073e-08 0)
(3 -5.09225e-10 0)
(3 -2.77504e-12 0)
(3 9.62845e-14 0)
(3 -3.47066e-16 0)
(3 1.98418e-16 0)
(3 -7.88266e-16 0)
(3 -1.14544e-15 0)
(3 -1.00431e-15 0)
(3 7.82063e-17 0)
(3 7.7721e-16 0)
(3 1.253e-15 0)
(3 1.73985e-15 0)
(1.58914 -1.26688 0)
(1.60768 -1.26374 0)
(1.63553 -1.24908 0)
(1.73895 -1.20057 0)
(2.35655 -0.630528 0)
(3.02024 0.0176441 0)
(2.99974 -0.000172648 0)
(3 4.0165e-06 0)
(3 -7.78812e-08 0)
(3 7.86829e-10 0)
(3 -2.52426e-12 0)
(3 5.60428e-15 0)
(3 1.19171e-16 0)
(3 -1.32957e-15 0)
(3 -1.79664e-15 0)
(3 -6.21822e-16 0)
(3 1.45004e-16 0)
(3 7.90078e-16 0)
(3 1.33662e-15 0)
(3 1.24735e-15 0)
(1.59001 -1.25663 0)
(1.61292 -1.25835 0)
(1.62977 -1.26111 0)
(1.61559 -1.28566 0)
(1.85192 -1.08328 0)
(2.74987 -0.214483 0)
(3.00518 0.0025177 0)
(2.99992 -7.83782e-05 0)
(3 4.69954e-07 0)
(3 -7.38374e-10 0)
(3 2.87392e-12 0)
(3 -5.66607e-15 0)
(3 -3.64041e-16 0)
(3 -8.88838e-16 0)
(3 -1.23507e-15 0)
(3 -1.76242e-16 0)
(3 6.61685e-17 0)
(3 1.64222e-15 0)
(3 1.37614e-15 0)
(3 2.29155e-15 0)
(1.58942 -1.25444 0)
(1.60691 -1.25769 0)
(1.61078 -1.26714 0)
(1.58195 -1.29866 0)
(1.6931 -1.21863 0)
(2.13172 -0.836878 0)
(2.98015 -0.0106619 0)
(3.00041 0.000762708 0)
(3 -1.55243e-07 0)
(3 -6.54475e-11 0)
(3 2.67532e-15 0)
(3 1.08919e-15 0)
(3 9.6212e-17 0)
(3 -5.37765e-16 0)
(3 -8.35318e-17 0)
(3 4.08311e-16 0)
(3 2.10265e-16 0)
(3 1.44765e-15 0)
(3 1.62046e-15 0)
(3 1.9004e-15 0)
(1.57999 -1.25424 0)
(1.58979 -1.26381 0)
(1.59254 -1.28321 0)
(1.5934 -1.28619 0)
(1.67271 -1.25872 0)
(1.78241 -1.2091 0)
(2.31301 -0.724103 0)
(3.00226 -0.0082382 0)
(3 -7.66664e-08 0)
(3 -1.28559e-10 0)
(3 2.84234e-13 0)
(3 2.55513e-15 0)
(3 1.27695e-15 0)
(3 9.24623e-17 0)
(3 1.23495e-15 0)
(3 8.87911e-16 0)
(3 4.07445e-16 0)
(3 6.65435e-16 0)
(3 1.04326e-15 0)
(3 1.32753e-15 0)
(1.57329 -1.25746 0)
(1.57958 -1.2668 0)
(1.58304 -1.27625 0)
(1.59444 -1.26727 0)
(1.61776 -1.25006 0)
(1.6135 -1.26353 0)
(1.90467 -1.17086 0)
(2.99923 -0.359208 0)
(3.32918 0.590488 0)
(3 3.21232e-11 0)
(3 -9.29738e-11 0)
(3 8.07258e-14 0)
(3 3.95359e-14 0)
(3 5.38917e-14 0)
(3 -7.24778e-15 0)
(3 4.59955e-15 0)
(3 8.58086e-16 0)
(3 1.79009e-15 0)
(3 1.17591e-15 0)
(3 1.33292e-15 0)
(1.16521 -0.75426 0)
(1.82022 -1.15583 0)
(1.83312 -1.15051 0)
(1.73358 -1.19176 0)
(1.7167 -1.19285 0)
(1.67082 -1.24037 0)
(1.66052 -1.21508 0)
(1.7273 -1.16589 0)
(1.75627 -1.2326 0)
(1.78292 -1.14586 0)
(2.26107 -0.749447 0)
(2.84859 -0.218155 0)
(3.0956 0.0254737 0)
(3.02099 0.0124194 0)
(3.00443 0.00532787 0)
(3.00184 0.00297011 0)
(3.00006 0.000586032 0)
(2.99998 2.39765e-05 0)
(2.99999 -1.44124e-05 0)
(3 -5.92152e-06 0)
(1.01581 -0.0320419 0)
(1.93183 -0.777041 0)
(2.09949 -0.869127 0)
(1.98373 -0.990065 0)
(1.952 -0.985145 0)
(1.88851 -1.06738 0)
(1.79444 -1.13485 0)
(1.75778 -1.14706 0)
(1.75386 -1.1634 0)
(1.72981 -1.20489 0)
(1.70972 -1.19769 0)
(1.86183 -1.07125 0)
(2.10046 -0.885786 0)
(2.50534 -0.57738 0)
(2.98869 -0.134823 0)
(3.07411 0.029909 0)
(3.0082 0.00773286 0)
(3.00295 0.0038631 0)
(3.00123 0.00220784 0)
(3.00008 0.000485219 0)
(1.06041 0.0695672 0)
(1.81621 0.148024 0)
(2.22701 -0.138968 0)
(2.22793 -0.486626 0)
(2.18261 -0.679948 0)
(2.14045 -0.785904 0)
(2.04611 -0.90309 0)
(1.97201 -0.960199 0)
(1.907 -1.03265 0)
(1.85089 -1.12287 0)
(1.78569 -1.15527 0)
(1.78798 -1.15013 0)
(1.80918 -1.12974 0)
(1.85197 -1.08594 0)
(2.03973 -0.94976 0)
(2.255 -0.828865 0)
(2.66033 -0.505247 0)
(3.03617 -0.0920309 0)
(3.05605 0.0242169 0)
(3.00408 0.00472076 0)
(1.45326 0.588636 0)
(1.78371 1.09276 0)
(2.21958 0.664928 0)
(2.30749 0.102529 0)
(2.35405 -0.0412823 0)
(2.34221 -0.344932 0)
(2.29704 -0.548552 0)
(2.19187 -0.73039 0)
(2.13205 -0.803319 0)
(2.07593 -0.92381 0)
(1.96502 -1.0214 0)
(1.90625 -1.07142 0)
(1.87813 -1.08524 0)
(1.86718 -1.08852 0)
(1.87319 -1.05479 0)
(1.89783 -1.04695 0)
(1.96152 -1.02064 0)
(2.16172 -0.904098 0)
(2.37812 -0.79497 0)
(2.77644 -0.444922 0)
(1.53084 1.12504 0)
(1.61023 1.50499 0)
(2.4895 0.272978 0)
(2.28063 0.783108 0)
(2.33858 0.62131 0)
(2.4533 0.288294 0)
(2.43002 -0.119723 0)
(2.39463 -0.302103 0)
(2.327 -0.457929 0)
(2.30404 -0.590786 0)
(2.20445 -0.741372 0)
(2.13164 -0.839461 0)
(2.08264 -0.89146 0)
(2.03013 -0.944637 0)
(1.99392 -0.957324 0)
(1.95579 -0.985342 0)
(1.9531 -1.01761 0)
(1.96857 -0.999646 0)
(1.99357 -0.999094 0)
(2.07121 -0.980453 0)
(1.40233 1.45901 0)
(1.75641 1.64877 0)
(2.10345 0.978634 0)
(2.41804 1.11157 0)
(2.51453 0.700059 0)
(2.45054 0.779794 0)
(2.48181 0.505984 0)
(2.48027 0.222638 0)
(2.45596 0.02665 0)
(2.45624 -0.136299 0)
(2.41336 -0.330646 0)
(2.34632 -0.505783 0)
(2.30228 -0.623209 0)
(2.22492 -0.746552 0)
(2.16561 -0.815871 0)
(2.11349 -0.85217 0)
(2.06116 -0.909567 0)
(2.05505 -0.910509 0)
(2.0418 -0.92887 0)
(2.06359 -0.950143 0)
(1.31173 1.4926 0)
(1.70899 1.60412 0)
(1.95015 1.15849 0)
(1.91852 1.37178 0)
(2.43051 0.84981 0)
(2.55181 0.970928 0)
(2.65822 0.755262 0)
(2.63269 0.357836 0)
(2.60239 0.266691 0)
(2.57881 0.0301105 0)
(2.56415 -0.155081 0)
(2.49453 -0.359447 0)
(2.45695 -0.473812 0)
(2.38658 -0.594872 0)
(2.33669 -0.643233 0)
(2.29636 -0.651358 0)
(2.25486 -0.669754 0)
(2.24659 -0.664809 0)
(2.18229 -0.737957 0)
(2.13643 -0.782042 0)
(1.29801 1.48983 0)
(1.62873 1.60049 0)
(1.87682 1.36776 0)
(1.89599 1.34721 0)
(1.952 1.35335 0)
(2.31069 1.17708 0)
(2.57038 0.945805 0)
(2.70538 0.503783 0)
(2.68869 0.299098 0)
(2.64662 0.181952 0)
(2.63349 0.0533553 0)
(2.60697 -0.0697626 0)
(2.58074 -0.151515 0)
(2.54819 -0.226766 0)
(2.49825 -0.295186 0)
(2.47369 -0.307994 0)
(2.43266 -0.365896 0)
(2.37882 -0.469563 0)
(2.30375 -0.589971 0)
(2.29762 -0.569461 0)
(1.38786 1.57562 0)
(1.55088 1.75294 0)
(1.72299 1.69422 0)
(1.90005 1.43527 0)
(1.92302 1.55607 0)
(2.13261 1.30502 0)
(2.29369 1.33445 0)
(2.44263 1.14902 0)
(2.5304 0.882108 0)
(2.54282 0.827032 0)
(2.57952 0.621246 0)
(2.60022 0.460154 0)
(2.60171 0.302664 0)
(2.62526 0.193616 0)
(2.58316 0.000163188 0)
(2.59012 -0.092256 0)
(2.53489 -0.275582 0)
(2.4875 -0.360193 0)
(2.42928 -0.405272 0)
(2.45811 -0.32509 0)
(1.55866 1.71129 0)
(1.58585 1.94222 0)
(1.62814 2.03237 0)
(1.82771 1.78718 0)
(1.95287 1.81084 0)
(2.11089 1.47314 0)
(2.10048 1.56847 0)
(2.24464 1.41079 0)
(2.33972 1.25144 0)
(2.41177 1.1238 0)
(2.51634 0.928101 0)
(2.59256 0.720501 0)
(2.64165 0.495236 0)
(2.70387 0.327071 0)
(2.66568 0.0713846 0)
(2.65732 -0.0370557 0)
(2.62277 -0.175899 0)
(2.59739 -0.106846 0)
(2.55161 -0.130139 0)
(2.58822 -0.0477643 0)
(1.68455 1.78781 0)
(1.6942 2.02725 0)
(1.72908 2.22899 0)
(1.76168 2.14238 0)
(1.92905 1.97081 0)
(2.0572 1.62057 0)
(2.08946 1.6446 0)
(2.23267 1.50757 0)
(2.37421 1.39468 0)
(2.50782 1.16176 0)
(2.63429 0.925278 0)
(2.70077 0.674688 0)
(2.72896 0.504995 0)
(2.74718 0.367744 0)
(2.73884 0.251423 0)
(2.71979 0.233175 0)
(2.69749 0.193103 0)
(2.68769 0.267951 0)
(2.64946 0.186217 0)
(2.62046 0.0287025 0)
(1.61208 1.7331 0)
(1.84037 2.05289 0)
(1.84583 2.29568 0)
(1.81986 2.26406 0)
(2.01375 2.04733 0)
(2.15638 1.7137 0)
(2.28399 1.66916 0)
(2.44685 1.53755 0)
(2.62217 1.42632 0)
(2.70807 1.13663 0)
(2.75996 1.1207 0)
(2.78933 0.892919 0)
(2.76273 0.879917 0)
(2.75366 0.783352 0)
(2.73785 0.704604 0)
(2.71229 0.623729 0)
(2.70797 0.574175 0)
(2.74013 0.517325 0)
(2.71263 0.317222 0)
(2.6866 0.146608 0)
(1.47905 1.63866 0)
(1.89692 2.03096 0)
(1.98065 2.30754 0)
(2.08915 2.36153 0)
(2.20902 2.2266 0)
(2.34225 2.06706 0)
(2.4666 1.79973 0)
(2.53029 1.68422 0)
(2.59114 1.63169 0)
(2.67011 1.4665 0)
(2.62751 1.51059 0)
(2.66504 1.32588 0)
(2.63261 1.22852 0)
(2.64653 1.13541 0)
(2.66404 0.997007 0)
(2.68981 0.879917 0)
(2.75161 0.780682 0)
(2.78836 0.584266 0)
(2.79313 0.389095 0)
(2.75301 0.30582 0)
(1.36016 1.56382 0)
(1.73596 1.9586 0)
(2.01749 2.29514 0)
(2.1722 2.34267 0)
(2.27393 2.31672 0)
(2.37006 2.16895 0)
(2.45306 1.87874 0)
(2.40879 1.84364 0)
(2.37063 1.87831 0)