/*--------------------------------*- C++ -*----------------------------------*\
  =========                 |
  \\      /  F ield         | OpenFOAM: The Open Source CFD Toolbox
   \\    /   O peration     | Website:  https://openfoam.org
    \\  /    A nd           | Version:  7
     \\/     M anipulation  |
\*---------------------------------------------------------------------------*/
FoamFile
{
    version     2.0;
    format      ascii;
    class       volScalarField;
    location    "5";
    object      p;
}
// * * * * * * * * * * * * * * * * * * * * * * * * * * * * * * * * * * * * * //

dimensions      [1 -1 -2 0 0 0 0];

internalField   nonuniform List<scalar> 
3700
(
0.122695
0.207242
0.256724
0.299109
0.358118
0.418317
0.42543
0.423296
0.438582
0.450101
0.45993
0.444113
0.451007
0.47876
0.481828
0.494069
0.507637
0.499478
0.505896
0.530564
0.0713818
0.0882052
0.114196
0.12721
0.155534
0.164675
0.157402
0.13869
0.141821
0.151323
0.15721
0.152822
0.158297
0.174995
0.197088
0.217697
0.214126
0.19455
0.186476
0.195731
0.060241
0.0705056
0.0797584
0.076969
0.0643241
0.0493024
0.0460565
0.049825
0.0548442
0.0630987
0.0740505
0.0830751
0.0940046
0.104764
0.109898
0.111562
0.112723
0.112355
0.112987
0.120581
0.0612433
0.0742199
0.0742473
0.0666027
0.0527368
0.0474229
0.0467745
0.0507888
0.0549526
0.0634607
0.0759117
0.0877413
0.102404
0.122016
0.138743
0.153228
0.163641
0.165295
0.161076
0.163676
0.058777
0.0697957
0.0661672
0.0592562
0.0554853
0.0589371
0.0613315
0.0698676
0.0770571
0.0926547
0.0889083
0.0932758
0.102923
0.124201
0.147358
0.171779
0.193702
0.211448
0.222263
0.224781
0.0551614
0.0665343
0.0654862
0.0603105
0.0613403
0.0690925
0.0759073
0.0913335
0.108814
0.131463
0.129628
0.137078
0.132754
0.137988
0.152589
0.179998
0.213035
0.249514
0.280254
0.320587
0.0535009
0.0648148
0.0657592
0.059929
0.0603747
0.0709842
0.0789598
0.0999463
0.129836
0.154431
0.175667
0.192031
0.197974
0.20847
0.211581
0.222097
0.241688
0.284505
0.332749
0.415465
0.0538075
0.0621453
0.0613249
0.0546255
0.0574471
0.0676459
0.077202
0.0989833
0.134981
0.169305
0.206056
0.231588
0.266055
0.294618
0.317466
0.339696
0.359526
0.384057
0.423325
0.536781
0.0602776
0.0562154
0.0507874
0.0519258
0.0592587
0.068385
0.0813763
0.101194
0.132193
0.172326
0.221984
0.26106
0.319186
0.366678
0.415879
0.464393
0.508558
0.549751
0.589642
0.723975
0.0633817
0.0482602
0.0464948
0.0590425
0.0771218
0.0930166
0.114963
0.145968
0.17847
0.208994
0.25004
0.302806
0.37407
0.439372
0.510288
0.592626
0.675406
0.753235
0.828039
0.952953
0.0628429
0.0424968
0.04754
0.0673703
0.08852
0.117502
0.16437
0.218702
0.276225
0.342176
0.401274
0.464264
0.526152
0.5912
0.656767
0.749323
0.875546
0.993568
1.1772
1.1433
0.0607
0.0379926
0.04666
0.0617042
0.0854476
0.123084
0.194087
0.266709
0.359657
0.479405
0.577491
0.67613
0.771597
0.861679
0.943463
1.04563
1.17687
1.31673
1.55657
1.52489
0.0481422
0.0305944
0.0397842
0.050074
0.0743012
0.116918
0.202471
0.290722
0.421701
0.602062
0.757907
0.90724
1.05337
1.18301
1.33235
1.49475
1.65696
1.82575
2.0901
2.08678
0.0332265
0.0219905
0.0299287
0.047359
0.0744021
0.144403
0.262315
0.42822
0.661954
0.888674
1.095
1.27691
1.46022
1.63523
1.86274
2.1006
2.33775
2.57753
2.79444
3.01118
0.0241321
0.018617
0.0232173
0.0451804
0.136671
0.388799
0.638367
0.914101
1.23755
1.52866
1.76038
1.96694
2.17759
2.40054
2.69305
2.97583
3.25314
3.4958
3.64798
3.7794
0.0122001
0.0214784
0.0255832
0.128841
0.413847
0.790011
1.15055
1.5477
1.97873
2.35429
2.62492
2.88426
3.14686
3.43685
3.7624
3.97974
4.10176
4.1349
4.03996
3.9106
0.00639214
0.0308407
0.127349
0.432876
0.941885
1.44643
1.9629
2.53207
3.14983
3.54201
3.77032
3.99114
4.18864
4.35323
4.46154
4.3908
4.17745
3.64682
2.79236
1.89088
0.0358905
0.173725
0.557847
1.18644
2.04883
2.86362
3.55707
4.24081
4.79753
4.86821
4.78128
4.74449
4.69284
4.52383
4.02015
3.06477
2.08896
1.33097
1.01818
0.992906
0.305053
0.844029
1.9131
3.1475
4.20269
4.85987
5.43717
5.90787
5.77021
5.31667
4.87917
4.33932
3.41736
2.34121
1.43326
1.03138
0.989528
0.994983
0.997343
0.999441
2.30636
3.62819
4.86391
5.69509
6.22955
6.45484
6.6015
6.25404
4.54503
3.20254
2.36667
1.56449
1.08263
0.987289
0.992951
0.99639
0.9992
0.999976
1.00002
1.00001
6.93752
6.87774
6.82733
6.90863
7.0428
6.79751
5.98673
2.24713
0.668097
1
1
1
1
1
1
1
1
1
1
1
6.95558
6.88884
6.77767
6.7282
6.76148
5.71698
2.67283
1.02536
1
1
1
1
1
1
1
1
1
1
1
1
6.82827
6.85636
6.83024
6.68989
6.28259
3.43087
1.05704
0.998652
1
1
1
1
1
1
1
1
1
1
1
1
6.66793
6.79441
6.81845
6.67639
4.69114
1.37746
0.993843
1.00012
0.999999
1
1
1
1
1
1
1
1
1
1
1
6.54323
6.75505
6.77616
6.07141
2.62956
0.976976
1.00034
0.999994
1
1
1
1
1
1
1
1
1
1
1
1
6.46697
6.76524
6.73977
4.93948
1.48694
1
1
1
1
1
1
1
1
1
1
1
1
1
1
1
6.42358
6.7899
6.73991
3.58673
0.974734
1
1
1
1
1
1
1
1
1
1
1
1
1
1
1
6.49883
6.65302
6.04608
2.03557
0.999996
1
1
1
1
1
1
1
1
1
1
1
1
1
1
1
6.96947
6.6089
4.86014
1.22258
1
1
1
1
1
1
1
1
1
1
1
1
1
1
1
1
7.29462
6.42181
3.41083
0.987823
1
1
1
1
1
1
1
1
1
1
1
1
1
1
1
1
7.45183
5.96766
2.28596
1
1
1
1
1
1
1
1
1
1
1
1
1
1
1
1
1
7.51258
5.36368
1.60623
1
1
1
1
1
1
1
1
1
1
1
1
1
1
1
1
1
7.54532
4.76568
1.16749
1
1
1
1
1
1
1
1
1
1
1
1
1
1
1
1
1
7.35937
4.01401
1.01131
1
1
1
1
1
1
1
1
1
1
1
1
1
1
1
1
1
7.18493
3.21548
1
1
1
1
1
1
1
1
1
1
1
1
1
1
1
1
1
1
6.97883
2.47388
1
1
1
1
1
1
1
1
1
1
1
1
1
1
1
1
1
1
6.61106
1.90212
1
1
1
1
1
1
1
1
1
1
1
1
1
1
1
1
1
1
6.36596
1.3876
1
1
1
1
1
1
1
1
1
1
1
1
1
1
1
1
1
1
5.71672
1.00648
1
1
1
1
1
1
1
1
1
1
1
1
1
1
1
1
1
1
4.62709
1.00006
1
1
1
1
1
1
1
1
1
1
1
1
1
1
1
1
1
1
4.63581
1.00007
1
1
1
1
1
1
1
1
1
1
1
1
1
1
1
1
1
1
5.71412
1.00634
1
1
1
1
1
1
1
1
1
1
1
1
1
1
1
1
1
1
6.35753
1.38244
1
1
1
1
1
1
1
1
1
1
1
1
1
1
1
1
1
1
6.61107
1.89264
1
1
1
1
1
1
1
1
1
1
1
1
1
1
1
1
1
1
6.98766
2.47243
1
1
1
1
1
1
1
1
1
1
1
1
1
1
1
1
1
1
7.19141
3.22248
1
1
1
1
1
1
1
1
1
1
1
1
1
1
1
1
1
1
7.35377
4.02562
1.01572
1
1
1
1
1
1
1
1
1
1
1
1
1
1
1
1
1
7.54212
4.77227
1.17172
1
1
1
1
1
1
1
1
1
1
1
1
1
1
1
1
1
7.51337
5.37171
1.6078
1
1
1
1
1
1
1
1
1
1
1
1
1
1
1
1
1
7.45181
5.96069
2.29056
1
1
1
1
1
1
1
1
1
1
1
1
1
1
1
1
1
7.29734
6.42372
3.40289
0.987891
1
1
1
1
1
1
1
1
1
1
1
1
1
1
1
1
6.97132
6.61147
4.85552
1.21991
1
1
1
1
1
1
1
1
1
1
1
1
1
1
1
1
6.49519
6.644
6.0344
2.03186
0.999997
1
1
1
1
1
1
1
1
1
1
1
1
1
1
1
6.42349
6.78729
6.74472
3.57959
0.974078
1
1
1
1
1
1
1
1
1
1
1
1
1
1
1
6.46932
6.77742
6.74923
4.94144
1.49236
1
1
1
1
1
1
1
1
1
1
1
1
1
1
1
6.54504
6.7568
6.77821
6.05867
2.64319
0.976823
1.00034
0.999994
1
1
1
1
1
1
1
1
1
1
1
1
6.66287
6.78787
6.81646
6.67876
4.69471
1.37487
0.993918
1.00012
0.999999
1
1
1
1
1
1
1
1
1
1
1
6.82083
6.85099
6.82863
6.69869
6.28389
3.42395
1.05449
0.998703
1
1
1
1
1
1
1
1
1
1
1
1
6.9538
6.88862
6.78241
6.73333
6.74446
5.72318
2.67923
1.02653
1
1
1
1
1
1
1
1
1
1
1
1
6.9392
6.87915
6.8326
6.90996
7.03682
6.79367
5.98965
2.26479
0.664257
1
1
1
1
1
1
1
1
1
1
1
2.30743
3.63001
4.86186
5.69111
6.22981
6.45612
6.59906
6.25405
4.54318
3.19911
2.36144
1.55919
1.08045
0.987244
0.99287
0.996349
0.999196
0.999976
1.00002
1.00001
0.305771
0.84923
1.93764
3.17077
4.21129
4.85483
5.42772
5.90329
5.76715
5.31551
4.87882
4.33868
3.4151
2.33882
1.43191
1.03113
0.989513
0.994979
0.997341
0.99944
0.0316819
0.16346
0.531288
1.172
2.04646
2.87237
3.5673
4.24749
4.79151
4.86852
4.78714
4.75117
4.69748
4.5249
4.0196
3.06527
2.08969
1.33127
1.01822
0.992906
0.00773748
0.0305637
0.138214
0.428001
0.932888
1.44071
1.95918
2.52695
3.14829
3.54293
3.77691
3.999
4.19477
4.35583
4.46173
4.39077
4.17709
3.64649
2.79234
1.89112
0.0121714
0.0201903
0.0289836
0.144673
0.418358
0.778969
1.13643
1.53518
1.96961
2.34755
2.61978
2.88168
3.14568
3.43658
3.7606
3.97853
4.10217
4.13525
4.04024
3.91044
0.0200707
0.0194351
0.0254062
0.0460982
0.136745
0.397841
0.644628
0.919643
1.24162
1.53361
1.76452
1.97186
2.18373
2.40725
2.69823
2.97942
3.25595
3.49713
3.6477
3.77789
0.0281493
0.0218069
0.0281387
0.0409727
0.0714357
0.152203
0.271288
0.433884
0.667414
0.890439
1.09578
1.27579
1.45834
1.63291
1.86021
2.09954
2.33856
2.5798
2.79401
3.01009
0.0444784
0.0277921
0.0328625
0.0451106
0.072896
0.115673
0.196132
0.280584
0.408324
0.585961
0.744423
0.896273
1.04552
1.17718
1.3301
1.49469
1.65808
1.82611
2.08913
2.08513
0.0640139
0.0345431
0.0442879
0.0606229
0.0850356
0.12228
0.194757
0.263768
0.354488
0.475346
0.574012
0.673446
0.770426
0.861692
0.946179
1.04921
1.17741
1.31475
1.5536
1.52274
0.0733151
0.0394869
0.0466411
0.0684506
0.0922259
0.12175
0.170376
0.225632
0.283587
0.351496
0.410008
0.472232
0.533036
0.596725
0.659089
0.746836
0.87094
0.989883
1.177
1.14527
0.0756848
0.0441625
0.0447674
0.0600887
0.0828702
0.101469
0.122934
0.156831
0.188211
0.216596
0.252522
0.302197
0.370614
0.435501
0.505581
0.588492
0.673622
0.75405
0.830356
0.953973
0.0777075
0.0518767
0.0461127
0.0491737
0.0600314
0.0753978
0.083437
0.100965
0.127853
0.164102
0.215288
0.255836
0.314977
0.36348
0.413949
0.464602
0.510529
0.55415
0.593415
0.725852
0.0708141
0.0603728
0.0542495
0.0499296
0.0521257
0.0658955
0.074958
0.0931237
0.127919
0.164118
0.202929
0.229749
0.266161
0.296029
0.321054
0.344491
0.365405
0.389263
0.425299
0.535956
0.0634576
0.0661406
0.0612904
0.0548323
0.0549884
0.0691407
0.0766641
0.0949087
0.12689
0.153193
0.176657
0.194138
0.203291
0.214916
0.216635
0.226018
0.242263
0.280408
0.328373
0.412484
0.0625995
0.0684969
0.0632472
0.0576215
0.0570619
0.0685004
0.0758938
0.0896187
0.110855
0.132549
0.134042
0.142812
0.137082
0.140752
0.150584
0.175011
0.208262
0.245572
0.2771
0.319976
0.0618958
0.0704416
0.0654648
0.0590158
0.0546079
0.0598999
0.0651684
0.072083
0.0816984
0.0974719
0.0913425
0.095003
0.10154
0.119901
0.143709
0.168555
0.191083
0.209573
0.223513
0.228495
0.065619
0.0752199
0.0724774
0.0637616
0.0501223
0.0480818
0.0506158
0.0517603
0.0568509
0.0650142
0.0750869
0.0859346
0.0997168
0.119145
0.137125
0.152834
0.16323
0.166739
0.16405
0.166179
0.0627309
0.0731307
0.0802348
0.0759552
0.0611018
0.0490144
0.0484982
0.0503135
0.0554961
0.06273
0.0729988
0.0818399
0.0931646
0.105071
0.111017
0.1131
0.113648
0.113569
0.114167
0.120228
0.0648174
0.0821566
0.107828
0.137539
0.129403
0.106363
0.0965197
0.104101
0.103715
0.11011
0.132547
0.164861
0.203131
0.228463
0.21442
0.195949
0.198097
0.206387
0.214917
0.202601
0.107274
0.19532
0.242201
0.309154
0.359581
0.383917
0.390398
0.407759
0.418455
0.432259
0.455478
0.457251
0.471761
0.485741
0.475364
0.476225
0.50524
0.515695
0.528361
0.522043
0.561452
0.641946
0.710069
0.774942
0.813473
0.873528
0.896052
0.894997
0.878691
0.871888
0.886509
0.931826
0.974988
0.97686
0.953799
0.927737
0.930452
0.956695
0.974709
0.967723
0.282438
0.416879
0.548464
0.658914
0.74604
0.833919
0.878251
0.907562
0.898657
0.892372
0.899778
0.923318
0.952044
0.962409
0.959683
0.951539
0.951756
0.958999
0.962926
0.959571
0.138018
0.16221
0.2336
0.335233
0.508999
0.678658
0.790913
0.866485
0.901241
0.907687
0.914995
0.922309
0.928868
0.94203
0.955688
0.965247
0.969126
0.967425
0.95889
0.955576
0.185559
0.217285
0.238752
0.236238
0.248546
0.31772
0.506531
0.716219
0.837978
0.903327
0.93158
0.91152
0.901032
0.914551
0.943679
0.969692
0.974998
0.968977
0.952976
0.953581
0.229713
0.258951
0.286406
0.295998
0.286741
0.278719
0.291746
0.377702
0.602198
0.828857
0.895493
0.894579
0.880577
0.887314
0.930723
0.971753
0.975574
0.964147
0.949527
0.95481
0.304756
0.321659
0.345317
0.34186
0.319182
0.309686
0.312851
0.320574
0.362402
0.526508
0.750848
0.878506
0.882765
0.878107
0.91168
0.961037
0.968874
0.956767
0.949552
0.960361
0.395067
0.399529
0.40963
0.405516
0.377809
0.359972
0.362451
0.363165
0.364626
0.381588
0.472365
0.696476
0.87439
0.896658
0.905916
0.941078
0.944749
0.936319
0.946838
0.966599
0.517272
0.491444
0.47722
0.471106
0.44111
0.403169
0.394091
0.392837
0.388454
0.389299
0.397717
0.450885
0.658317
0.873304
0.901829
0.929045
0.919432
0.924241
0.950759
0.96759
0.677896
0.606023
0.540624
0.528907
0.509814
0.472863
0.447499
0.435866
0.42532
0.418947
0.409769
0.416059
0.458196
0.645101
0.851346
0.928698
0.901763
0.917388
0.963417
0.967315
0.88017
0.747217
0.633512
0.605254
0.587958
0.547822
0.503881
0.472619
0.443888
0.443675
0.437403
0.43329
0.441566
0.471511
0.627467
0.847097
0.877405
0.930524
0.972057
0.962511
1.27671
0.991973
0.739959
0.646799
0.650268
0.655195
0.632767
0.566621
0.516219
0.489812
0.485307
0.48028
0.476513
0.477798
0.485717
0.56416
0.747393
0.885825
0.937879
0.950446
2.0184
1.53328
1.16944
0.900243
0.79046
0.787863
0.769693
0.690336
0.607236
0.566712
0.5391
0.531465
0.522301
0.506225
0.486266
0.490112
0.531189
0.644518
0.787883
0.905921
2.50096
2.15818
1.73977
1.36701
1.06503
0.892583
0.838282
0.779174
0.707334
0.679592
0.666822
0.64036
0.601319
0.565516
0.540762
0.524728
0.52978
0.537535
0.574461
0.743281
2.36519
2.34763
2.23677
1.93245
1.58938
1.25157
1.04691
0.966494
0.891913
0.816853
0.772369
0.722578
0.665845
0.618058
0.593025
0.585927
0.572104
0.551457
0.546551
0.584023
1.68133
2.15266
2.22216
2.18832
2.06062
1.78904
1.46785
1.25273
1.08536
0.946363
0.859095
0.788749
0.755709
0.714754
0.689005
0.67856
0.659554
0.621856
0.574797
0.579383
1.10797
1.44134
1.84926
2.11149
2.11047
2.07501
1.93174
1.68918
1.43779
1.23048
1.07869
0.962993
0.91938
0.863261
0.792846
0.741856
0.699696
0.656876
0.625055
0.603333
1.0045
1.04461
1.20686
1.54879
1.86274
2.01824
2.01369
1.96947
1.83811
1.62506
1.3985
1.2111
1.07531
0.986471
0.888549
0.812001
0.774477
0.741775
0.728467
0.696978
1.00009
1.0011
1.01075
1.07761
1.26908
1.5695
1.82496
1.9369
1.93006
1.88727
1.76592
1.58657
1.37357
1.21917
1.1007
0.994794
0.935072
0.888325
0.834622
0.756423
1
1.00001
1.00015
1.00244
1.01872
1.10171
1.29
1.55803
1.76646
1.85741
1.85162
1.81782
1.71633
1.54855
1.38613
1.22542
1.09358
1.001
0.927105
0.83222
1
1
1
1.00003
1.00032
1.00401
1.02453
1.10765
1.28662
1.5225
1.70285
1.78845
1.78403
1.75504
1.67741
1.54151
1.38128
1.22741
1.12419
0.999563
1
1
1
1
1
1.00005
1.00049
1.00461
1.02679
1.1059
1.26352
1.47665
1.63751
1.72457
1.72269
1.70369
1.64421
1.52675
1.39425
1.19499
1
1
1
1
1
1
1
1.00006
1.00059
1.00479
1.02541
1.0942
1.23373
1.42406
1.57466
1.66629
1.66493
1.65244
1.61546
1.46246
1
1
1
1
1
1
1
1
1.00001
1.00006
1.00059
1.00414
1.02228
1.08018
1.19777
1.36936
1.50862
1.60859
1.61337
1.5901
1
1
1
1
1
1
1
1
1
1
1.00001
1.00005
1.00052
1.00341
1.01751
1.06417
1.16391
1.31319
1.44458
1.55071
1
1
1
1
1
1
1
1
1
1
1
1
1.00001
1.00005
1.00041
1.00257
1.01409
1.05122
1.13636
1.38902
1.61645
2.46789
2.58498
2.08531
1.30983
1.03699
1.00188
1.00005
1
1
1
1
1
1
1
2.35173
2.81818
2.52916
1.54118
1.0483
1.00081
1
1
1
1
1
1
1
1
1
2.93335
2.87299
1.9819
1.15283
1.00526
1.00005
1
1
1
1
1
1
1
1
1
3.2562
2.55843
1.36465
1.01912
1.00018
1
1
1
1
1
1
1
1
1
1
3.32038
1.68376
1.04727
1.00052
1
1
1
1
1
1
1
1
1
1
1
2.06532
1.07302
1.00049
0.999999
1
1
1
1
1
1
1
1
1
1
1
1.10178
1.00054
0.999997
1
1
1
1
1
1
1
1
1
1
1
1
0.998151
0.999865
0.999996
1
1
1
1
1
1
1
1
1
1
1
1
0.999966
1
1
1
1
1
1
1
1
1
1
1
1
1
1
1
1
1
1
1
1
1
1
1
1
1
1
1
1
1
1
1
1
1
1
1
1
1
1
1
1
1
1
1
1
1
1
1
1
1
1
1
1
1
1
1
1
1
1
1
1
1
1
1
1
1
1
1
1
1
1
1
1
1
1
1
1
1
1
1
1
1
1
1
1
1
1
1
1
1
1
1
1
1
1
1
1
1
1
1
1
1
1
1
1
1
1
1
1
1
1
1
1
1
1
1
1
1
1
1
1
1
1
1
1
1
1
1
1
1
1
1
1
1
1
1
1
1
1
1
1
1
1
1
1
1
1
1
1
1
1
1
1
1
1
1
1
1
1
1
1
1
1
1
1
1
1
1
1
1
1
1
1
1
1
1
1
1
1
1
1
1
1
1
1
1
1
1
1
1
1
1
1
1
1
1
1
1
1
1
1
1
1
1
1
1
1
1
1
1
1
1
1
1
1
1
1
1
1
1
1
1
1
1
1
1
1
1
1
1
1
1
1
1
1
1
1
1
1
1
1
1
1
1
1
1
1
1
1
1
1
1
1
1
1
1
1
1
1
1
1
1
1
1
1
1
1
1
1
1
1
1
1
1
1
1
1
1
1
1
1
1
1
1
1
1
1
1
1
1
1
1
1
1
1
1
1
1
1
1
1
1
1
1
1
1
1
1
1
1
1
1
1
1
1
1
1
1
1
1
1
1
1
1
1
1
1
1
1
1
1
1
1
1
1
1
1
1
1
1
1
1
1
1
1
1
1
1
1
1
1
1
1
1
1
1
1
1
1
1
1
1
1
1
1
1
1
1
1
1
1
1
1
1
1
1
1
1
1
1
1
1
1
1
1
1
1
1
1
1
1
1
1
1
1
1
1
1
1
1
1
1
1
1
1
1
1
1
1
1
1
1
1
1
1
1
1
1
1
1
1
1
1
1
1
1
1
1
1
1
1
1
1
1
1
1
1
1
1
1
1
1
1
1
1
1
1
1
1
1
1
1
1
1
1
1
1
1
1
1
1
1
1
1
1
1
1
1
1
1
1
1
1
1
1
1
1
1
1
1
1
1
1
1
1
1
1
1
1
1
1
1
1
1
1
1
1
1
1
1
1
1
1
1
1
1
1
1
1
1
1
1
1
1
1
1
1
1
1
1
1
1
1
1
1
1
1
1
1
1
1
1
1
1
1
1
1
1
1
1
1
1
1
1
1
1
1
1
1
1
1
1
1
1
1
1
1
1
1
1
1
1
1
1
1
1
1
1
1
1
1
1
1
1
1
1
1
1
1
1
1
1
1
1
1
1
1
1
1
1
1
1
1
1
1
1
1
1
1
1
1
1
1
1
1
1
1
1
1
1
1
1
1
1
1
1
1
1
1
1
1
1
1
1
1
1
1
1
1
1
1
1
1
1
1
1
1
1
1
1
1
1
1
1
1
1
1
1
1
1
1
1
1
1
1
1
1
1
1
1
1
1
1
1
1
1
1
1
1
1
1
1
1
1
1
1
1
1
1
1
1
1
1
1
1
1
1
1
1
1
1
1
1
1
1
1
1
1
1
1
1
1
1
1
1
1
1
1
1
1
1
1
1
1
1
1
1
1
1
1
1
1
1
1
1
1
1
1
1
1
1
1
1
1
1
1
1
1
1
1
1
1
1
1
1
1
1
1
1
1
1
1
1
1
1
1
1
1
1
1
1
1
1
1
1
1
1
1
1
1
1
1
1
1
1
1
1
1
1
1
1
1
1
1
1
1
1
1
1
1
1
1
1
1
1
1
1
1
1
1
1
1
1
1
1
1
1
1
1
1
1
1
1
1
1
1
1
1
1
1
1
1
1
1
1
1
1
1
1
1
1
1
1
1
1
1
1
1
1
1
1
1
1
1
1
0.999966
1
1
1
1
1
1
1
1
1
1
1
1
1
1
0.998153
0.999866
0.999996
1
1
1
1
1
1
1
1
1
1
1
1
1.1018
1.00054
0.999997
1
1
1
1
1
1
1
1
1
1
1
1
2.06453
1.07286
1.00049
0.999999
1
1
1
1
1
1
1
1
1
1
1
3.31878
1.6831
1.04721
1.00052
1
1
1
1
1
1
1
1
1
1
1
3.25529
2.55783
1.36456
1.01909
1.00018
1
1
1
1
1
1
1
1
1
1
2.9326
2.87271
1.98208
1.15299
1.00527
1.00005
1
1
1
1
1
1
1
1
1
2.35101
2.81779
2.52926
1.54122
1.0483
1.00081
1
1
1
1
1
1
1
1
1
1.61737
2.46823
2.58525
2.08535
1.30972
1.03692
1.00188
1.00005
1
1
1
1
1
1
1
1.27262
2.01128
2.50252
2.36561
1.68077
1.10813
1.0045
1.00009
1
1
1
1
1
1
1
0.996598
1.53646
2.15583
2.34703
2.15165
1.44118
1.04465
1.00111
1.00001
1
1
1
1
1
1
0.747896
1.19252
1.73398
2.23714
2.22304
1.84929
1.20689
1.01077
1.00015
1
1
1
1
1
1
0.638169
0.901889
1.37347
1.93093
2.18882
2.11169
1.54893
1.07765
1.00244
1.00003
1
1
1
1
1
0.638173
0.772578
1.06796
1.58612
2.06235
2.11065
1.86316
1.26927
1.01874
1.00032
1
1
1
1
1
0.649599
0.773896
0.897444
1.24629
1.78843
2.07503
2.01832
1.56978
1.10174
1.00401
1.00005
1
1
1
1
0.630709
0.754823
0.843096
1.06411
1.46209
1.93115
2.01329
1.82466
1.29003
1.02455
1.00049
1
1
1
1
0.581392
0.682019
0.770353
0.977677
1.25143
1.68599
1.96907
1.93652
1.55792
1.10768
1.00461
1.00006
1
1
1
0.536821
0.608194
0.67711
0.880385
1.0921
1.43407
1.83711
1.9299
1.76643
1.28659
1.02679
1.00059
1.00001
1
1
0.505269
0.567185
0.663149
0.805856
0.951575
1.23335
1.62504
1.88765
1.85783
1.52264
1.10586
1.00479
1.00006
1
1
0.484304
0.549113
0.666325
0.765178
0.857113
1.08248
1.40064
1.76668
1.85209
1.70319
1.26355
1.0254
1.00059
1.00001
1
0.476477
0.54218
0.650031
0.716847
0.784477
0.970516
1.21456
1.58721
1.81825
1.78886
1.47683
1.09422
1.00414
1.00005
1
0.473727
0.531905
0.613931
0.663536
0.749634
0.923269
1.07523
1.37411
1.71716
1.78442
1.63778
1.23382
1.02229
1.00052
1.00001
0.474865
0.513214
0.577374
0.620059
0.70917
0.861687
0.983245
1.2202
1.54967
1.75548
1.72487
1.42421
1.0802
1.00341
1.00005
0.482519
0.483782
0.550489
0.59587
0.689047
0.78987
0.885278
1.10374
1.38687
1.67762
1.7229
1.5748
1.19784
1.01752
1.00041
0.560408
0.487375
0.529386
0.587886
0.68034
0.741045
0.8102
0.997775
1.22558
1.54148
1.70379
1.66638
1.36939
1.06418
1.00257
0.744586
0.528913
0.53152
0.573786
0.661917
0.700131
0.772044
0.93556
1.09271
1.38136
1.64434
1.66501
1.50868
1.16389
1.01408
0.887543
0.640435
0.535294
0.552038
0.624351
0.657627
0.738008
0.886888
0.999971
1.22736
1.52687
1.65249
1.6086
1.31315
1.05121
0.940181
0.785724
0.571267
0.546181
0.576302
0.625007
0.72551
0.833437
0.926605
1.12398
1.39431
1.61545
1.61331
1.44452
1.13633
0.951593
0.905854
0.741647
0.583128
0.579532
0.603857
0.695651
0.756545
0.832437
0.999373
1.19498
1.46237
1.59003
1.55064
1.389
0.882107
0.744418
0.621265
0.597783
0.59247
0.553712
0.514174
0.476633
0.451489
0.444842
0.440062
0.434207
0.435995
0.463464
0.619849
0.827737
0.867519
0.930392
0.974498
0.964461
0.682107
0.602113
0.529664
0.524794
0.517282
0.477865
0.449484
0.431146
0.425562
0.423162
0.410842
0.41281
0.44945
0.635696
0.834237
0.935496
0.903684
0.921751
0.966832
0.968397
0.522105
0.489142
0.467329
0.468204
0.448444
0.412621
0.394264
0.389101
0.392102
0.390271
0.391436
0.439539
0.6437
0.834791
0.905446
0.952986
0.938605
0.932994
0.955613
0.967971
0.397994
0.396213
0.407074
0.409266
0.388834
0.368485
0.364846
0.364637
0.366939
0.380402
0.460249
0.675846
0.856059
0.892159
0.936404
0.967425
0.964813
0.944567
0.947729
0.964179
0.306915
0.321996
0.345439
0.343887
0.32266
0.316983
0.318861
0.322946
0.362096
0.516187
0.733652
0.879983
0.880609
0.897312
0.941644
0.971022
0.971062
0.952773
0.94402
0.956003
0.230864
0.260042
0.283997
0.295586
0.287456
0.279673
0.291305
0.372743
0.600053
0.826435
0.898383
0.899364
0.896464
0.911846
0.94752
0.974566
0.975163
0.959386
0.943746
0.951918
0.186284
0.215518
0.24301
0.239926
0.255296
0.32321
0.499235
0.705418
0.84013
0.905313
0.937204
0.919171
0.914959
0.926354
0.949975
0.964731
0.967352
0.961148
0.950126
0.953129
0.138109
0.160638
0.231251
0.350645
0.522694
0.673323
0.773541
0.862337
0.902667
0.911184
0.919205
0.92637
0.935589
0.94593
0.950362
0.951781
0.954412
0.956523
0.953383
0.95467
0.301791
0.428684
0.546573
0.673039
0.745798
0.815817
0.861004
0.898987
0.896401
0.894835
0.9044
0.933099
0.959404
0.962772
0.948695
0.932508
0.934892
0.95331
0.968669
0.964922
0.571729
0.645914
0.706093
0.777296
0.811595
0.859912
0.888112
0.902471
0.890721
0.882851
0.893978
0.934789
0.972453
0.96984
0.941464
0.924119
0.930283
0.958212
0.979384
0.968697
)
;

boundaryField
{
    inlet
    {
        type            fixedValue;
        value           uniform 1;
    }
    outlet
    {
        type            zeroGradient;
    }
    airfoil
    {
        type            zeroGradient;
    }
    top
    {
        type            symmetryPlane;
    }
    bottom
    {
        type            symmetryPlane;
    }
    defaultFaces
    {
        type            empty;
    }
}


// ************************************************************************* //
