/*--------------------------------*- C++ -*----------------------------------*\
  =========                 |
  \\      /  F ield         | OpenFOAM: The Open Source CFD Toolbox
   \\    /   O peration     | Website:  https://openfoam.org
    \\  /    A nd           | Version:  7
     \\/     M anipulation  |
\*---------------------------------------------------------------------------*/
FoamFile
{
    version     2.0;
    format      ascii;
    class       volScalarField;
    location    "5";
    object      rho;
}
// * * * * * * * * * * * * * * * * * * * * * * * * * * * * * * * * * * * * * //

dimensions      [1 -3 0 0 0 0 0];

internalField   nonuniform List<scalar> 
3700
(
0.170834
0.288031
0.356536
0.415132
0.496432
0.579332
0.58914
0.586248
0.60745
0.62328
0.636795
0.61507
0.624712
0.662966
0.667007
0.683941
0.702781
0.691719
0.700925
0.73511
0.0997154
0.123126
0.159248
0.177369
0.216548
0.228877
0.21877
0.192934
0.197343
0.210527
0.218791
0.212971
0.220703
0.24389
0.274419
0.302877
0.297949
0.270953
0.260006
0.272883
0.0842542
0.0985731
0.111509
0.107667
0.0900726
0.0691131
0.0645792
0.0698481
0.076867
0.0883989
0.103692
0.116294
0.131567
0.146604
0.153784
0.156127
0.157771
0.157282
0.158175
0.168778
0.0856851
0.103796
0.103869
0.0932387
0.0739019
0.066491
0.0655913
0.0712084
0.0770329
0.088924
0.106321
0.122842
0.143317
0.170711
0.194078
0.214316
0.228874
0.231211
0.225386
0.229057
0.0822648
0.0976463
0.0926035
0.082977
0.0777212
0.0825606
0.0859289
0.0978815
0.107953
0.129765
0.124525
0.130609
0.144067
0.173783
0.206121
0.240226
0.270829
0.295615
0.310738
0.314286
0.0772208
0.0930944
0.0916371
0.0844052
0.0858464
0.0966887
0.106232
0.127799
0.15224
0.183902
0.18138
0.191806
0.185782
0.193081
0.213461
0.251734
0.297847
0.348737
0.391641
0.447893
0.0748997
0.0906867
0.092001
0.0838616
0.0844875
0.0993126
0.11047
0.139779
0.181507
0.215875
0.245549
0.268435
0.276766
0.291442
0.295818
0.310527
0.337894
0.397611
0.464867
0.580147
0.0753181
0.0869499
0.085806
0.076472
0.0804209
0.094674
0.10802
0.138428
0.18866
0.236572
0.287872
0.323542
0.371641
0.411516
0.443408
0.474437
0.502128
0.536365
0.591125
0.749155
0.0843303
0.0786764
0.0711262
0.072728
0.0829755
0.09573
0.113876
0.141531
0.184789
0.240782
0.310073
0.364612
0.445668
0.511907
0.580499
0.648122
0.709698
0.767108
0.822688
1.00969
0.0886622
0.0675962
0.0651518
0.0826979
0.107978
0.130189
0.160835
0.204074
0.249429
0.29197
0.349237
0.422827
0.522176
0.613208
0.712014
0.826684
0.941942
1.05031
1.1544
1.32812
0.087916
0.059551
0.066622
0.0943344
0.123877
0.16433
0.229729
0.305482
0.385674
0.477545
0.559906
0.647658
0.733924
0.824598
0.915967
1.04484
1.22043
1.38457
1.63978
1.59271
0.0849246
0.053258
0.0653945
0.0864072
0.119571
0.172075
0.271108
0.372339
0.501805
0.668525
0.805131
0.942467
1.07538
1.20081
1.31465
1.45681
1.63931
1.83368
2.16673
2.12274
0.0673764
0.0429109
0.0557818
0.0701591
0.103994
0.16343
0.282728
0.405756
0.588153
0.839163
1.05606
1.26385
1.46714
1.64748
1.85507
2.08073
2.30597
2.54029
2.90718
2.90256
0.046523
0.0308691
0.0419899
0.0663571
0.104067
0.201554
0.365923
0.597046
0.922276
1.23769
1.5247
1.77768
2.03252
2.27569
2.59157
2.92165
3.25056
3.58306
3.884
4.18487
0.0338218
0.0261498
0.032592
0.0632672
0.190801
0.541682
0.888981
1.27238
1.72194
2.12655
2.44862
2.7356
3.02812
3.33749
3.74321
4.13527
4.51966
4.85613
5.0677
5.25051
0.0171351
0.0301681
0.0358789
0.179936
0.576511
1.0995
1.60061
2.15229
2.75089
3.27243
3.64813
4.00788
4.37185
4.77361
5.22486
5.52616
5.69571
5.74211
5.61164
5.43437
0.00900716
0.0433202
0.17798
0.603114
1.31023
2.01116
2.7283
3.51816
4.37532
4.91935
5.23577
5.54148
5.81468
6.04287
6.1933
6.09581
5.80262
5.07122
3.88917
2.63987
0.0504784
0.24287
0.777096
1.65009
2.84684
3.97695
4.93839
5.88637
6.65834
6.75599
6.63525
6.58417
6.51259
6.27949
5.58514
4.26425
2.91417
1.86151
1.42538
1.3901
0.426541
1.17551
2.65904
4.3702
5.83204
6.74268
7.54242
8.1954
8.00485
7.37641
6.77029
6.0243
4.74962
3.26218
2.00356
1.44378
1.38539
1.393
1.3963
1.39922
3.20667
5.03748
6.7481
7.89845
8.63826
8.95106
9.15462
8.67497
6.30974
4.4496
3.29434
2.18517
1.51522
1.38227
1.39017
1.39497
1.39889
1.39997
1.40003
1.40002
9.61688
9.53428
9.46474
9.57752
9.76393
9.42619
8.30775
3.1321
0.936695
1.40001
1.40001
1.40001
1.40001
1.40001
1.40001
1.40001
1.40001
1.40001
1.40001
1.40001
9.64187
9.54965
9.39625
9.32877
9.37648
7.93531
3.72315
1.43525
1.40001
1.40001
1.40001
1.40001
1.40001
1.40001
1.40001
1.40001
1.40001
1.40001
1.40001
1.40001
9.4657
9.50466
9.46903
9.27647
8.71639
4.77295
1.47921
1.39813
1.40001
1.40001
1.40001
1.40001
1.40001
1.40001
1.40001
1.40001
1.40001
1.40001
1.40001
1.40001
9.24388
9.41888
9.45272
9.25879
6.51697
1.92435
1.39143
1.40017
1.4
1.40001
1.40001
1.40001
1.40001
1.40001
1.40001
1.40001
1.40001
1.40001
1.40001
1.40001
9.07142
9.36443
9.39414
8.4226
3.66117
1.36787
1.40048
1.4
1.40001
1.40001
1.40001
1.40001
1.40001
1.40001
1.40001
1.40001
1.40001
1.40001
1.40001
1.40001
8.96599
9.37852
9.34382
6.8578
2.07579
1.40001
1.40001
1.40001
1.40001
1.40001
1.40001
1.40001
1.40001
1.40001
1.40001
1.40001
1.40001
1.40001
1.40001
1.40001
8.90604
9.41275
9.34443
4.98637
1.36473
1.40001
1.40001
1.40001
1.40001
1.40001
1.40001
1.40001
1.40001
1.40001
1.40001
1.40001
1.40001
1.40001
1.40001
1.40001
9.01026
9.22444
8.38753
2.83662
1.4
1.40001
1.40001
1.40001
1.40001
1.40001
1.40001
1.40001
1.40001
1.40001
1.40001
1.40001
1.40001
1.40001
1.40001
1.40001
9.6607
9.16431
6.74914
1.70893
1.4
1.40001
1.40001
1.40001
1.40001
1.40001
1.40001
1.40001
1.40001
1.40001
1.40001
1.40001
1.40001
1.40001
1.40001
1.40001
10.1099
8.90671
4.74335
1.38301
1.40001
1.40001
1.40001
1.40001
1.40001
1.40001
1.40001
1.40001
1.40001
1.40001
1.40001
1.40001
1.40001
1.40001
1.40001
1.40001
10.3268
8.28012
3.18441
1.40001
1.40001
1.40001
1.40001
1.40001
1.40001
1.40001
1.40001
1.40001
1.40001
1.40001
1.40001
1.40001
1.40001
1.40001
1.40001
1.40001
10.4103
7.44572
2.24157
1.40001
1.40001
1.40001
1.40001
1.40001
1.40001
1.40001
1.40001
1.40001
1.40001
1.40001
1.40001
1.40001
1.40001
1.40001
1.40001
1.40001
10.4553
6.61894
1.6326
1.40001
1.40001
1.40001
1.40001
1.40001
1.40001
1.40001
1.40001
1.40001
1.40001
1.40001
1.40001
1.40001
1.40001
1.40001
1.40001
1.40001
10.1983
5.57835
1.41572
1.40001
1.40001
1.40001
1.40001
1.40001
1.40001
1.40001
1.40001
1.40001
1.40001
1.40001
1.40001
1.40001
1.40001
1.40001
1.40001
1.40001
9.95874
4.47183
1.40001
1.40001
1.40001
1.40001
1.40001
1.40001
1.40001
1.40001
1.40001
1.40001
1.40001
1.40001
1.40001
1.40001
1.40001
1.40001
1.40001
1.40001
9.67507
3.44423
1.40001
1.40001
1.40001
1.40001
1.40001
1.40001
1.40001
1.40001
1.40001
1.40001
1.40001
1.40001
1.40001
1.40001
1.40001
1.40001
1.40001
1.40001
9.1681
2.65133
1.40001
1.40001
1.40001
1.40001
1.40001
1.40001
1.40001
1.40001
1.40001
1.40001
1.40001
1.40001
1.40001
1.40001
1.40001
1.40001
1.40001
1.40001
8.83118
1.93781
1.40001
1.40001
1.40001
1.40001
1.40001
1.40001
1.40001
1.40001
1.40001
1.40001
1.40001
1.40001
1.40001
1.40001
1.40001
1.40001
1.40001
1.40001
7.93518
1.40901
1.40001
1.40001
1.40001
1.40001
1.40001
1.40001
1.40001
1.40001
1.40001
1.40001
1.40001
1.40001
1.40001
1.40001
1.40001
1.40001
1.40001
1.40001
6.42618
1.40009
1.40001
1.40001
1.40001
1.40001
1.40001
1.40001
1.40001
1.40001
1.40001
1.40001
1.40001
1.40001
1.40001
1.40001
1.40001
1.40001
1.40001
1.40001
6.43818
1.4001
1.40001
1.40001
1.40001
1.40001
1.40001
1.40001
1.40001
1.40001
1.40001
1.40001
1.40001
1.40001
1.40001
1.40001
1.40001
1.40001
1.40001
1.40001
7.93153
1.4088
1.40001
1.40001
1.40001
1.40001
1.40001
1.40001
1.40001
1.40001
1.40001
1.40001
1.40001
1.40001
1.40001
1.40001
1.40001
1.40001
1.40001
1.40001
8.81962
1.93066
1.40001
1.40001
1.40001
1.40001
1.40001
1.40001
1.40001
1.40001
1.40001
1.40001
1.40001
1.40001
1.40001
1.40001
1.40001
1.40001
1.40001
1.40001
9.16827
2.63821
1.40001
1.40001
1.40001
1.40001
1.40001
1.40001
1.40001
1.40001
1.40001
1.40001
1.40001
1.40001
1.40001
1.40001
1.40001
1.40001
1.40001
1.40001
9.6874
3.4422
1.40001
1.40001
1.40001
1.40001
1.40001
1.40001
1.40001
1.40001
1.40001
1.40001
1.40001
1.40001
1.40001
1.40001
1.40001
1.40001
1.40001
1.40001
9.96772
4.4815
1.40001
1.40001
1.40001
1.40001
1.40001
1.40001
1.40001
1.40001
1.40001
1.40001
1.40001
1.40001
1.40001
1.40001
1.40001
1.40001
1.40001
1.40001
10.1904
5.59436
1.42186
1.40001
1.40001
1.40001
1.40001
1.40001
1.40001
1.40001
1.40001
1.40001
1.40001
1.40001
1.40001
1.40001
1.40001
1.40001
1.40001
1.40001
10.4508
6.628
1.63848
1.40001
1.40001
1.40001
1.40001
1.40001
1.40001
1.40001
1.40001
1.40001
1.40001
1.40001
1.40001
1.40001
1.40001
1.40001
1.40001
1.40001
10.4114
7.4568
2.24375
1.40001
1.40001
1.40001
1.40001
1.40001
1.40001
1.40001
1.40001
1.40001
1.40001
1.40001
1.40001
1.40001
1.40001
1.40001
1.40001
1.40001
10.3267
8.27047
3.1908
1.40001
1.40001
1.40001
1.40001
1.40001
1.40001
1.40001
1.40001
1.40001
1.40001
1.40001
1.40001
1.40001
1.40001
1.40001
1.40001
1.40001
10.1136
8.90935
4.73236
1.3831
1.40001
1.40001
1.40001
1.40001
1.40001
1.40001
1.40001
1.40001
1.40001
1.40001
1.40001
1.40001
1.40001
1.40001
1.40001
1.40001
9.66325
9.16785
6.74276
1.70523
1.4
1.40001
1.40001
1.40001
1.40001
1.40001
1.40001
1.40001
1.40001
1.40001
1.40001
1.40001
1.40001
1.40001
1.40001
1.40001
9.00526
9.21203
8.37146
2.83149
1.4
1.40001
1.40001
1.40001
1.40001
1.40001
1.40001
1.40001
1.40001
1.40001
1.40001
1.40001
1.40001
1.40001
1.40001
1.40001
8.90595
9.40919
9.35118
4.97652
1.36381
1.40001
1.40001
1.40001
1.40001
1.40001
1.40001
1.40001
1.40001
1.40001
1.40001
1.40001
1.40001
1.40001
1.40001
1.40001
8.96928
9.39539
9.35689
6.86052
2.08332
1.40001
1.40001
1.40001
1.40001
1.40001
1.40001
1.40001
1.40001
1.40001
1.40001
1.40001
1.40001
1.40001
1.40001
1.40001
9.07394
9.36686
9.39693
8.40483
3.68001
1.36766
1.40048
1.4
1.40001
1.40001
1.40001
1.40001
1.40001
1.40001
1.40001
1.40001
1.40001
1.40001
1.40001
1.40001
9.23689
9.40985
9.44994
9.262
6.52186
1.92075
1.39154
1.40017
1.4
1.40001
1.40001
1.40001
1.40001
1.40001
1.40001
1.40001
1.40001
1.40001
1.40001
1.40001
9.45541
9.49724
9.46681
9.28864
8.71831
4.76347
1.47567
1.3982
1.40001
1.40001
1.40001
1.40001
1.40001
1.40001
1.40001
1.40001
1.40001
1.40001
1.40001
1.40001
9.63941
9.54935
9.40282
9.33588
9.35303
7.94396
3.73201
1.43688
1.40001
1.40001
1.40001
1.40001
1.40001
1.40001
1.40001
1.40001
1.40001
1.40001
1.40001
1.40001
9.61919
9.53623
9.47203
9.57936
9.75565
9.42084
8.31173
3.15661
0.931332
1.40001
1.40001
1.40001
1.40001
1.40001
1.40001
1.40001
1.40001
1.40001
1.40001
1.40001
3.20817
5.03999
6.74527
7.89298
8.63861
8.95281
9.15119
8.67492
6.3072
4.4449
3.28717
2.17783
1.51218
1.38221
1.39005
1.39491
1.39888
1.39997
1.40003
1.40002
0.427557
1.18275
2.69303
4.4024
5.84392
6.73569
7.5293
8.18903
8.00058
7.37479
6.76983
6.02347
4.74653
3.25888
2.00167
1.44343
1.38537
1.393
1.39629
1.39922
0.044569
0.228544
0.740169
1.63005
2.84352
3.98907
4.95253
5.89558
6.64996
6.75643
6.64337
6.59343
6.51901
6.28096
5.58437
4.26494
2.91518
1.86192
1.42543
1.3901
0.0109037
0.0429186
0.193132
0.596335
1.29773
2.00321
2.72312
3.51105
4.37319
4.92065
5.24491
5.55238
5.82317
6.04647
6.19355
6.09576
5.80213
5.07076
3.88915
2.64019
0.0171089
0.0283696
0.0406471
0.202062
0.582826
1.08419
1.58101
2.1349
2.73824
3.26309
3.64102
4.00431
4.3702
4.77322
5.22235
5.52448
5.69628
5.74259
5.61204
5.43415
0.0281885
0.0273206
0.0356843
0.0645754
0.190916
0.554279
0.897704
1.28009
1.72759
2.13341
2.45436
2.7424
3.0366
3.34676
3.75036
4.14025
4.52358
4.85798
5.06731
5.24841
0.0394897
0.0306426
0.0395151
0.0574433
0.0999413
0.212436
0.378414
0.604905
0.929847
1.24013
1.52576
1.77611
2.0299
2.27248
2.58807
2.92019
3.2517
3.58623
3.8834
4.18335
0.0623104
0.0390219
0.0461226
0.0632249
0.10204
0.161712
0.273903
0.391649
0.569554
0.816791
1.03733
1.24862
1.45624
1.63938
1.85195
2.08066
2.30753
2.54078
2.90581
2.90026
0.08958
0.0484594
0.0620803
0.0848902
0.119002
0.17096
0.272041
0.368249
0.494619
0.662888
0.8003
0.938743
1.07375
1.20084
1.31843
1.46178
1.64005
1.83093
2.16261
2.11975
0.102511
0.0553558
0.0653662
0.095841
0.129051
0.170244
0.238095
0.315141
0.395932
0.490539
0.572083
0.658764
0.743505
0.832283
0.919195
1.04138
1.21404
1.37945
1.63951
1.59544
0.105735
0.0618685
0.062737
0.0841639
0.115996
0.141979
0.17195
0.219235
0.263035
0.302599
0.352726
0.421995
0.517376
0.607831
0.705474
0.82094
0.939461
1.05144
1.15762
1.32953
0.108513
0.0725969
0.064597
0.0688807
0.0840621
0.105532
0.116761
0.141227
0.178749
0.229326
0.300743
0.35733
0.439804
0.507454
0.577812
0.648409
0.712435
0.773227
0.827931
1.01229
0.0989228
0.0844196
0.0759228
0.0699173
0.0729837
0.0922198
0.104887
0.130253
0.17881
0.229332
0.283499
0.320966
0.371779
0.413474
0.448399
0.481109
0.510308
0.543603
0.593866
0.748004
0.0887223
0.092483
0.0857458
0.076742
0.0769604
0.0967252
0.107255
0.13274
0.177382
0.214124
0.246907
0.271354
0.284167
0.30042
0.302855
0.315985
0.338691
0.39191
0.458772
0.57599
0.0875645
0.0958005
0.0884931
0.0806454
0.0798618
0.0958401
0.106193
0.125381
0.155061
0.185393
0.187522
0.199795
0.191817
0.196941
0.210663
0.244775
0.291191
0.343239
0.387239
0.447037
0.0866031
0.0985287
0.0916098
0.0826264
0.076469
0.0838751
0.0912613
0.10095
0.114418
0.136482
0.127924
0.133026
0.142137
0.167775
0.201024
0.235724
0.267174
0.292993
0.312476
0.319453
0.0918069
0.105203
0.101402
0.0892681
0.0702422
0.0674032
0.0709577
0.0725638
0.0796868
0.0910972
0.105167
0.120319
0.139563
0.166698
0.191815
0.213763
0.228294
0.233217
0.22952
0.23254
0.0877631
0.102273
0.112204
0.106267
0.08557
0.0687063
0.0679919
0.0705307
0.077779
0.0878846
0.102226
0.114568
0.130389
0.147027
0.155341
0.158268
0.159055
0.158968
0.159818
0.168283
0.0906412
0.114792
0.150462
0.191667
0.180434
0.148403
0.134637
0.145119
0.144685
0.15365
0.184837
0.229568
0.282531
0.317709
0.298337
0.27296
0.276004
0.287462
0.299281
0.28232
0.149448
0.271607
0.336533
0.42904
0.49876
0.532314
0.540983
0.564883
0.579796
0.599045
0.631078
0.63307
0.652932
0.672304
0.658078
0.659531
0.699773
0.714267
0.731845
0.723251
0.777938
0.889606
0.984162
1.07434
1.12813
1.21164
1.24302
1.24177
1.21944
1.21019
1.2305
1.29336
1.35326
1.35596
1.32424
1.28827
1.29206
1.32849
1.35353
1.344
0.393219
0.579951
0.7624
0.915818
1.03669
1.15847
1.21978
1.26034
1.24801
1.23935
1.24962
1.28227
1.32215
1.33659
1.33293
1.32167
1.32197
1.33204
1.33755
1.33301
0.193166
0.226955
0.326475
0.468012
0.709685
0.945397
1.10104
1.20565
1.25353
1.26226
1.27233
1.28244
1.29151
1.30976
1.32866
1.34183
1.34713
1.34474
1.3329
1.3283
0.259588
0.303917
0.333907
0.330427
0.347592
0.44398
0.706804
0.998435
1.16735
1.25774
1.2969
1.26902
1.25439
1.27308
1.31342
1.34941
1.35666
1.34823
1.32594
1.32668
0.321217
0.362043
0.400399
0.413808
0.400929
0.389754
0.407902
0.527653
0.840088
1.15505
1.24766
1.24636
1.22688
1.23619
1.29639
1.3533
1.35852
1.34258
1.3222
1.32943
0.425895
0.449511
0.48255
0.477749
0.446146
0.43292
0.437343
0.448118
0.506417
0.734865
1.04689
1.22437
1.2303
1.22383
1.27043
1.33896
1.34981
1.33296
1.32289
1.33786
0.551787
0.558066
0.572176
0.566458
0.527847
0.502982
0.506455
0.507489
0.509554
0.533211
0.659619
0.971432
1.21883
1.2498
1.26267
1.31152
1.31662
1.3049
1.31951
1.34695
0.722029
0.68612
0.666323
0.65781
0.616021
0.563138
0.550529
0.548846
0.542804
0.544017
0.555751
0.629826
0.918528
1.21751
1.25719
1.29503
1.28167
1.28836
1.3252
1.34859
0.945615
0.845604
0.754577
0.738273
0.711698
0.660224
0.624923
0.608798
0.594192
0.58536
0.572604
0.581381
0.640131
0.900333
1.18723
1.29477
1.25731
1.27903
1.343
1.34842
1.22689
1.04198
0.883825
0.844552
0.82052
0.764649
0.703471
0.659996
0.620078
0.61985
0.611148
0.605455
0.617019
0.6588
0.875968
1.18153
1.22365
1.29748
1.35524
1.34197
1.77787
1.38234
1.03199
0.902462
0.907349
0.91423
0.883026
0.790964
0.720871
0.684185
0.677967
0.671007
0.665806
0.667668
0.678781
0.788054
1.04308
1.23569
1.30817
1.32562
2.80849
2.13487
1.62932
1.25513
1.10259
1.09907
1.07384
0.963411
0.847752
0.791409
0.753028
0.742448
0.72974
0.707421
0.679672
0.685098
0.742384
0.900302
1.10001
1.26427
3.4802
3.00388
2.42253
1.90457
1.48477
1.24507
1.1696
1.08734
0.987325
0.948781
0.931105
0.894341
0.840026
0.790215
0.755805
0.733515
0.74063
0.75156
0.803094
1.03831
3.29519
3.26882
3.11463
2.69154
2.21458
1.74494
1.46031
1.34845
1.24468
1.14027
1.07843
1.00917
0.930195
0.863656
0.828847
0.819058
0.79988
0.771163
0.764409
0.81675
2.34799
3.0024
3.09723
3.04896
2.87126
2.49346
2.04668
1.74745
1.51455
1.3211
1.19964
1.10172
1.05574
0.998709
0.962914
0.948462
0.922063
0.869583
0.803973
0.810536
1.5505
2.01494
2.5824
2.94621
2.94326
2.89301
2.69354
2.35591
2.00602
1.71745
1.50611
1.345
1.28429
1.20615
1.10808
1.03709
0.978381
0.918704
0.874359
0.844166
1.40628
1.46225
1.6885
2.16496
2.60179
2.81739
2.80991
2.74769
2.56465
2.26793
1.95241
1.6914
1.50224
1.37845
1.24198
1.13531
1.08303
1.03746
1.01895
0.975113
1.40013
1.40155
1.41501
1.50829
1.77533
2.19404
2.54962
2.7049
2.69457
2.63453
2.46536
2.21544
1.91866
1.70349
1.53835
1.39072
1.30747
1.24232
1.16746
1.05842
1.40001
1.40002
1.40022
1.40341
1.42613
1.54193
1.80456
2.17821
2.46845
2.59477
2.58605
2.53874
2.39721
2.16333
1.93695
1.7129
1.52906
1.39997
1.29691
1.16454
1.40001
1.40001
1.40001
1.40004
1.40045
1.4056
1.43424
1.55022
1.79986
2.12878
2.37996
2.49904
2.49241
2.45195
2.34367
2.15418
1.9308
1.71624
1.5723
1.39843
1.40001
1.40001
1.40001
1.40001
1.40001
1.40007
1.40069
1.40644
1.43739
1.54777
1.76765
2.06488
2.289
2.41023
2.4073
2.38079
2.29783
2.13404
1.94931
1.67137
1.40001
1.40001
1.40001
1.40001
1.40001
1.40001
1.40001
1.40009
1.40083
1.40669
1.43546
1.53145
1.7261
1.99155
2.20143
2.32911
2.32701
2.30958
2.25799
2.04463
1.40001
1.40001
1.40001
1.40001
1.40001
1.40001
1.40001
1.40001
1.40001
1.40009
1.40083
1.40579
1.4311
1.51189
1.67594
1.91526
2.10939
2.24874
2.25524
2.2228
1.40001
1.40001
1.40001
1.40001
1.40001
1.40001
1.40001
1.40001
1.40001
1.40001
1.40001
1.40008
1.40074
1.40476
1.42445
1.48955
1.6287
1.83692
2.02014
2.16801
1.40001
1.40001
1.40001
1.40001
1.40001
1.40001
1.40001
1.40001
1.40001
1.40001
1.40001
1.40001
1.40001
1.40007
1.40057
1.4036
1.41966
1.47148
1.59027
1.94259
2.2496
3.4326
3.59706
2.90736
1.83117
1.45154
1.40263
1.40007
1.40001
1.40001
1.40001
1.40001
1.40001
1.40001
1.40001
3.27044
3.91946
3.52259
2.15299
1.46731
1.40113
1.40001
1.4
1.40001
1.40001
1.40001
1.40001
1.40001
1.40001
1.40001
4.078
3.99681
2.76435
1.61277
1.40733
1.40008
1.40001
1.40001
1.40001
1.40001
1.40001
1.40001
1.40001
1.40001
1.40001
4.52614
3.56334
1.90733
1.42664
1.40025
1.40001
1.40001
1.40001
1.40001
1.40001
1.40001
1.40001
1.40001
1.40001
1.40001
4.61847
2.35057
1.46582
1.40072
1.40001
1.40001
1.40001
1.40001
1.40001
1.40001
1.40001
1.40001
1.40001
1.40001
1.40001
2.88014
1.50167
1.40068
1.4
1.4
1.40001
1.40001
1.40001
1.40001
1.40001
1.40001
1.40001
1.40001
1.40001
1.40001
1.54184
1.40076
1.4
1.4
1.40001
1.40001
1.40001
1.40001
1.40001
1.40001
1.40001
1.40001
1.40001
1.40001
1.40001
1.39742
1.39982
1.4
1.40001
1.40001
1.40001
1.40001
1.40001
1.40001
1.40001
1.40001
1.40001
1.40001
1.40001
1.40001
1.39996
1.40001
1.40001
1.40001
1.40001
1.40001
1.40001
1.40001
1.40001
1.40001
1.40001
1.40001
1.40001
1.40001
1.40001
1.40001
1.40001
1.40001
1.40001
1.40001
1.40001
1.40001
1.40001
1.40001
1.40001
1.40001
1.40001
1.40001
1.40001
1.40001
1.40001
1.40001
1.40001
1.40001
1.40001
1.40001
1.40001
1.40001
1.40001
1.40001
1.40001
1.40001
1.40001
1.40001
1.40001
1.40001
1.40001
1.40001
1.40001
1.40001
1.40001
1.40001
1.40001
1.40001
1.40001
1.40001
1.40001
1.40001
1.40001
1.40001
1.40001
1.40001
1.40001
1.40001
1.40001
1.40001
1.40001
1.40001
1.40001
1.40001
1.40001
1.40001
1.40001
1.40001
1.40001
1.40001
1.40001
1.40001
1.40001
1.40001
1.40001
1.40001
1.40001
1.40001
1.40001
1.40001
1.40001
1.40001
1.40001
1.40001
1.40001
1.40001
1.40001
1.40001
1.40001
1.40001
1.40001
1.40001
1.40001
1.40001
1.40001
1.40001
1.40001
1.40001
1.40001
1.40001
1.40001
1.40001
1.40001
1.40001
1.40001
1.40001
1.40001
1.40001
1.40001
1.40001
1.40001
1.40001
1.40001
1.40001
1.40001
1.40001
1.40001
1.40001
1.40001
1.40001
1.40001
1.40001
1.40001
1.40001
1.40001
1.40001
1.40001
1.40001
1.40001
1.40001
1.40001
1.40001
1.40001
1.40001
1.40001
1.40001
1.40001
1.40001
1.40001
1.40001
1.40001
1.40001
1.40001
1.40001
1.40001
1.40001
1.40001
1.40001
1.40001
1.40001
1.40001
1.40001
1.40001
1.40001
1.40001
1.40001
1.40001
1.40001
1.40001
1.40001
1.40001
1.40001
1.40001
1.40001
1.40001
1.40001
1.40001
1.40001
1.40001
1.40001
1.40001
1.40001
1.40001
1.40001
1.40001
1.40001
1.40001
1.40001
1.40001
1.40001
1.40001
1.40001
1.40001
1.40001
1.40001
1.40001
1.40001
1.40001
1.40001
1.40001
1.40001
1.40001
1.40001
1.40001
1.40001
1.40001
1.40001
1.40001
1.40001
1.40001
1.40001
1.40001
1.40001
1.40001
1.40001
1.40001
1.40001
1.40001
1.40001
1.40001
1.40001
1.40001
1.40001
1.40001
1.40001
1.40001
1.40001
1.40001
1.40001
1.40001
1.40001
1.40001
1.40001
1.40001
1.40001
1.40001
1.40001
1.40001
1.40001
1.40001
1.40001
1.40001
1.40001
1.40001
1.40001
1.40001
1.40001
1.40001
1.40001
1.40001
1.40001
1.40001
1.40001
1.40001
1.40001
1.40001
1.40001
1.40001
1.40001
1.40001
1.40001
1.40001
1.40001
1.40001
1.40001
1.40001
1.40001
1.40001
1.40001
1.40001
1.40001
1.40001
1.40001
1.40001
1.40001
1.40001
1.40001
1.40001
1.40001
1.40001
1.40001
1.40001
1.40001
1.40001
1.40001
1.40001
1.40001
1.40001
1.40001
1.40001
1.40001
1.40001
1.40001
1.40001
1.40001
1.40001
1.40001
1.40001
1.40001
1.40001
1.40001
1.40001
1.40001
1.40001
1.40001
1.40001
1.40001
1.40001
1.40001
1.40001
1.40001
1.40001
1.40001
1.40001
1.40001
1.40001
1.40001
1.40001
1.40001
1.40001
1.40001
1.40001
1.40001
1.40001
1.40001
1.40001
1.40001
1.40001
1.40001
1.40001
1.40001
1.40001
1.40001
1.40001
1.40001
1.40001
1.40001
1.40001
1.40001
1.40001
1.40001
1.40001
1.40001
1.40001
1.40001
1.40001
1.40001
1.40001
1.40001
1.40001
1.40001
1.40001
1.40001
1.40001
1.40001
1.40001
1.40001
1.40001
1.40001
1.40001
1.40001
1.40001
1.40001
1.40001
1.40001
1.40001
1.40001
1.40001
1.40001
1.40001
1.40001
1.40001
1.40001
1.40001
1.40001
1.40001
1.40001
1.40001
1.40001
1.40001
1.40001
1.40001
1.40001
1.40001
1.40001
1.40001
1.40001
1.40001
1.40001
1.40001
1.40001
1.40001
1.40001
1.40001
1.40001
1.40001
1.40001
1.40001
1.40001
1.40001
1.40001
1.40001
1.40001
1.40001
1.40001
1.40001
1.40001
1.40001
1.40001
1.40001
1.40001
1.40001
1.40001
1.40001
1.40001
1.40001
1.40001
1.40001
1.40001
1.40001
1.40001
1.40001
1.40001
1.40001
1.40001
1.40001
1.40001
1.40001
1.40001
1.40001
1.40001
1.40001
1.40001
1.40001
1.40001
1.40001
1.40001
1.40001
1.40001
1.40001
1.40001
1.40001
1.40001
1.40001
1.40001
1.40001
1.40001
1.40001
1.40001
1.40001
1.40001
1.40001
1.40001
1.40001
1.40001
1.40001
1.40001
1.40001
1.40001
1.40001
1.40001
1.40001
1.40001
1.40001
1.40001
1.40001
1.40001
1.40001
1.40001
1.40001
1.40001
1.40001
1.40001
1.40001
1.40001
1.40001
1.40001
1.40001
1.40001
1.40001
1.40001
1.40001
1.40001
1.40001
1.40001
1.40001
1.40001
1.40001
1.40001
1.40001
1.40001
1.40001
1.40001
1.40001
1.40001
1.40001
1.40001
1.40001
1.40001
1.40001
1.40001
1.40001
1.40001
1.40001
1.40001
1.40001
1.40001
1.40001
1.40001
1.40001
1.40001
1.40001
1.40001
1.40001
1.40001
1.40001
1.40001
1.40001
1.40001
1.40001
1.40001
1.40001
1.40001
1.40001
1.40001
1.40001
1.40001
1.40001
1.40001
1.40001
1.40001
1.40001
1.40001
1.40001
1.40001
1.40001
1.40001
1.40001
1.40001
1.40001
1.40001
1.40001
1.40001
1.40001
1.40001
1.40001
1.40001
1.40001
1.40001
1.40001
1.40001
1.40001
1.40001
1.40001
1.40001
1.40001
1.40001
1.40001
1.40001
1.40001
1.40001
1.40001
1.40001
1.40001
1.40001
1.40001
1.40001
1.40001
1.40001
1.40001
1.40001
1.40001
1.40001
1.40001
1.40001
1.40001
1.40001
1.40001
1.40001
1.40001
1.40001
1.40001
1.40001
1.40001
1.40001
1.40001
1.40001
1.40001
1.40001
1.40001
1.40001
1.40001
1.40001
1.40001
1.40001
1.40001
1.40001
1.40001
1.40001
1.40001
1.40001
1.40001
1.40001
1.40001
1.40001
1.40001
1.40001
1.40001
1.40001
1.40001
1.40001
1.40001
1.40001
1.40001
1.40001
1.40001
1.40001
1.40001
1.40001
1.40001
1.40001
1.40001
1.40001
1.40001
1.40001
1.40001
1.40001
1.40001
1.40001
1.40001
1.40001
1.40001
1.40001
1.40001
1.40001
1.40001
1.40001
1.40001
1.40001
1.40001
1.40001
1.40001
1.40001
1.40001
1.40001
1.40001
1.40001
1.40001
1.40001
1.40001
1.40001
1.40001
1.40001
1.40001
1.40001
1.40001
1.40001
1.40001
1.40001
1.40001
1.40001
1.40001
1.40001
1.40001
1.40001
1.40001
1.40001
1.40001
1.40001
1.40001
1.40001
1.40001
1.40001
1.40001
1.40001
1.40001
1.40001
1.40001
1.40001
1.40001
1.40001
1.40001
1.40001
1.40001
1.40001
1.40001
1.40001
1.40001
1.40001
1.40001
1.40001
1.40001
1.40001
1.40001
1.40001
1.40001
1.40001
1.40001
1.40001
1.40001
1.40001
1.40001
1.40001
1.40001
1.40001
1.40001
1.40001
1.40001
1.40001
1.40001
1.40001
1.40001
1.40001
1.40001
1.40001
1.40001
1.40001
1.40001
1.40001
1.40001
1.40001
1.40001
1.40001
1.40001
1.40001
1.40001
1.40001
1.40001
1.40001
1.40001
1.40001
1.40001
1.40001
1.40001
1.40001
1.40001
1.40001
1.40001
1.40001
1.40001
1.40001
1.40001
1.40001
1.40001
1.40001
1.40001
1.40001
1.40001
1.40001
1.40001
1.40001
1.40001
1.40001
1.40001
1.40001
1.40001
1.40001
1.40001
1.40001
1.40001
1.40001
1.40001
1.40001
1.40001
1.40001
1.40001
1.40001
1.40001
1.40001
1.40001
1.40001
1.40001
1.40001
1.40001
1.40001
1.40001
1.40001
1.40001
1.40001
1.40001
1.40001
1.40001
1.40001
1.40001
1.40001
1.40001
1.40001
1.40001
1.40001
1.40001
1.40001
1.40001
1.40001
1.40001
1.40001
1.40001
1.40001
1.40001
1.40001
1.40001
1.40001
1.40001
1.40001
1.40001
1.40001
1.40001
1.40001
1.40001
1.40001
1.40001
1.40001
1.40001
1.40001
1.40001
1.40001
1.40001
1.40001
1.40001
1.40001
1.40001
1.40001
1.40001
1.40001
1.40001
1.40001
1.40001
1.40001
1.40001
1.40001
1.40001
1.40001
1.40001
1.40001
1.40001
1.40001
1.40001
1.40001
1.40001
1.40001
1.40001
1.40001
1.40001
1.40001
1.40001
1.40001
1.40001
1.40001
1.40001
1.40001
1.39996
1.40001
1.40001
1.40001
1.40001
1.40001
1.40001
1.40001
1.40001
1.40001
1.40001
1.40001
1.40001
1.40001
1.40001
1.39743
1.39982
1.4
1.40001
1.40001
1.40001
1.40001
1.40001
1.40001
1.40001
1.40001
1.40001
1.40001
1.40001
1.40001
1.54187
1.40076
1.4
1.4
1.40001
1.40001
1.40001
1.40001
1.40001
1.40001
1.40001
1.40001
1.40001
1.40001
1.40001
2.87904
1.50145
1.40068
1.4
1.4
1.40001
1.40001
1.40001
1.40001
1.40001
1.40001
1.40001
1.40001
1.40001
1.40001
4.61626
2.34966
1.46573
1.40073
1.40001
1.40001
1.40001
1.40001
1.40001
1.40001
1.40001
1.40001
1.40001
1.40001
1.40001
4.52487
3.56251
1.90721
1.42659
1.40025
1.40001
1.40001
1.40001
1.40001
1.40001
1.40001
1.40001
1.40001
1.40001
1.40001
4.07696
3.99643
2.7646
1.61299
1.40735
1.40008
1.40001
1.40001
1.40001
1.40001
1.40001
1.40001
1.40001
1.40001
1.40001
3.26945
3.91892
3.52274
2.15305
1.46731
1.40114
1.40001
1.4
1.40001
1.40001
1.40001
1.40001
1.40001
1.40001
1.40001
2.25088
3.43309
3.59744
2.90743
1.83101
1.45143
1.40262
1.40007
1.40001
1.40001
1.40001
1.40001
1.40001
1.40001
1.40001
1.77218
2.79861
3.48236
3.29575
2.34722
1.55072
1.40629
1.40013
1.40001
1.40001
1.40001
1.40001
1.40001
1.40001
1.40001
1.38875
2.13929
3.00063
3.26799
3.00099
2.01471
1.46229
1.40155
1.40002
1.40001
1.40001
1.40001
1.40001
1.40001
1.40001
1.04301
1.66141
2.41451
3.11515
3.09844
2.58245
1.68854
1.41503
1.40022
1.40001
1.40001
1.40001
1.40001
1.40001
1.40001
0.890444
1.2574
1.91354
2.68942
3.04966
2.94648
2.16515
1.50835
1.40341
1.40004
1.40001
1.40001
1.40001
1.40001
1.40001
0.890521
1.07769
1.48885
2.21004
2.87366
2.94351
2.60238
1.7756
1.42616
1.40045
1.40001
1.40001
1.40001
1.40001
1.40001
0.906455
1.07963
1.25182
1.7376
2.4926
2.89304
2.8175
2.19443
1.54197
1.4056
1.40007
1.40001
1.40001
1.40001
1.40001
0.880182
1.05315
1.17628
1.48424
2.03869
2.69271
2.80935
2.54921
1.8046
1.43426
1.40069
1.40001
1.40001
1.40001
1.40001
0.811549
0.951849
1.07506
1.36401
1.74565
2.35147
2.74714
2.70437
2.17807
1.55026
1.40644
1.40009
1.40001
1.40001
1.40001
0.749564
0.849102
0.94524
1.22862
1.52393
2.00085
2.56326
2.69434
2.46841
1.79982
1.43739
1.40083
1.40001
1.40001
1.40001
0.705718
0.792081
0.925895
1.12495
1.32835
1.72144
2.2679
2.63506
2.59535
2.12897
1.54772
1.40669
1.40009
1.40001
1.40001
0.676567
0.766966
0.930415
1.06841
1.19687
1.51138
1.95539
2.46642
2.5867
2.38043
1.7677
1.43546
1.40083
1.40001
1.40001
0.665699
0.75736
0.907812
1.0012
1.09577
1.35547
1.69621
2.21633
2.53935
2.4996
2.06513
1.53148
1.40579
1.40008
1.40001
0.661913
0.74311
0.857596
0.926978
1.04727
1.28971
1.50211
1.91941
2.39837
2.49295
2.28937
1.72622
1.43112
1.40074
1.40001
0.663572
0.717156
0.806739
0.866441
0.990928
1.20396
1.37396
1.70493
2.16489
2.45255
2.41064
1.99176
1.51192
1.40476
1.40007
0.674328
0.676207
0.769358
0.832814
0.962975
1.10394
1.23742
1.5426
1.93798
2.34396
2.40758
2.20164
1.67603
1.42446
1.40057
0.782836
0.68126
0.739998
0.82179
0.950944
1.03596
1.13279
1.39488
1.71312
2.15412
2.38093
2.32924
1.91531
1.48956
1.4036
1.03918
0.739197
0.743052
0.802225
0.925357
0.97899
1.07964
1.30815
1.52786
1.9309
2.29802
2.32712
2.10947
1.62867
1.41966
1.23808
0.894616
0.748431
0.77197
0.873061
0.919756
1.0322
1.24032
1.39853
1.71616
2.13421
2.30964
2.24875
1.83687
1.47146
1.31137
1.09701
0.798638
0.76389
0.806071
0.874294
1.01482
1.1658
1.29621
1.57201
1.94939
2.25798
2.25516
2.02004
1.59023
1.32721
1.26418
1.03604
0.815502
0.810745
0.844899
0.973264
1.05859
1.16485
1.39817
1.67136
2.0445
2.22269
2.16792
1.94256
1.22957
1.03808
0.866773
0.834148
0.826806
0.772871
0.717822
0.66558
0.630651
0.621473
0.61486
0.606727
0.609262
0.647586
0.865377
1.15464
1.20991
1.29729
1.35862
1.34468
0.951465
0.840158
0.739317
0.732546
0.722101
0.667208
0.627692
0.602211
0.594515
0.591228
0.574102
0.576867
0.627955
0.887277
1.16347
1.30422
1.25998
1.28509
1.34774
1.34992
0.728754
0.682913
0.652553
0.653768
0.626239
0.576313
0.550766
0.543642
0.547877
0.545368
0.547001
0.614032
0.898219
1.16402
1.26225
1.32829
1.30831
1.30051
1.33195
1.34913
0.555853
0.553456
0.568616
0.571681
0.543208
0.514835
0.50979
0.509544
0.512781
0.531561
0.64276
0.942758
1.19336
1.24356
1.30503
1.34813
1.3445
1.31636
1.32075
1.3436
0.4289
0.44998
0.482722