/*--------------------------------*- C++ -*----------------------------------*\
  =========                 |
  \\      /  F ield         | OpenFOAM: The Open Source CFD Toolbox
   \\    /   O peration     | Website:  https://openfoam.org
    \\  /    A nd           | Version:  7
     \\/     M anipulation  |
\*---------------------------------------------------------------------------*/
FoamFile
{
    version     2.0;
    format      ascii;
    class       volScalarField;
    location    "5";
    object      T;
}
// * * * * * * * * * * * * * * * * * * * * * * * * * * * * * * * * * * * * * //

dimensions      [0 0 0 1 0 0 0];

internalField   nonuniform List<scalar> 
3700
(
100.55
100.732
100.807
100.872
100.994
101.09
101.097
101.086
101.081
101.101
101.116
101.088
101.073
101.101
101.133
101.134
101.126
101.092
101.046
101.045
100.22
100.294
100.394
100.41
100.554
100.729
100.728
100.639
100.612
100.63
100.596
100.46
100.414
100.453
100.549
100.627
100.614
100.523
100.409
100.418
100.099
100.137
100.137
100.084
99.9794
99.8705
99.8453
99.8671
99.8896
99.9317
99.9794
100.01
100.03
100.046
100.047
100.039
100.027
100.01
100.004
100.021
100.065
100.108
100.074
100.006
99.9052
99.8515
99.8373
99.8542
99.8716
99.9116
99.9586
99.9969
100.034
100.066
100.084
100.095
100.098
100.088
100.054
100.039
100.028
100.07
100.033
99.9783
99.9466
99.9415
99.9249
99.9321
99.9329
99.963
99.9574
99.9832
100.018
100.057
100.088
100.111
100.131
100.139
100.139
100.13
100.007
100.058
100.048
100.035
100.035
100.043
100.036
100.054
100.066
100.08
100.055
100.054
100.04
100.053
100.077
100.105
100.135
100.167
100.183
100.208
100.002
100.06
100.068
100.047
100.044
100.066
100.067
100.105
100.145
100.153
100.157
100.153
100.144
100.143
100.134
100.132
100.139
100.175
100.212
100.26
100.017
100.062
100.057
100.005
100.007
100.032
100.058
100.108
100.166
100.193
100.211
100.211
100.225
100.231
100.236
100.24
100.241
100.246
100.259
100.312
100.07
100.032
99.9667
99.9565
99.9843
100.01
100.045
100.099
100.152
100.197
100.227
100.24
100.268
100.282
100.299
100.313
100.322
100.332
100.342
100.384
100.082
99.9532
99.9096
99.954
99.9933
100.027
100.071
100.138
100.172
100.213
100.235
100.261
100.292
100.312
100.336
100.362
100.385
100.402
100.421
100.453
100.073
99.9072
99.9013
99.9835
100.042
100.105
100.17
100.23
100.27
100.315
100.336
100.357
100.367
100.374
100.383
100.404
100.437
100.464
100.507
100.498
100.066
99.8721
99.8926
99.9758
100.047
100.141
100.227
100.283
100.342
100.395
100.417
100.437
100.452
100.461
100.472
100.486
100.508
100.531
100.576
100.571
100.034
99.8168
99.85
99.9213
100.027
100.157
100.259
100.309
100.379
100.444
100.474
100.498
100.517
100.531
100.551
100.573
100.598
100.621
100.653
100.653
99.9878
99.7333
99.7865
99.9183
100.092
100.303
100.361
100.413
100.484
100.522
100.545
100.563
100.58
100.599
100.628
100.657
100.686
100.711
100.727
100.736
99.8914
99.6713
99.7309
99.9772
100.282
100.487
100.533
100.579
100.617
100.639
100.65
100.663
100.677
100.697
100.723
100.748
100.769
100.783
100.779
100.775
99.6803
99.6744
99.8267
100.246
100.499
100.593
100.635
100.674
100.703
100.721
100.734
100.751
100.772
100.796
100.814
100.823
100.821
100.815
100.79
100.745
99.3546
99.6698
100.174
100.483
100.642
100.689
100.725
100.761
100.788
100.803
100.816
100.832
100.85
100.855
100.854
100.842
100.79
100.677
100.518
100.28
99.5412
100.142
100.501
100.662
100.757
100.808
100.841
100.863
100.875
100.881
100.883
100.883
100.882
100.858
100.771
100.62
100.356
100.1
100.005
99.9978
100.125
100.522
100.726
100.831
100.887
100.907
100.923
100.923
100.918
100.908
100.895
100.843
100.731
100.476
100.15
100.011
99.9967
99.9985
99.9992
99.9998
100.694
100.834
100.91
100.946
100.962
100.958
100.956
100.93
100.845
100.764
100.577
100.235
100.031
99.9957
99.9977
99.9989
99.9998
100
100
100
100.995
100.992
100.988
100.988
100.983
100.959
100.887
100.444
99.8553
100
100
100
100
100
100
100
100
100
100
100
100.995
100.992
100.985
100.973
100.956
100.863
100.506
100.018
100
100
100
100
100
100
100
100
100
100
100
100
100.992
100.992
100.986
100.964
100.909
100.634
100.044
99.9991
100
100
100
100
100
100
100
100
100
100
100
100
100.987
100.991
100.985
100.952
100.777
100.213
99.9967
100
100
100
100
100
100
100
100
100
100
100
100
100
100.983
100.99
100.985
100.919
100.552
99.9924
100
100
100
100
100
100
100
100
100
100
100
100
100
100
100.979
100.99
100.983
100.838
100.286
100
100
100
100
100
100
100
100
100
100
100
100
100
100
100
100.977
100.99
100.979
100.703
99.9929
100
100
100
100
100
100
100
100
100
100
100
100
100
100
100
100.978
100.974
100.918
100.465
99.9997
100
100
100
100
100
100
100
100
100
100
100
100
100
100
100
101
100.962
100.816
100.157
100
100
100
100
100
100
100
100
100
100
100
100
100
100
100
100
101.015
100.942
100.671
99.9965
100
100
100
100
100
100
100
100
100
100
100
100
100
100
100
100
101.024
100.901
100.501
100
100
100
100
100
100
100
100
100
100
100
100
100
100
100
100
100
101.031
100.852
100.319
100
100
100
100
100
100
100
100
100
100
100
100
100
100
100
100
100
101.035
100.801
100.116
100
100
100
100
100
100
100
100
100
100
100
100
100
100
100
100
100
101.029
100.74
100.008
100
100
100
100
100
100
100
100
100
100
100
100
100
100
100
100
100
101.006
100.668
100
100
100
100
100
100
100
100
100
100
100
100
100
100
100
100
100
100
100.985
100.558
100
100
100
100
100
100
100
100
100
100
100
100
100
100
100
100
100
100
100.954
100.439
100
100
100
100
100
100
100
100
100
100
100
100
100
100
100
100
100
100
100.919
100.25
100
100
100
100
100
100
100
100
100
100
100
100
100
100
100
100
100
100
100.86
100.006
100
100
100
100
100
100
100
100
100
100
100
100
100
100
100
100
100
100
100.806
100
100
100
100
100
100
100
100
100
100
100
100
100
100
100
100
100
100
100
100.807
100
100
100
100
100
100
100
100
100
100
100
100
100
100
100
100
100
100
100
100.861
100.005
100
100
100
100
100
100
100
100
100
100
100
100
100
100
100
100
100
100
100.918
100.247
100
100
100
100
100
100
100
100
100
100
100
100
100
100
100
100
100
100
100.952
100.436
100
100
100
100
100
100
100
100
100
100
100
100
100
100
100
100
100
100
100.984
100.558
100
100
100
100
100
100
100
100
100
100
100
100
100
100
100
100
100
100
101.006
100.669
100
100
100
100
100
100
100
100
100
100
100
100
100
100
100
100
100
100
101.029
100.742
100.011
100
100
100
100
100
100
100
100
100
100
100
100
100
100
100
100
100
101.036
100.803
100.118
100
100
100
100
100
100
100
100
100
100
100
100
100
100
100
100
100
101.032
100.853
100.32
100
100
100
100
100
100
100
100
100
100
100
100
100
100
100
100
100
101.025
100.901
100.501
100
100
100
100
100
100
100
100
100
100
100
100
100
100
100
100
100
101.015
100.942
100.67
99.9965
100
100
100
100
100
100
100
100
100
100
100
100
100
100
100
100
101
100.962
100.816
100.155
100
100
100
100
100
100
100
100
100
100
100
100
100
100
100
100
100.978
100.973
100.916
100.464
99.9998
100
100
100
100
100
100
100
100
100
100
100
100
100
100
100
100.977
100.989
100.978
100.702
99.9927
100
100
100
100
100
100
100
100
100
100
100
100
100
100
100
100.979
100.99
100.984
100.838
100.287
100
100
100
100
100
100
100
100
100
100
100
100
100
100
100
100.982
100.99
100.985
100.92
100.556
99.9924
100
100
100
100
100
100
100
100
100
100
100
100
100
100
100.987
100.99
100.986
100.953
100.778
100.212
99.9967
100
100
100
100
100
100
100
100
100
100
100
100
100
100.992
100.992
100.986
100.964
100.908
100.632
100.043
99.9991
100
100
100
100
100
100
100
100
100
100
100
100
100.995
100.992
100.985
100.973
100.954
100.863
100.507
100.019
100
100
100
100
100
100
100
100
100
100
100
100
100.995
100.992
100.989
100.988
100.983
100.959
100.888
100.447
99.853
100
100
100
100
100
100
100
100
100
100
100
100.694
100.834
100.91
100.945
100.963
100.958
100.956
100.931
100.845
100.762
100.574
100.231
100.03
99.9957
99.9977
99.9989
99.9998
100
100
100
100.123
100.522
100.73
100.833
100.888
100.907
100.923
100.923
100.918
100.908
100.894
100.842
100.73
100.475
100.15
100.011
99.9967
99.9985
99.9992
99.9998
99.5194
100.131
100.491
100.66
100.757
100.809
100.842
100.864
100.875
100.881
100.883
100.883
100.882
100.859
100.772
100.62
100.357
100.1
100.005
99.9978
99.3475
99.6987
100.191
100.481
100.641
100.689
100.725
100.76
100.787
100.802
100.816
100.833
100.851
100.855
100.854
100.842
100.79
100.677
100.518
100.28
99.5975
99.6365
99.8281
100.238
100.494
100.588
100.632
100.672
100.702
100.72
100.733
100.751
100.773
100.796
100.814
100.823
100.821
100.815
100.79
100.745
99.6827
99.5924
99.6761
99.9415
100.276
100.487
100.532
100.58
100.619
100.64
100.651
100.664
100.679
100.699
100.724
100.748
100.769
100.783
100.779
100.775
99.7961
99.632
99.6943
99.8583
100.069
100.305
100.367
100.419
100.488
100.524
100.546
100.563
100.58
100.599
100.627
100.657
100.686
100.711
100.727
100.736
99.935
99.7108
99.7507
99.8897
100.014
100.143
100.249
100.299
100.369
100.435
100.469
100.494
100.515
100.529
100.55
100.572
100.598
100.621
100.653
100.653
100.044
99.796
99.876
99.9789
100.04
100.136
100.228
100.279
100.337
100.392
100.415
100.435
100.451
100.461
100.472
100.487
100.508
100.531
100.575
100.571
100.127
99.8664
99.8953
99.9898
100.051
100.122
100.181
100.236
100.275
100.317
100.337
100.359
100.37
100.377
100.384
100.403
100.435
100.463
100.506
100.498
100.212
99.934
99.9005
99.9533
100.02
100.055
100.092
100.15
100.176
100.21
100.229
100.257
100.287
100.308
100.332
100.36
100.385
100.402
100.422
100.454
100.256
100.042
99.9398
99.9459
99.9787
100.024
100.044
100.088
100.137
100.182
100.22
100.235
100.265
100.28
100.297
100.314
100.324
100.334
100.345
100.386
100.22
100.122
100.035
99.9776
99.9898
100.037
100.052
100.093
100.155
100.189
100.212
100.213
100.228
100.234
100.24
100.245
100.247
100.251
100.262
100.312
100.134
100.123
100.071
100.031
100.031
100.075
100.07
100.1
100.149
100.162
100.168
100.162
100.155
100.154
100.144
100.14
100.141
100.169
100.207
100.259
100.086
100.1
100.06
100.031
100.031
100.063
100.056
100.068
100.088
100.095
100.074
100.071
100.052
100.057
100.074
100.099
100.13
100.164
100.181
100.208
100.059
100.091
100.045
99.9952
99.9768
99.9822
99.9724
99.9665
99.9656
99.9847
99.9653
99.9842
100.014
100.052
100.084
100.107
100.129
100.14
100.142
100.138
100.065
100.1
100.065
99.9983
99.8994
99.8688
99.8657
99.8633
99.8804
99.9154
99.9569
99.9913
100.029
100.063
100.084
100.096
100.1
100.094
100.065
100.048
100.069
100.108
100.111
100.067
99.9684
99.875
99.8615
99.8703
99.8918
99.9291
99.9735
100.007
100.032
100.049
100.053
100.046
100.034
100.018
100.01
100.022
100.114
100.198
100.331
100.463
100.405
100.34
100.365
100.429
100.357
100.329
100.395
100.539
100.656
100.674
100.621
100.502
100.483
100.515
100.536
100.469
100.493
100.678
100.758
100.88
100.933
100.972
101.031
101.059
101.042
101.022
101.045
101.119
101.154
101.151
101.13
101.09
101.081
101.079
101.074
101.052
101.041
101.025
101.01
100.985
100.952
100.933
100.921
100.904
100.88
100.864
100.863
100.866
100.867
100.859
100.837
100.821
100.818
100.82
100.818
100.805
100.558
100.635
100.715
100.728
100.75
100.779
100.801
100.813
100.81
100.805
100.806
100.809
100.81
100.807
100.798
100.794
100.794
100.793
100.789
100.78
100.031
100.061
100.173
100.281
100.411
100.5
100.567
100.617
100.655
100.674
100.682
100.686
100.69
100.694
100.7
100.709
100.717
100.718
100.717
100.716
100.075
100.093
100.104
100.093
100.108
100.187
100.331
100.428
100.499
100.55
100.564
100.561
100.562
100.573
100.589
100.605
100.615
100.619
100.621
100.628
100.119
100.135
100.143
100.143
100.127
100.117
100.133
100.214
100.356
100.464
100.484
100.486
100.483
100.49
100.511
100.529
100.537
100.538
100.541
100.55
100.179
100.181
100.186
100.179
100.159
100.148
100.149
100.153
100.187
100.306
100.411
100.453
100.453
100.452
100.467
100.485
100.49
100.489
100.49
100.497
100.237
100.229
100.229
100.224
100.206
100.195
100.193
100.186
100.181
100.19
100.257
100.374
100.437
100.442
100.445
100.457
100.458
100.456
100.46
100.467
100.298
100.278
100.268
100.265
100.249
100.231
100.218
100.205
100.19
100.184
100.19
100.225
100.34
100.421
100.427
100.436
100.432
100.434
100.443
100.448
100.364
100.335
100.305
100.298
100.287
100.271
100.252
100.233
100.212
100.199
100.188
100.19
100.21
100.312
100.393
100.418
100.41
100.415
100.431
100.432
100.437
100.396
100.35
100.332
100.32
100.301
100.279
100.253
100.221
100.209
100.199
100.191
100.19
100.2
100.284
100.373
100.386
100.405
100.417
100.414
100.537
100.465
100.384
100.339
100.334
100.333
100.323
100.292
100.255
100.227
100.216
100.207
100.197
100.188
100.18
100.225
100.314
100.362
100.372
100.378
100.615
100.55
100.485
100.416
100.368
100.359
100.348
100.318
100.281
100.251
100.228
100.216
100.203
100.183
100.162
100.155
100.173
100.225
100.276
100.318
100.608
100.585
100.543
100.486
100.422
100.365
100.342
100.322
100.298
100.279
100.263
100.242
100.217
100.191
100.167
100.151
100.144
100.132
100.144
100.22
100.489
100.547
100.541
100.517
100.477
100.416
100.368
100.345
100.321
100.292
100.268
100.242
100.214
100.189
100.168
100.152
100.134
100.114
100.1
100.108
100.25
100.378
100.446
100.482
100.474
100.45
100.406
100.365
100.327
100.289
100.258
100.23
100.214
100.195
100.176
100.161
100.143
100.117
100.093
100.074
100.043
100.146
100.254
100.336
100.387
100.415
100.405
100.38
100.344
100.305
100.27
100.238
100.221
100.201
100.172
100.146
100.122
100.101
100.083
100.06
100.002
100.015
100.066
100.155
100.233
100.29
100.33
100.349
100.34
100.316
100.281
100.245
100.214
100.19
100.16
100.132
100.114
100.1
100.089
100.068
100
100
100.003
100.024
100.078
100.149
100.209
100.25
100.279
100.291
100.281
100.261
100.227
100.197
100.171
100.143
100.125
100.108
100.087
100.055
100
100
100
100.001
100.006
100.031
100.08
100.139
100.187
100.216
100.241
100.245
100.236
100.215
100.188
100.157
100.128
100.103
100.08
100.049
100
100
100
100
100
100.001
100.008
100.032
100.079
100.129
100.169
100.192
100.21
100.209
100.201
100.183
100.156
100.125
100.1
100.069
100
100
100
100
100
100
100
100.001
100.008
100.032
100.073
100.118
100.154
100.174
100.186
100.184
100.177
100.16
100.136
100.097
100
100
100
100
100
100
100
100
100
100.001
100.008
100.028
100.065
100.107
100.14
100.159
100.168
100.167
100.162
100.138
100
100
100
100
100
100
100
100
100
100
100
100.001
100.007
100.024
100.056
100.096
100.127
100.147
100.154
100.151
100
100
100
100
100
100
100
100
100
100
100
100
100
100.001
100.005
100.02
100.048
100.084
100.113
100.138
100
100
100
100
100
100
100
100
100
100
100
100
100
100
100
100.001
100.004
100.016
100.04
100.105
100.598
100.654
100.61
100.416
100.142
100.017
100.001
100
100
100
100
100
100
100
100
100.672
100.663
100.518
100.217
100.022
100
100
100
100
100
100
100
100
100
100
100.704
100.635
100.373
100.074
100.002
100
100
100
100
100
100
100
100
100
100
100.719
100.518
100.167
100.009
100
100
100
100
100
100
100
100
100
100
100
100.651
100.285
100.025
100
100
100
100
100
100
100
100
100
100
100
100
100.393
100.038
100
100
100
100
100
100
100
100
100
100
100
100
100
100.043
100
100
100
100
100
100
100
100
100
100
100
100
100
100
99.9995
100
100
100
100
100
100
100
100
100
100
100
100
100
100
100
100
100
100
100
100
100
100
100
100
100
100
100
100
100
100
100
100
100
100
100
100
100
100
100
100
100
100
100
100
100
100
100
100
100
100
100
100
100
100
100
100
100
100
100
100
100
100
100
100
100
100
100
100
100
100
100
100
100
100
100
100
100
100
100
100
100
100
100
100
100
100
100
100
100
100
100
100
100
100
100
100
100
100
100
100
100
100
100
100
100
100
100
100
100
100
100
100
100
100
100
100
100
100
100
100
100
100
100
100
100
100
100
100
100
100
100
100
100
100
100
100
100
100
100
100
100
100
100
100
100
100
100
100
100
100
100
100
100
100
100
100
100
100
100
100
100
100
100
100
100
100
100
100
100
100
100
100
100
100
100
100
100
100
100
100
100
100
100
100
100
100
100
100
100
100
100
100
100
100
100
100
100
100
100
100
100
100
100
100
100
100
100
100
100
100
100
100
100
100
100
100
100
100
100
100
100
100
100
100
100
100
100
100
100
100
100
100
100
100
100
100
100
100
100
100
100
100
100
100
100
100
100
100
100
100
100
100
100
100
100
100
100
100
100
100
100
100
100
100
100
100
100
100
100
100
100
100
100
100
100
100
100
100
100
100
100
100
100
100
100
100
100
100
100
100
100
100
100
100
100
100
100
100
100
100
100
100
100
100
100
100
100
100
100
100
100
100
100
100
100
100
100
100
100
100
100
100
100
100
100
100
100
100
100
100
100
100
100
100
100
100
100
100
100
100
100
100
100
100
100
100
100
100
100
100
100
100
100
100
100
100
100
100
100
100
100
100
100
100
100
100
100
100
100
100
100
100
100
100
100
100
100
100
100
100
100
100
100
100
100
100
100
100
100
100
100
100
100
100
100
100
100
100
100
100
100
100
100
100
100
100
100
100
100
100
100
100
100
100
100
100
100
100
100
100
100
100
100
100
100
100
100
100
100
100
100
100
100
100
100
100
100
100
100
100
100
100
100
100
100
100
100
100
100
100
100
100
100
100
100
100
100
100
100
100
100
100
100
100
100
100
100
100
100
100
100
100
100
100
100
100
100
100
100
100
100
100
100
100
100
100
100
100
100
100
100
100
100
100
100
100
100
100
100
100
100
100
100
100
100
100
100
100
100
100
100
100
100
100
100
100
100
100
100
100
100
100
100
100
100
100
100
100
100
100
100
100
100
100
100
100
100
100
100
100
100
100
100
100
100
100
100
100
100
100
100
100
100
100
100
100
100
100
100
100
100
100
100
100
100
100
100
100
100
100
100
100
100
100
100
100
100
100
100
100
100
100
100
100
100
100
100
100
100
100
100
100
100
100
100
100
100
100
100
100
100
100
100
100
100
100
100
100
100
100
100
100
100
100
100
100
100
100
100
100
100
100
100
100
100
100
100
100
100
100
100
100
100
100
100
100
100
100
100
100
100
100
100
100
100
100
100
100
100
100
100
100
100
100
100
100
100
100
100
100
100
100
100
100
100
100
100
100
100
100
100
100
100
100
100
100
100
100
100
100
100
100
100
100
100
100
100
100
100
100
100
100
100
100
100
100
100
100
100
100
100
100
100
100
100
100
100
100
100
100
100
100
100
100
100
100
100
100
100
100
100
100
100
100
100
100
100
100
100
100
100
100
100
100
100
100
100
100
100
100
100
100
100
100
100
100
100
100
100
100
100
100
100
100
100
100
100
100
100
100
100
100
100
100
100
100
100
100
100
100
100
100
100
100
100
100
100
100
100
100
100
100
100
100
100
100
100
100
100
100
100
100
100
100
100
100
100
100
100
100
100
100
100
100
100
100
100
100
100
100
100
100
100
100
100
100
100
100
100
100
100
100
100
100
100
100
100
100
100
100
100
100
100
100
100
100
100
100
100
100
100
100
100
100
100
100
100
100
100
100
100
100
100
100
100
100
100
100
100
100
100
100
100
100
100
100
100
100
100
100
100
100
100
100
99.9995
100
100
100
100
100
100
100
100
100
100
100
100
100
100
100.043
100
100
100
100
100
100
100
100
100
100
100
100
100
100
100.393
100.038
100
100
100
100
100
100
100
100
100
100
100
100
100
100.651
100.284
100.025
100
100
100
100
100
100
100
100
100
100
100
100
100.719
100.518
100.167
100.009
100
100
100
100
100
100
100
100
100
100
100
100.704
100.635
100.373
100.074
100.002
100
100
100
100
100
100
100
100
100
100
100.672
100.663
100.518
100.217
100.022
100
100
100
100
100
100
100
100
100
100
100.598
100.654
100.61
100.415
100.142
100.017
100.001
100
100
100
100
100
100
100
100
100.536
100.614
100.608
100.489
100.25
100.043
100.002
100
100
100
100
100
100
100
100
100.467
100.55
100.585
100.547
100.378
100.146
100.015
100
100
100
100
100
100
100
100
100.388
100.489
100.541
100.541
100.446
100.254
100.066
100.003
100
100
100
100
100
100
100
100.336
100.418
100.487
100.516
100.482
100.336
100.155
100.025
100.001
100
100
100
100
100
100
100.328
100.364
100.424
100.477
100.474
100.388
100.233
100.078
100.006
100
100
100
100
100
100
100.329
100.355
100.368
100.415
100.45
100.415
100.29
100.149
100.031
100.001
100
100
100
100
100
100.32
100.342
100.345
100.372
100.405
100.405
100.33
100.209
100.08
100.008
100
100
100
100
100
100.296
100.313
100.32
100.348
100.364
100.379
100.348
100.25
100.139
100.032
100.001
100
100
100
100
100.265
100.28
100.287
100.319
100.329
100.343
100.339
100.279
100.187
100.079
100.008
100
100
100
100
100.235
100.25
100.272
100.289
100.291
100.305
100.316
100.291
100.216
100.129
100.032
100.001
100
100
100
100.216
100.234
100.263
100.266
100.258
100.271
100.282
100.281
100.241
100.169
100.073
100.008
100
100
100
100.206
100.224
100.246
100.239
100.229
100.24
100.246
100.261
100.245
100.192
100.118
100.028
100.001
100
100
100.198
100.21
100.223
100.213
100.212
100.222
100.214
100.227
100.236
100.21
100.154
100.065
100.007
100
100
100.187
100.188
100.197
100.19
100.193
100.2
100.189
100.197
100.215
100.209
100.174
100.107
100.024
100.001
100
100.178
100.161
100.173
100.169
100.176
100.171
100.159
100.171
100.188
100.201
100.186
100.14
100.056
100.005
100
100.222
100.157
100.155
100.153
100.161
100.145
100.132
100.144
100.158
100.183
100.184
100.159
100.096
100.02
100.001
100.312
100.174
100.145
100.134
100.144
100.122
100.114
100.125
100.127
100.156
100.177
100.168
100.127
100.048
100.004
100.362
100.223
100.131
100.115
100.118
100.101
100.098
100.107
100.103
100.125
100.16
100.167
100.147
100.084
100.016
100.373
100.275
100.143
100.1
100.094
100.082
100.088
100.087
100.08
100.1
100.136
100.162
100.154
100.113
100.04
100.379
100.318
100.219
100.108
100.074
100.06
100.067
100.055
100.049
100.069
100.097
100.138
100.151
100.138
100.105
100.438
100.396
100.346
100.33
100.321
100.301
100.282
100.257
100.228
100.211
100.2
100.192
100.186
100.196
100.279
100.363
100.382
100.406
100.418
100.414
100.367
100.334
100.3
100.296
100.29
100.271
100.253
100.232
100.214
100.203
100.188
100.185
100.203
100.304
100.384
100.42
100.411
100.418
100.432
100.432
100.301
100.277
100.262
100.263
100.253
100.236
100.219
100.203
100.195
100.186
100.185
100.216
100.33
100.403
100.426
100.444
100.439
100.437
100.444
100.447
100.241
100.225
100.227
100.226
100.214
100.203
100.195
100.186
100.182
100.189
100.247
100.364
100.429
100.439
100.455
100.465
100.465
100.459
100.46
100.466
100.183
100.181
100.185
100.181
100.163
100.156
100.155
100.156
100.188
100.299
100.401
100.452
100.452
100.461
100.479
100.489
100.491
100.488
100.488
100.495
100.122
100.135
100.14
100.142
100.127
100.118
100.133
100.21
100.356
100.464
100.48
100.484
100.488
100.502
100.52
100.532
100.537
100.537
100.538
100.547
100.076
100.091
100.106
100.097
100.12
100.196
100.327
100.42
100.499
100.556
100.561
100.557
100.563
100.579
100.596
100.607
100.613
100.617
100.619
100.628
100.03
100.059
100.165
100.3
100.432
100.508
100.556
100.603
100.653
100.679
100.679
100.679
100.684
100.695
100.703
100.708
100.712
100.713
100.713
100.715
100.62
100.657
100.686
100.735
100.774
100.786
100.789
100.799
100.808
100.807
100.805
100.804
100.805
100.804
100.796
100.788
100.787
100.788
100.788
100.78
101.056
101.038
101.003
100.985
100.961
100.934
100.915
100.904
100.885
100.869
100.863
100.863
100.863
100.854
100.833
100.819
100.817
100.818
100.818
100.804
)
;

boundaryField
{
    inlet
    {
        type            fixedValue;
        value           uniform 100;
    }
    outlet
    {
        type            inletOutlet;
        inletValue      uniform 100;
        value           nonuniform List<scalar> 
50
(
100.378
100.318
100.22
100.108
100.074
100.06
100.068
100.055
100.049
100.069
100.097
100.138
100.151
100.138
100.105
100.805
100.78
100.716
100.628
100.55
100.497
100.467
100.448
100.432
100.414
100.414
100.432
100.447
100.466
100.495
100.547
100.628
100.715
100.78
100.804
100.379
100.318
100.219
100.108
100.074
100.06
100.067
100.055
100.049
100.069
100.097
100.138
100.151
100.138
100.105
)
;
    }
    airfoil
    {
        type            zeroGradient;
    }
    top
    {
        type            symmetryPlane;
    }
    bottom
    {
        type            symmetryPlane;
    }
    defaultFaces
    {
        type            empty;
    }
}


// ************************************************************************* //
