/*--------------------------------*- C++ -*----------------------------------*\
  =========                 |
  \\      /  F ield         | OpenFOAM: The Open Source CFD Toolbox
   \\    /   O peration     | Website:  https://openfoam.org
    \\  /    A nd           | Version:  7
     \\/     M anipulation  |
\*---------------------------------------------------------------------------*/
FoamFile
{
    version     2.0;
    format      ascii;
    class       volVectorField;
    location    "5";
    object      U;
}
// * * * * * * * * * * * * * * * * * * * * * * * * * * * * * * * * * * * * * //

dimensions      [0 1 -1 0 0 0 0];

internalField   nonuniform List<vector> 
3700
(
(1.34671 -0.39662 0)
(1.29776 -0.541008 0)
(1.38016 -0.328046 0)
(1.45321 -0.371646 0)
(1.46283 -0.205568 0)
(1.5019 -0.0839965 0)
(1.52619 -0.0810531 0)
(1.53438 -0.148289 0)
(1.50936 -0.185934 0)
(1.50359 -0.126122 0)
(1.56554 -0.155391 0)
(1.61136 -0.241542 0)
(1.67195 -0.315154 0)
(1.65761 -0.294426 0)
(1.63073 -0.220315 0)
(1.65678 -0.102043 0)
(1.72237 -0.0846503 0)
(1.75431 -0.145174 0)
(1.82499 -0.267839 0)
(1.83673 -0.238172 0)
(1.88077 -1.23494 0)
(1.76144 -1.18129 0)
(1.8063 -1.08371 0)
(1.88752 -1.16878 0)
(1.90286 -1.14431 0)
(1.82343 -1.02295 0)
(1.81096 -1.019 0)
(1.80471 -1.27078 0)
(1.78122 -1.39462 0)
(1.79918 -1.29156 0)
(1.88476 -1.40404 0)
(2.01424 -1.49431 0)
(2.05659 -1.49825 0)
(2.06278 -1.40324 0)
(2.04389 -1.19751 0)
(2.10549 -0.98773 0)
(2.16848 -0.917648 0)
(2.32019 -1.03111 0)
(2.34902 -1.17759 0)
(2.32518 -1.25364 0)
(1.7412 -1.29128 0)
(1.80312 -1.33161 0)
(1.87899 -1.37939 0)
(1.93473 -1.53782 0)
(1.93762 -1.94534 0)
(1.93275 -2.19459 0)
(1.99646 -2.22278 0)
(2.00368 -2.24073 0)
(2.04023 -2.24431 0)
(2.1201 -2.1368 0)
(2.10705 -2.17203 0)
(2.17693 -2.02668 0)
(2.21963 -1.94675 0)
(2.287 -1.88307 0)
(2.38154 -1.80411 0)
(2.51422 -1.74777 0)
(2.62332 -1.68404 0)
(2.69255 -1.61141 0)
(2.72393 -1.56441 0)
(2.69139 -1.57039 0)
(1.5988 -1.33074 0)
(1.68167 -1.47508 0)
(1.69983 -1.73562 0)
(1.70617 -1.9778 0)
(1.73876 -2.15776 0)
(1.841 -2.25279 0)
(1.95223 -2.17177 0)
(2.02996 -2.16876 0)
(2.14043 -2.12252 0)
(2.36108 -1.96844 0)
(2.37187 -1.98201 0)
(2.39441 -1.91196 0)
(2.37644 -1.87039 0)
(2.36635 -1.8239 0)
(2.41506 -1.71545 0)
(2.51462 -1.62695 0)
(2.59557 -1.5036 0)
(2.6997 -1.40293 0)
(2.78554 -1.24015 0)
(2.85202 -1.16678 0)
(1.38312 -1.29329 0)
(1.48882 -1.575 0)
(1.58472 -1.86875 0)
(1.59571 -2.09551 0)
(1.58334 -2.22432 0)
(1.66673 -2.25681 0)
(1.89277 -2.01829 0)
(2.02309 -1.9965 0)
(2.18898 -1.86663 0)
(2.38258 -1.855 0)
(2.51073 -1.65587 0)
(2.5728 -1.6124 0)
(2.60781 -1.55851 0)
(2.55371 -1.60703 0)
(2.55645 -1.56048 0)
(2.56285 -1.53735 0)
(2.57939 -1.40513 0)
(2.63528 -1.32668 0)
(2.69873 -1.24608 0)
(2.81152 -1.00283 0)
(1.23806 -1.25826 0)
(1.39352 -1.69863 0)
(1.55642 -1.99861 0)
(1.60503 -2.19269 0)
(1.76139 -2.27308 0)
(1.85146 -2.25414 0)
(1.95275 -2.02236 0)
(1.98587 -1.97344 0)
(2.09337 -1.85316 0)
(2.28517 -1.75682 0)
(2.42704 -1.58574 0)
(2.60666 -1.52445 0)
(2.7002 -1.31401 0)
(2.73544 -1.26224 0)
(2.73939 -1.18249 0)
(2.71336 -1.22953 0)
(2.69651 -1.16574 0)
(2.67784 -1.09942 0)
(2.67706 -1.14192 0)
(2.72091 -0.957227 0)
(1.17647 -1.29203 0)
(1.37275 -1.82727 0)
(1.63328 -2.08011 0)
(1.78567 -2.2535 0)
(2.07716 -2.19366 0)
(2.07857 -2.25971 0)
(2.15532 -1.97356 0)
(2.11367 -1.93346 0)
(2.14695 -1.82965 0)
(2.23905 -1.75283 0)
(2.35966 -1.55531 0)
(2.52696 -1.47086 0)
(2.59667 -1.262 0)
(2.74815 -1.17681 0)
(2.77552 -0.925653 0)
(2.79781 -0.802276 0)
(2.7739 -0.745117 0)
(2.76816 -0.670327 0)
(2.72574 -0.799841 0)
(2.70437 -0.71819 0)
(1.1819 -1.3643 0)
(1.46473 -1.94636 0)
(1.80799 -2.20216 0)
(2.05898 -2.26975 0)
(2.27808 -2.12173 0)
(2.3543 -2.10461 0)
(2.41006 -1.77865 0)
(2.39969 -1.70962 0)
(2.39106 -1.73028 0)
(2.39801 -1.6601 0)
(2.44745 -1.51175 0)
(2.52608 -1.3864 0)
(2.56577 -1.20189 0)
(2.65974 -1.11951 0)
(2.6946 -0.907405 0)
(2.75977 -0.759001 0)
(2.7979 -0.601932 0)
(2.80872 -0.395896 0)
(2.75624 -0.400142 0)
(2.71001 -0.403863 0)
(1.31952 -1.58547 0)
(1.63703 -2.12554 0)
(1.95217 -2.31028 0)
(2.1154 -2.25578 0)
(2.33608 -2.09689 0)
(2.46522 -1.9622 0)
(2.58762 -1.66471 0)
(2.62954 -1.45923 0)
(2.63551 -1.43274 0)
(2.68708 -1.28507 0)
(2.66196 -1.31499 0)
(2.68533 -1.10998 0)
(2.65768 -1.01832 0)
(2.6793 -0.91895 0)
(2.68395 -0.77646 0)
(2.69813 -0.660037 0)
(2.73862 -0.559109 0)
(2.74877 -0.369066 0)
(2.73348 -0.199049 0)
(2.68268 -0.1103 0)
(1.48492 -1.76119 0)
(1.77643 -2.23449 0)
(1.86527 -2.25757 0)
(1.94728 -2.17874 0)
(2.04964 -2.012 0)
(2.23399 -1.71785 0)
(2.38452 -1.64831 0)
(2.55537 -1.40098 0)
(2.69165 -1.29235 0)
(2.7304 -0.922955 0)
(2.76526 -0.848426 0)
(2.76689 -0.621848 0)
(2.75868 -0.593032 0)
(2.75458 -0.483555 0)
(2.73842 -0.41374 0)
(2.70536 -0.360578 0)
(2.68787 -0.334116 0)
(2.69334 -0.295463 0)
(2.65 -0.118863 0)
(2.61526 0.0322671 0)
(1.52599 -1.80935 0)
(1.69904 -2.2483 0)
(1.73767 -2.19815 0)
(1.80521 -2.05169 0)
(1.9328 -1.89811 0)
(2.10904 -1.57158 0)
(2.20674 -1.55218 0)
(2.3433 -1.36928 0)
(2.43524 -1.24998 0)
(2.53374 -0.997066 0)
(2.64236 -0.773941 0)
(2.67863 -0.508444 0)
(2.70777 -0.325028 0)
(2.71115 -0.149057 0)
(2.68259 0.00261807 0)
(2.65781 0.0445835 0)
(2.63107 0.0809849 0)
(2.62352 -0.0161582 0)
(2.55815 0.0889882 0)
(2.58669 0.05463 0)
(1.45722 -1.77187 0)
(1.59126 -2.14553 0)
(1.67304 -2.01949 0)
(1.83913 -1.74271 0)
(1.95522 -1.71795 0)
(2.14491 -1.43511 0)
(2.21686 -1.45164 0)
(2.35416 -1.25731 0)
(2.43157 -1.03087 0)
(2.47485 -0.887213 0)
(2.54573 -0.6871 0)
(2.58255 -0.473755 0)
(2.61213 -0.282163 0)
(2.6424 -0.120544 0)
(2.59105 0.111676 0)
(2.57716 0.222144 0)
(2.51874 0.376353 0)
(2.48947 0.337641 0)
(2.44356 0.360124 0)
(2.47336 0.284026 0)
(1.26116 -1.60996 0)
(1.62653 -1.8868 0)
(1.83175 -1.76429 0)
(1.89703 -1.25747 0)
(1.92995 -1.37102 0)
(2.19474 -1.16297 0)
(2.41468 -1.12062 0)
(2.56766 -0.868229 0)
(2.59191 -0.499875 0)
(2.60028 -0.43107 0)
(2.59878 -0.235171 0)
(2.58382 -0.0929766 0)
(2.56009 0.0271124 0)
(2.54501 0.116068 0)
(2.49005 0.247914 0)
(2.48034 0.304405 0)
(2.41273 0.440402 0)
(2.35422 0.545369 0)
(2.29701 0.608424 0)
(2.30687 0.558291 0)
(1.04478 -1.44583 0)
(1.77099 -1.71114 0)
(2.05795 -1.52648 0)
(1.96318 -1.00823 0)
(2.09919 -1.00413 0)
(2.49486 -0.81043 0)
(2.65888 -0.474113 0)
(2.65584 -0.1838 0)
(2.62516 -0.0662216 0)
(2.58828 0.0940443 0)
(2.5521 0.244449 0)
(2.49092 0.38844 0)
(2.44657 0.471274 0)
(2.3942 0.546276 0)
(2.34823 0.577062 0)
(2.3158 0.583338 0)
(2.27082 0.618881 0)
(2.23325 0.668883 0)
(2.16631 0.763938 0)
(2.13035 0.798897 0)
(0.929553 -1.36205 0)
(1.74867 -1.77543 0)
(2.0506 -1.21722 0)
(2.32951 -0.720429 0)
(2.57476 -0.394385 0)
(2.52877 -0.613657 0)
(2.55384 -0.435238 0)
(2.52322 -0.0906269 0)
(2.49051 0.0350817 0)
(2.4713 0.224341 0)
(2.42528 0.409757 0)
(2.33965 0.588474 0)
(2.28363 0.69367 0)
(2.20554 0.798667 0)
(2.1544 0.835981 0)
(2.11109 0.853647 0)
(2.06885 0.894596 0)
(2.06746 0.890237 0)
(2.04208 0.921731 0)
(2.06108 0.950313 0)
(1.47443 -1.31776 0)
(1.51915 -1.62144 0)
(2.29242 -0.395515 0)
(2.38564 -0.600405 0)
(2.37972 -0.466724 0)
(2.42927 -0.319634 0)
(2.42001 0.00471127 0)
(2.39083 0.206074 0)
(2.33437 0.381062 0)
(2.31429 0.538291 0)
(2.22011 0.703412 0)
(2.14228 0.818322 0)
(2.08563 0.885527 0)
(2.0271 0.948329 0)
(1.98791 0.965792 0)
(1.95295 0.991402 0)
(1.95312 1.01889 0)
(1.96821 0.998263 0)
(1.99433 0.996975 0)
(2.07191 0.978134 0)
(1.50417 -0.550502 0)
(2.02951 -0.975152 0)
(2.35325 -0.118581 0)
(2.30232 -0.125069 0)
(2.32197 -0.013236 0)
(2.3391 0.287321 0)
(2.26665 0.558846 0)
(2.1926 0.709238 0)
(2.13336 0.790427 0)
(2.0801 0.91847 0)
(1.9685 1.02097 0)
(1.9102 1.06978 0)
(1.88124 1.08239 0)
(1.86879 1.08687 0)
(1.87477 1.05299 0)
(1.8997 1.04526 0)
(1.96285 1.01934 0)
(2.16225 0.903684 0)
(2.37871 0.79425 0)
(2.77771 0.442935 0)
(1.09801 -0.0310569 0)
(1.81394 -0.179378 0)
(2.23578 0.0491171 0)
(2.22603 0.482828 0)
(2.18935 0.667208 0)
(2.12298 0.7896 0)
(2.04724 0.890719 0)
(1.96834 0.969864 0)
(1.91246 1.0377 0)
(1.85057 1.12846 0)
(1.78702 1.1629 0)
(1.78674 1.15523 0)
(1.80725 1.13257 0)
(1.84977 1.08856 0)
(2.04161 0.951657 0)
(2.26176 0.828179 0)
(2.66642 0.502301 0)
(3.03736 0.0904209 0)
(3.0555 -0.024129 0)
(3.00403 -0.00467413 0)
(1.03462 0.0003282 0)
(1.91987 0.815596 0)
(2.10411 0.879892 0)
(1.98639 0.994353 0)
(1.96078 0.980993 0)
(1.86678 1.0793 0)
(1.79224 1.13486 0)
(1.76557 1.14684 0)
(1.76344 1.16324 0)
(1.74172 1.20304 0)
(1.71778 1.19688 0)
(1.85635 1.07096 0)
(2.08834 0.888429 0)
(2.49394 0.584789 0)
(2.98311 0.141719 0)
(3.07352 -0.0282028 0)
(3.00815 -0.00761449 0)
(3.00292 -0.00380577 0)
(3.00122 -0.00218342 0)
(3.00008 -0.00048604 0)
(1.16802 0.760145 0)
(1.82543 1.16119 0)
(1.84299 1.152 0)
(1.73703 1.19641 0)
(1.71182 1.197 0)
(1.66168 1.24549 0)
(1.66179 1.21641 0)
(1.73185 1.16944 0)
(1.76828 1.2304 0)
(1.79997 1.1398 0)
(2.27347 0.736068 0)
(2.85757 0.207412 0)
(3.0993 -0.0296917 0)
(3.02171 -0.0129821 0)
(3.00439 -0.00545265 0)
(3.00175 -0.00293744 0)
(3.00005 -0.00056228 0)
(2.99998 -2.16139e-05 0)
(2.99999 1.42981e-05 0)
(3 5.89871e-06 0)
(1.58254 1.25938 0)
(1.58549 1.26714 0)
(1.59004 1.27526 0)
(1.59747 1.26781 0)
(1.61178 1.25398 0)
(1.60167 1.26949 0)
(1.90666 1.17265 0)
(2.97438 0.373767 0)
(3.31465 -0.563201 0)
(3 8.02843e-11 0)
(3 -6.73958e-11 0)
(3 6.12819e-11 0)
(3 6.17665e-14 0)
(3 -3.5373e-13 0)
(3 -1.35593e-14 0)
(3 7.93156e-15 0)
(3 -6.9826e-15 0)
(3 -1.82912e-15 0)
(3 7.22718e-16 0)
(3 1.42388e-15 0)
(1.58529 1.25325 0)
(1.59707 1.25892 0)
(1.6042 1.26892 0)
(1.60486 1.27913 0)
(1.64565 1.26001 0)
(1.70043 1.23104 0)
(2.26212 0.7414 0)
(2.99422 0.0190425 0)
(3 5.77238e-08 0)
(3 7.79142e-11 0)
(3 1.15114e-12 0)
(3 -3.496e-13 0)
(3 -1.38194e-15 0)
(3 -1.05688e-15 0)
(3 -1.17811e-15 0)
(3 -1.19547e-15 0)
(3 2.48462e-16 0)
(3 1.48066e-15 0)
(3 3.29044e-15 0)
(3 3.58141e-15 0)
(1.58771 1.24579 0)
(1.60794 1.25319 0)
(1.6162 1.25587 0)
(1.60687 1.28083 0)
(1.68189 1.22521 0)
(2.19181 0.793901 0)
(2.99049 0.000658402 0)
(3.00056 -0.00100394 0)
(3 4.02131e-07 0)
(3 8.01906e-11 0)
(3 1.93581e-13 0)
(3 -2.69519e-15 0)
(3 -2.84946e-15 0)
(3 -2.02795e-15 0)
(3 3.56859e-16 0)
(3 7.57566e-16 0)
(3 9.22459e-16 0)
(3 1.20848e-15 0)
(3 2.26817e-15 0)
(3 3.58562e-15 0)
(1.58378 1.25084 0)
(1.60587 1.25294 0)
(1.62417 1.25199 0)
(1.64438 1.25906 0)
(1.90933 1.05246 0)
(2.78565 0.186245 0)
(3.00447 -0.00192242 0)
(2.99991 8.4808e-05 0)
(3 -6.69568e-07 0)
(3 7.81594e-10 0)
(3 1.33485e-13 0)
(3 -3.8321e-15 0)
(3 -3.37479e-15 0)
(3 -2.50976e-15 0)
(3 3.88483e-16 0)
(3 -1.08597e-16 0)
(3 1.04313e-15 0)
(3 7.13976e-16 0)
(3 1.4833e-15 0)
(3 2.6273e-15 0)
(1.58226 1.26116 0)
(1.59363 1.25945 0)
(1.63039 1.25902 0)
(1.71539 1.21549 0)
(2.35209 0.640245 0)
(3.01928 -0.0162907 0)
(2.99976 0.000172893 0)
(3 -4.22662e-06 0)
(3 8.12478e-08 0)
(3 -8.61564e-10 0)
(3 2.20978e-13 0)
(3 -3.65069e-15 0)
(3 -3.35109e-15 0)
(3 -2.31232e-15 0)
(3 -1.13071e-16 0)
(3 -8.64988e-16 0)
(3 -5.13887e-16 0)
(3 4.00421e-16 0)
(3 3.15845e-16 0)
(3 1.62977e-15 0)
(1.58091 1.27599 0)
(1.57856 1.27588 0)
(1.64172 1.26259 0)
(1.75945 1.17581 0)
(2.6757 0.279314 0)
(3 -5.80919e-10 0)
(3 1.38704e-08 0)
(3 -1.25187e-08 0)
(3 5.35862e-10 0)
(3 2.97217e-12 0)
(3 -1.10044e-13 0)
(3 -3.38273e-15 0)
(3 -1.71071e-15 0)
(3 -1.90747e-15 0)
(3 -6.61654e-16 0)
(3 -1.16943e-15 0)
(3 -9.30515e-16 0)
(3 4.35977e-17 0)
(3 1.35766e-17 0)
(3 6.63694e-16 0)
(1.5791 1.29754 0)
(1.56041 1.30184 0)
(1.67488 1.24517 0)
(2.18892 0.833159 0)
(3.02222 -0.022243 0)
(3 -2.52554e-12 0)
(3 1.3747e-12 0)
(3 7.72332e-12 0)
(3 -1.74639e-12 0)
(3 1.46356e-15 0)
(3 -1.62526e-15 0)
(3 -3.02064e-15 0)
(3 1.85591e-16 0)
(3 -1.91668e-15 0)
(3 -2.77049e-15 0)
(3 -2.77461e-15 0)
(3 -1.89177e-15 0)
(3 -8.03301e-16 0)
(3 -1.04168e-15 0)
(3 -9.98507e-16 0)
(1.59261 1.32816 0)
(1.49506 1.33462 0)
(1.75896 1.17931 0)
(2.41504 0.54772 0)
(3 -1.30763e-06 0)
(3 2.23061e-12 0)
(3 -7.04307e-14 0)
(3 6.1847e-14 0)
(3 1.36684e-15 0)
(3 -2.28219e-15 0)
(3 -2.82841e-15 0)
(3 -3.01024e-15 0)
(3 -1.83775e-15 0)
(3 -2.85298e-15 0)
(3 -3.99051e-15 0)
(3 -3.26896e-15 0)
(3 -1.56065e-15 0)
(3 -1.5928e-15 0)
(3 -2.41073e-15 0)
(3 -1.63175e-15 0)
(1.59117 1.30712 0)
(1.46812 1.36448 0)
(1.91932 1.04236 0)
(2.8501 0.125603 0)
(3 -1.53481e-08 0)
(3 9.52802e-12 0)
(3 1.33027e-14 0)
(3 -1.11657e-15 0)
(3 -1.15787e-15 0)
(3 -1.67589e-15 0)
(3 -2.31942e-15 0)
(3 -3.21773e-15 0)
(3 -2.80443e-15 0)
(3 -3.97189e-15 0)
(3 -4.35278e-15 0)
(3 -3.20805e-15 0)
(3 -1.19842e-15 0)
(3 -2.24898e-15 0)
(3 -3.22693e-15 0)
(3 -3.18087e-15 0)
(1.60483 1.29196 0)
(1.48025 1.37051 0)
(2.19291 0.800471 0)
(3.01055 -0.00879457 0)
(3 2.44846e-08 0)
(3 -2.87353e-12 0)
(3 -2.81829e-14 0)
(3 -1.90633e-16 0)
(3 -8.77044e-16 0)
(3 -1.18278e-15 0)
(3 -1.72581e-15 0)
(3 -2.25748e-15 0)
(3 -2.24766e-15 0)
(3 -3.36249e-15 0)
(3 -3.71316e-15 0)
(3 -2.96596e-15 0)
(3 -1.91416e-15 0)
(3 -2.96933e-15 0)
(3 -3.52838e-15 0)
(3 -3.66012e-15 0)
(1.62158 1.27792 0)
(1.5689 1.31888 0)
(2.41623 0.543744 0)
(3 -2.07688e-12 0)
(3 -2.41244e-11 0)
(3 4.35171e-14 0)
(3 3.22673e-16 0)
(3 -4.20641e-16 0)
(3 -4.35605e-16 0)
(3 -6.92574e-16 0)
(3 -8.54916e-16 0)
(3 -1.27193e-15 0)
(3 -1.26332e-15 0)
(3 -2.11368e-15 0)
(3 -2.32396e-15 0)
(3 -2.12222e-15 0)
(3 -1.72814e-15 0)
(3 -1.57792e-15 0)
(3 -2.74369e-15 0)
(3 -2.95976e-15 0)
(1.63789 1.25947 0)
(1.62509 1.25183 0)
(2.65092 0.293561 0)
(3 2.55526e-13 0)
(3 8.35529e-16 0)
(3 9.35748e-16 0)
(3 9.03884e-16 0)
(3 5.60475e-16 0)
(3 1.0939e-16 0)
(3 2.15332e-16 0)
(3 -1.54454e-16 0)
(3 -5.62527e-16 0)
(3 -7.20602e-16 0)
(3 -1.13084e-15 0)
(3 -1.40415e-15 0)
(3 -1.27746e-15 0)
(3 -1.38566e-15 0)
(3 -1.27815e-15 0)
(3 -6.14587e-16 0)
(3 -1.39566e-16 0)
(1.65272 1.24319 0)
(1.82961 1.10308 0)
(2.87209 0.0965442 0)
(3 -3.68794e-14 0)
(3 1.19721e-15 0)
(3 3.75965e-16 0)
(3 6.5228e-16 0)
(3 2.73987e-16 0)
(3 1.51337e-16 0)
(3 3.08544e-16 0)
(3 1.9304e-16 0)
(3 -2.09056e-16 0)
(3 -7.43593e-16 0)
(3 -1.21119e-15 0)
(3 -1.68902e-15 0)
(3 -1.73036e-15 0)
(3 -1.54741e-15 0)
(3 -1.3605e-15 0)
(3 -1.08739e-15 0)
(3 -7.00137e-16 0)
(1.66996 1.20156 0)
(1.88961 0.977874 0)
(2.98846 0.00904824 0)
(3 1.44099e-15 0)
(3 9.17083e-16 0)
(3 -2.35178e-16 0)
(3 -3.62192e-16 0)
(3 -4.02165e-16 0)
(3 -2.72909e-16 0)
(3 -9.92931e-18 0)
(3 8.44847e-17 0)
(3 -1.20768e-16 0)
(3 -5.71447e-16 0)
(3 -8.34848e-16 0)
(3 -1.11146e-15 0)
(3 -1.48409e-15 0)
(3 -1.55571e-15 0)
(3 -1.31206e-15 0)
(3 -1.13005e-15 0)
(3 -6.66815e-16 0)
(1.70599 1.16682 0)
(2.05732 0.818335 0)
(3 1.58503e-15 0)
(3 2.18637e-15 0)
(3 1.77646e-15 0)
(3 2.13557e-16 0)
(3 -6.64674e-16 0)
(3 -4.62609e-16 0)
(3 -3.27049e-16 0)
(3 2.30143e-16 0)
(3 7.20983e-16 0)
(3 4.07442e-16 0)
(3 -2.07897e-17 0)
(3 -2.51981e-16 0)
(3 -7.35501e-16 0)
(3 -1.5817e-15 0)
(3 -1.78416e-15 0)
(3 -2.21922e-15 0)
(3 -2.26581e-15 0)
(3 -2.19627e-15 0)
(1.78154 1.10159 0)
(2.24169 0.649356 0)
(3 2.60012e-15 0)
(3 2.52669e-15 0)
(3 2.78304e-15 0)
(3 1.98015e-15 0)
(3 1.35063e-15 0)
(3 1.27253e-15 0)
(3 1.87924e-15 0)
(3 2.43252e-15 0)
(3 2.45905e-15 0)
(3 2.55634e-15 0)
(3 2.1797e-15 0)
(3 1.3873e-15 0)
(3 6.76031e-16 0)
(3 3.73377e-16 0)
(3 1.11871e-16 0)
(3 -4.80617e-16 0)
(3 -1.28851e-15 0)
(3 -2.02365e-15 0)
(1.80781 1.00679 0)
(2.43972 0.447462 0)
(3 1.2281e-15 0)
(3 2.74863e-15 0)
(3 2.79572e-15 0)
(3 2.36648e-15 0)
(3 2.33114e-15 0)
(3 3.03037e-15 0)
(3 2.634e-15 0)
(3 1.72397e-15 0)
(3 9.49324e-16 0)
(3 7.49292e-16 0)
(3 9.70766e-16 0)
(3 8.4896e-16 0)
(3 5.13005e-16 0)
(3 1.84666e-16 0)
(3 1.31825e-16 0)
(3 1.60367e-16 0)
(3 8.94326e-17 0)
(3 -5.3668e-16 0)
(1.9269 0.882488 0)
(2.69299 0.221613 0)
(3 3.22414e-15 0)
(3 3.78502e-15 0)
(3 4.91345e-15 0)
(3 4.78802e-15 0)
(3 3.45691e-15 0)
(3 2.74624e-15 0)
(3 1.28422e-15 0)
(3 3.26501e-16 0)
(3 3.07208e-16 0)
(3 4.05832e-16 0)
(3 8.7557e-16 0)
(3 1.07401e-15 0)
(3 9.85027e-16 0)
(3 7.40473e-16 0)
(3 6.50419e-16 0)
(3 6.05247e-16 0)
(3 6.38464e-16 0)
(3 5.66763e-16 0)
(2.10693 0.663892 0)
(2.98987 0.000145663 0)
(3 4.50644e-15 0)
(3 2.32279e-15 0)
(3 1.95948e-15 0)
(3 1.53563e-15 0)
(3 8.22238e-16 0)
(3 3.55378e-16 0)
(3 5.9731e-16 0)
(3 4.52749e-16 0)
(3 5.2501e-16 0)
(3 5.89449e-16 0)
(3 1.57706e-16 0)
(3 1.10343e-16 0)
(3 4.83915e-17 0)
(3 4.81424e-17 0)
(3 3.27206e-17 0)
(3 1.97437e-16 0)
(3 1.63265e-16 0)
(3 4.73146e-16 0)
(1.99463 0.371276 0)
(2.99992 -9.12908e-06 0)
(3 2.73914e-15 0)
(3 2.00714e-15 0)
(3 2.3803e-15 0)
(3 2.28773e-15 0)
(3 1.97752e-15 0)
(3 1.86246e-15 0)
(3 1.92813e-15 0)
(3 1.97862e-15 0)
(3 2.06359e-15 0)
(3 1.99947e-15 0)
(3 2.13912e-15 0)
(3 2.22813e-15 0)
(3 2.14875e-15 0)
(3 1.91772e-15 0)
(3 1.78544e-15 0)
(3 1.72388e-15 0)
(3 1.75317e-15 0)
(3 1.64805e-15 0)
(1.99391 -0.371439 0)
(2.99992 9.63296e-06 0)
(3 4.07558e-15 0)
(3 3.4896e-15 0)
(3 2.38028e-15 0)
(3 2.25517e-15 0)
(3 2.58111e-15 0)
(3 3.18235e-15 0)
(3 4.01999e-15 0)
(3 3.64452e-15 0)
(3 3.21169e-15 0)
(3 3.33696e-15 0)
(3 3.91496e-15 0)
(3 4.01665e-15 0)
(3 3.92071e-15 0)
(3 3.97265e-15 0)
(3 3.9801e-15 0)
(3 3.96871e-15 0)
(3 4.1176e-15 0)
(3 4.07138e-15 0)
(2.10054 -0.659895 0)
(2.99007 -0.000134299 0)
(3 3.8525e-15 0)
(3 3.93527e-15 0)
(3 4.12029e-15 0)
(3 4.21287e-15 0)
(3 4.36821e-15 0)
(3 4.3827e-15 0)
(3 4.45195e-15 0)
(3 4.48523e-15 0)
(3 4.46932e-15 0)
(3 4.73223e-15 0)
(3 4.83793e-15 0)
(3 4.65412e-15 0)
(3 4.2382e-15 0)
(3 3.84355e-15 0)
(3 3.46623e-15 0)
(3 2.88569e-15 0)
(3 2.43588e-15 0)
(3 1.91085e-15 0)
(1.92879 -0.880816 0)
(2.69667 -0.219177 0)
(3 3.25768e-15 0)
(3 3.562e-15 0)
(3 4.73611e-15 0)
(3 4.99968e-15 0)
(3 4.56538e-15 0)
(3 3.70718e-15 0)
(3 3.21719e-15 0)
(3 2.63979e-15 0)
(3 2.69513e-15 0)
(3 2.52525e-15 0)
(3 2.40739e-15 0)
(3 1.94005e-15 0)
(3 9.28629e-16 0)
(3 6.13402e-16 0)
(3 4.88319e-16 0)
(3 2.53915e-16 0)
(3 -1.67396e-16 0)
(3 -3.56895e-16 0)
(1.81163 -1.00626 0)
(2.44447 -0.44467 0)
(3 4.15778e-15 0)
(3 4.08068e-15 0)
(3 3.674e-15 0)
(3 3.38233e-15 0)
(3 2.7046e-15 0)
(3 2.58954e-15 0)
(3 2.59144e-15 0)
(3 2.69462e-15 0)
(3 1.93332e-15 0)
(3 1.12847e-15 0)
(3 6.99251e-16 0)
(3 9.88371e-17 0)
(3 3.55754e-16 0)
(3 9.22454e-16 0)
(3 1.02475e-15 0)
(3 6.78011e-16 0)
(3 2.14162e-16 0)
(3 -3.81981e-16 0)
(1.78195 -1.10265 0)
(2.24171 -0.648871 0)
(3 1.22807e-15 0)
(3 1.04758e-15 0)
(3 4.03992e-16 0)
(3 -1.02593e-15 0)
(3 -1.89154e-15 0)
(3 -2.54946e-15 0)
(3 -2.49203e-15 0)
(3 -2.49923e-15 0)
(3 -2.52942e-15 0)
(3 -2.78846e-15 0)
(3 -2.98926e-15 0)
(3 -3.193e-15 0)
(3 -3.21596e-15 0)
(3 -2.8387e-15 0)
(3 -2.84241e-15 0)
(3 -2.68637e-15 0)
(3 -2.73896e-15 0)
(3 -2.89012e-15 0)
(1.70568 -1.16751 0)
(2.05606 -0.818742 0)
(3 -4.80842e-16 0)
(3 -1.08276e-15 0)
(3 -1.05106e-15 0)
(3 -1.63337e-15 0)
(3 -2.25853e-15 0)
(3 -2.81985e-15 0)
(3 -3.50642e-15 0)
(3 -3.82744e-15 0)
(3 -3.86114e-15 0)
(3 -4.13268e-15 0)
(3 -3.55211e-15 0)
(3 -3.35004e-15 0)
(3 -3.0866e-15 0)
(3 -2.58217e-15 0)
(3 -3.41987e-15 0)
(3 -3.04082e-15 0)
(3 -3.01967e-15 0)
(3 -3.12547e-15 0)
(1.6682 -1.20286 0)
(1.88466 -0.981183 0)
(2.98294 -0.0124079 0)
(3 -1.00177e-15 0)
(3 -1.53304e-15 0)
(3 -1.92347e-15 0)
(3 -2.65596e-15 0)
(3 -3.41414e-15 0)
(3 -3.9769e-15 0)
(3 -4.06618e-15 0)
(3 -4.24702e-15 0)
(3 -4.78122e-15 0)
(3 -4.89305e-15 0)
(3 -5.05539e-15 0)
(3 -4.62527e-15 0)
(3 -4.19295e-15 0)
(3 -4.57462e-15 0)
(3 -4.55662e-15 0)
(3 -5.30249e-15 0)
(3 -6.42286e-15 0)
(1.65279 -1.24321 0)
(1.82874 -1.10524 0)
(2.87034 -0.0992395 0)
(3 1.91485e-14 0)
(3 -2.93285e-15 0)
(3 -3.29496e-15 0)
(3 -4.12512e-15 0)
(3 -4.64228e-15 0)
(3 -4.54859e-15 0)
(3 -5.01924e-15 0)
(3 -5.18107e-15 0)
(3 -5.04765e-15 0)
(3 -4.66661e-15 0)
(3 -4.48521e-15 0)
(3 -4.32639e-15 0)
(3 -3.3485e-15 0)
(3 -3.04807e-15 0)
(3 -2.70547e-15 0)
(3 -2.5801e-15 0)
(3 -1.30741e-15 0)
(1.63776 -1.25999 0)
(1.62732 -1.25097 0)
(2.65133 -0.29378 0)
(3 -3.27142e-13 0)
(3 1.71377e-14 0)
(3 -3.53702e-15 0)
(3 -3.70624e-15 0)
(3 -4.16064e-15 0)
(3 -5.08007e-15 0)
(3 -5.68637e-15 0)
(3 -5.51257e-15 0)
(3 -5.14499e-15 0)
(3 -4.18101e-15 0)
(3 -3.72287e-15 0)
(3 -2.81605e-15 0)
(3 -1.61846e-15 0)
(3 -1.17864e-15 0)
(3 -8.46058e-16 0)
(3 -8.69895e-16 0)
(3 2.1508e-15 0)
(1.62094 -1.27731 0)
(1.56527 -1.32104 0)
(2.41389 -0.546814 0)
(3 2.08305e-12 0)
(3 2.4021e-11 0)
(3 -5.28425e-14 0)
(3 -2.88928e-15 0)
(3 -4.0157e-15 0)
(3 -4.16878e-15 0)
(3 -4.55611e-15 0)
(3 -4.44447e-15 0)
(3 -3.43832e-15 0)
(3 -1.84576e-15 0)
(3 -5.47868e-16 0)
(3 -2.47716e-16 0)
(3 -3.13478e-17 0)
(3 1.36266e-15 0)
(3 2.03247e-15 0)
(3 3.60894e-15 0)
(3 4.30526e-15 0)
(1.60418 -1.29105 0)
(1.48083 -1.3694 0)
(2.19665 -0.798726 0)
(3.01045 0.00872531 0)
(3 -2.3778e-08 0)
(3 4.10709e-12 0)
(3 7.96817e-15 0)
(3 -3.11044e-15 0)
(3 -2.10784e-15 0)
(3 -2.8792e-15 0)
(3 -3.0653e-15 0)
(3 -2.71781e-15 0)
(3 -1.62072e-15 0)
(3 -5.93279e-17 0)
(3 -5.87106e-16 0)
(3 -3.44287e-16 0)
(3 1.56883e-15 0)
(3 2.02531e-15 0)
(3 2.04006e-15 0)
(3 2.39498e-15 0)
(1.59048 -1.30651 0)
(1.46956 -1.36409 0)
(1.92359 -1.04085 0)
(2.85252 -0.123605 0)
(3 1.25257e-08 0)
(3 -1.01253e-11 0)
(3 1.0616e-14 0)
(3 -1.48492e-15 0)
(3 -2.00055e-15 0)
(3 -2.54101e-15 0)
(3 -2.86681e-15 0)
(3 -1.86456e-15 0)
(3 -4.11913e-16 0)
(3 -1.11545e-15 0)
(3 -8.60419e-16 0)
(3 7.81669e-16 0)
(3 1.79125e-15 0)
(3 1.36761e-15 0)
(3 1.64239e-15 0)
(3 2.13023e-15 0)
(1.5932 -1.32774 0)
(1.49393 -1.33463 0)
(1.75576 -1.17872 0)
(2.41438 -0.54618 0)
(3 1.10404e-06 0)
(3 -2.17221e-12 0)
(3 1.69956e-15 0)
(3 -4.21822e-14 0)
(3 -3.03792e-15 0)
(3 -1.73578e-15 0)
(3 -1.53592e-15 0)
(3 -1.27029e-15 0)
(3 -5.32345e-16 0)
(3 -1.72167e-15 0)
(3 -6.09232e-16 0)
(3 -1.76499e-16 0)
(3 4.04259e-16 0)
(3 9.68002e-16 0)
(3 1.78609e-15 0)
(3 1.66338e-15 0)
(1.57922 -1.29818 0)
(1.5596 -1.30316 0)
(1.67546 -1.24407 0)
(2.1952 -0.829367 0)
(3.02262 0.0226409 0)
(3 9.42017e-13 0)
(3 -2.12848e-12 0)
(3 -6.22452e-12 0)
(3 1.79339e-12 0)
(3 -1.81552e-14 0)
(3 -3.14945e-15 0)
(3 3.70739e-17 0)
(3 -3.61874e-16 0)
(3 -4.42467e-16 0)
(3 -3.44601e-16 0)
(3 -2.89285e-17 0)
(3 -5.96132e-16 0)
(3 6.02641e-16 0)
(3 1.16715e-15 0)
(3 5.28641e-16 0)
(1.58081 -1.27686 0)
(1.5794 -1.27776 0)
(1.64353 -1.26187 0)
(1.75649 -1.17657 0)
(2.67239 -0.280963 0)
(3 5.86302e-10 0)
(3 -1.3917e-08 0)
(3 1.255e-08 0)
(3 -5.3678e-10 0)
(3 -4.65426e-13 0)
(3 1.12855e-13 0)
(3 -4.8062e-15 0)
(3 -9.77647e-16 0)
(3 -1.3132e-15 0)
(3 -8.52897e-16 0)
(3 -1.53898e-15 0)
(3 -7.58333e-16 0)
(3 -1.46711e-16 0)
(3 1.08292e-15 0)
(3 1.53963e-15 0)
(1.58195 -1.26123 0)
(1.59357 -1.25967 0)
(1.63059 -1.26036 0)
(1.70604 -1.22053 0)
(2.34683 -0.642958 0)
(3.01946 0.0164811 0)
(2.99976 -0.000171189 0)
(3 4.22354e-06 0)
(3 -8.14636e-08 0)
(3 1.00665e-09 0)
(3 -7.5363e-12 0)
(3 3.83677e-14 0)
(3 -3.79427e-15 0)
(3 -3.19971e-15 0)
(3 -1.75361e-15 0)
(3 -1.626e-15 0)
(3 -6.07948e-17 0)
(3 -1.33387e-16 0)
(3 1.04361e-15 0)
(3 1.58966e-15 0)
(1.58276 -1.25109 0)
(1.60434 -1.25241 0)
(1.62364 -1.25272 0)
(1.64616 -1.25792 0)
(1.91475 -1.05076 0)
(2.78624 -0.187127 0)
(3.00444 0.00181565 0)
(2.99991 -8.32958e-05 0)
(3 7.16899e-07 0)
(3 -1.12595e-09 0)
(3 1.45266e-12 0)
(3 -4.10269e-14 0)
(3 -2.54406e-15 0)
(3 -3.07452e-15 0)
(3 -1.97967e-15 0)
(3 -2.00122e-15 0)
(3 -3.12438e-16 0)
(3 3.34029e-16 0)
(3 5.39644e-16 0)
(3 1.0191e-15 0)
(1.58629 -1.24521 0)
(1.60702 -1.25249 0)
(1.61608 -1.25532 0)
(1.60996 -1.27909 0)
(1.68085 -1.22656 0)
(2.19734 -0.790601 0)
(2.99214 0.00067865 0)
(3.00052 0.000956 0)
(3 -4.74348e-07 0)
(3 -8.14009e-11 0)
(3 3.9098e-12 0)
(3 -2.09612e-14 0)
(3 -1.96851e-15 0)
(3 -2.5889e-15 0)
(3 -3.08151e-15 0)
(3 -2.68546e-15 0)
(3 -6.53556e-16 0)
(3 -6.70748e-16 0)
(3 3.15991e-16 0)
(3 8.22989e-16 0)
(1.58505 -1.25281 0)
(1.59651 -1.25837 0)
(1.60512 -1.26718 0)
(1.60689 -1.2785 0)
(1.64357 -1.26166 0)
(1.70161 -1.22812 0)
(2.25825 -0.742741 0)
(2.99371 -0.0193325 0)
(3 -5.22512e-08 0)
(3 2.29108e-11 0)
(3 2.97102e-12 0)
(3 2.64953e-14 0)
(3 -3.14108e-15 0)
(3 -3.57728e-15 0)
(3 -3.70574e-15 0)
(3 -3.35663e-15 0)
(3 -2.8556e-15 0)
(3 -1.10278e-15 0)
(3 -1.40587e-17 0)
(3 9.28623e-16 0)
(1.58303 -1.25925 0)
(1.58611 -1.2668 0)
(1.5912 -1.27418 0)
(1.59836 -1.26762 0)
(1.61085 -1.25452 0)
(1.60012 -1.26955 0)
(1.90347 -1.17425 0)
(2.97009 -0.380567 0)
(3.32024 0.572874 0)
(3 5.86804e-11 0)
(3 2.82268e-12 0)
(3 -5.65302e-12 0)
(3 7.15344e-14 0)
(3 7.52442e-13 0)
(3 1.50389e-14 0)
(3 -3.52199e-14 0)
(3 2.40387e-14 0)
(3 -1.82418e-15 0)
(3 -7.02704e-16 0)
(3 2.93556e-15 0)
(1.16896 -0.759195 0)
(1.82572 -1.16153 0)
(1.84494 -1.15232 0)
(1.7369 -1.19958 0)
(1.70983 -1.19916 0)
(1.66043 -1.24603 0)
(1.66058 -1.21681 0)
(1.73129 -1.16955 0)
(1.76813 -1.23172 0)
(1.80177 -1.14045 0)
(2.27862 -0.733387 0)
(2.86179 -0.203829 0)
(3.09972 0.0306697 0)
(3.02155 0.0129198 0)
(3.0045 0.00552577 0)
(3.00176 0.00297236 0)
(3.00005 0.00056504 0)
(2.99998 2.11429e-05 0)
(2.99999 -1.43231e-05 0)
(3 -5.9013e-06 0)
(1.03313 -0.000270659 0)
(1.91436 -0.820944 0)
(2.10474 -0.861686 0)
(1.99114 -0.975282 0)
(1.96384 -0.971944 0)
(1.8678 -1.07567 0)
(1.79037 -1.13568 0)
(1.76451 -1.14732 0)
(1.76278 -1.16354 0)
(1.74182 -1.20324 0)
(1.72007 -1.19621 0)
(1.85907 -1.06911 0)
(2.08863 -0.88696 0)
(2.4937 -0.583324 0)
(2.98304 -0.140774 0)
(3.07347 0.0283921 0)
(3.00815 0.00762446 0)
(3.00292 0.00380883 0)
(3.00122 0.00218491 0)
(3.00008 0.000486146 0)
(1.09173 -0.00949529 0)
(1.86076 0.181285 0)
(2.25616 -0.149428 0)
(2.23715 -0.518975 0)
(2.19035 -0.684285 0)
(2.12144 -0.792523 0)
(2.04716 -0.886643 0)
(1.96975 -0.964373 0)
(1.91461 -1.03416 0)
(1.85164 -1.12654 0)
(1.78806 -1.16245 0)
(1.78653 -1.15548 0)
(1.807 -1.13294 0)
(1.84936 -1.08871 0)
(2.04137 -0.95164 0)
(2.26159 -0.828246 0)
(2.66642 -0.502679 0)
(3.03756 -0.0905111 0)
(3.0556 0.0241767 0)
(3.00403 0.0046803 0)
(1.2171 0.506902 0)
(1.80099 0.631199 0)
(2.22028 0.372568 0)
(2.28437 0.122743 0)
(2.32593 0.00665377 0)
(2.33996 -0.295142 0)
(2.2695 -0.559813 0)
(2.19018 -0.716952 0)
(2.13422 -0.791925 0)
(2.07856 -0.919639 0)
(1.96818 -1.0232 0)
(1.90952 -1.07234 0)
(1.8803 -1.0847 0)
(1.86829 -1.088 0)
(1.87464 -1.05326 0)
(1.89987 -1.04525 0)
(1.96307 -1.01926 0)
(2.16257 -0.903519 0)
(2.37884 -0.794441 0)
(2.77767 -0.443353 0)
(1.27758 1.16609 0)
(1.45576 1.58427 0)
(2.20479 0.304032 0)
(2.30947 0.724817 0)
(2.37614 0.482059 0)
(2.43662 0.304947 0)
(2.41959 -0.0300256 0)
(2.39177 -0.215469 0)
(2.3343 -0.38592 0)
(2.31413 -0.540031 0)
(2.2196 -0.705655 0)
(2.14237 -0.819773 0)
(2.08608 -0.88581 0)
(2.02817 -0.947237 0)
(1.98966 -0.963569 0)
(1.95368 -0.990062 0)
(1.95318 -1.0187 0)
(1.96816 -0.998723 0)
(1.99423 -0.997516 0)
(2.07217 -0.978408 0)
(0.996583 1.33198 0)
(1.59288 1.69406 0)
(1.95602 1.35725 0)
(2.35726 0.922639 0)
(2.58698 0.415314 0)
(2.50213 0.655652 0)
(2.53213 0.455347 0)
(2.51449 0.117292 0)
(2.48601 -0.0151966 0)
(2.46975 -0.203858 0)
(2.42651 -0.391288 0)
(2.34245 -0.573414 0)
(2.28761 -0.682654 0)
(2.20846 -0.79223 0)
(2.15604 -0.834259 0)
(2.11065 -0.85511 0)
(2.06711 -0.8981 0)
(2.06588 -0.893203 0)
(2.04252 -0.922416 0)
(2.06183 -0.949895 0)
(1.18237 1.50033 0)
(1.71076 1.75739 0)
(1.88497 1.77007 0)
(1.98118 1.14315 0)
(2.14581 1.0542 0)
(2.50758 0.81772 0)
(2.65724 0.485538 0)
(2.64442 0.164248 0)
(2.62415 0.0869441 0)
(2.58799 -0.091396 0)
(2.55533 -0.242598 0)
(2.49111 -0.394912 0)
(2.44634 -0.481356 0)
(2.39194 -0.560484 0)
(2.34645 -0.59029 0)
(2.31295 -0.594121 0)
(2.27 -0.623264 0)
(2.23591 -0.665767 0)
(2.16839 -0.759435 0)
(2.13075 -0.797088 0)
(1.36088 1.68743 0)
(1.66319 1.94133 0)
(1.84208 1.86584 0)
(1.95266 1.26203 0)
(1.99923 1.38104 0)
(2.21912 1.14149 0)
(2.42844 1.04094 0)
(2.58618 0.810522 0)
(2.5999 0.45095 0)
(2.60813 0.394048 0)
(2.60429 0.201548 0)
(2.58917 0.0676222 0)
(2.56278 -0.0474563 0)
(2.5459 -0.128508 0)
(2.49123 -0.249013 0)
(2.48015 -0.297867 0)
(2.41546 -0.425592 0)
(2.35597 -0.5369 0)
(2.29631 -0.60853 0)
(2.30483 -0.560687 0)
(1.50687 1.89144 0)
(1.56219 2.20012 0)
(1.6802 1.99382 0)
(1.8331 1.69463 0)
(2.00036 1.69342 0)
(2.19057 1.35706 0)
(2.22079 1.4374 0)
(2.35418 1.25461 0)
(2.43677 1.01217 0)
(2.47437 0.885477 0)
(2.54075 0.686877 0)
(2.57636 0.483517 0)
(2.60366 0.297069 0)
(2.63721 0.143606 0)
(2.58832 -0.0868842 0)
(2.57847 -0.200601 0)
(2.51856 -0.368033 0)
(2.48539 -0.346142 0)
(2.44054 -0.366853 0)
(2.47096 -0.289605 0)
(1.60816 1.99333 0)
(1.62566 2.36015 0)
(1.71814 2.12046 0)
(1.76549 2.03754 0)
(1.95495 1.86666 0)
(2.09532 1.59737 0)
(2.1895 1.53678 0)
(2.3171 1.36541 0)
(2.40281 1.24007 0)
(2.49861 1.02783 0)
(2.61363 0.813293 0)
(2.65972 0.549029 0)
(2.69505 0.352793 0)
(2.7071 0.172909 0)
(2.67649 0.000510687 0)
(2.65317 -0.0525739 0)
(2.62734 -0.103325 0)
(2.61952 -0.000912474 0)
(2.55791 -0.0930968 0)
(2.58824 -0.0506696 0)
(1.57914 1.9401 0)
(1.74556 2.33181 0)
(1.84649 2.21925 0)
(1.89945 2.16134 0)
(2.02392 1.95853 0)
(2.15246 1.75688 0)
(2.35215 1.55852 0)
(2.49477 1.42017 0)
(2.64046 1.32595 0)
(2.70035 0.947495 0)
(2.74758 0.828479 0)
(2.75623 0.600815 0)
(2.75552 0.563699 0)
(2.75454 0.45513 0)
(2.74179 0.386152 0)
(2.70969 0.338713 0)
(2.68876 0.315209 0)
(2.69394 0.296884 0)
(2.65053 0.132252 0)
(2.61553 -0.0243613 0)
(1.45439 1.81476 0)
(1.76444 2.26678 0)
(1.9473 2.28169 0)
(2.11104 2.2534 0)
(2.32551 2.05567 0)
(2.42403 1.90192 0)
(2.54933 1.57006 0)
(2.61644 1.45977 0)
(2.6467 1.44437 0)
(2.72324 1.2402 0)
(2.70345 1.28628 0)
(2.71795 1.07838 0)
(2.67978 1.00485 0)
(2.69263 0.906108 0)
(2.69166 0.772084 0)
(2.69827 0.661676 0)
(2.7333 0.571893 0)
(2.74798 0.397913 0)
(2.73346 0.216392 0)
(2.68369 0.107795 0)
(1.24506 1.57235 0)
(1.56485 2.09575 0)
(1.9209 2.28356 0)
(2.08661 2.24711 0)
(2.32392 2.12722 0)
(2.45499 2.1079 0)
(2.44606 1.75431 0)
(2.42989 1.68139 0)
(2.44651 1.6953 0)
(2.44935 1.64886 0)
(2.4803 1.52647 0)
(2.54611 1.39168 0)
(2.57486 1.21399 0)
(2.65626 1.13149 0)
(2.6888 0.928998 0)
(2.75114 0.784517 0)
(2.7962 0.62926 0)
(2.81158 0.410008 0)
(2.76606 0.388202 0)
(2.71806 0.381925 0)
(1.1833 1.39284 0)
(1.42039 1.91948 0)
(1.67258 2.16019 0)
(1.86651 2.24695 0)
(2.17269 2.18379 0)
(2.18592 2.26999 0)
(2.231 2.01943 0)
(2.19123 1.91928 0)
(2.18597 1.85434 0)
(2.25251 1.76926 0)
(2.36655 1.58021 0)
(2.52407 1.48462 0)