/*--------------------------------*- C++ -*----------------------------------*\
  =========                 |
  \\      /  F ield         | OpenFOAM: The Open Source CFD Toolbox
   \\    /   O peration     | Website:  https://openfoam.org
    \\  /    A nd           | Version:  7
     \\/     M anipulation  |
\*---------------------------------------------------------------------------*/
FoamFile
{
    version     2.0;
    format      ascii;
    class       volScalarField;
    location    "2.1";
    object      p;
}
// * * * * * * * * * * * * * * * * * * * * * * * * * * * * * * * * * * * * * //

dimensions      [1 -1 -2 0 0 0 0];

internalField   nonuniform List<scalar> 
3700
(
0.0903719
0.176378
0.221288
0.287098
0.326319
0.376349
0.412024
0.435055
0.438807
0.43555
0.454036
0.469478
0.473043
0.472378
0.489443
0.501929
0.51412
0.508615
0.507259
0.514675
0.0605972
0.0824204
0.109669
0.137821
0.133333
0.137678
0.147276
0.151674
0.138301
0.123531
0.137359
0.151935
0.160553
0.167154
0.182463
0.206757
0.216587
0.203026
0.192955
0.188153
0.060893
0.073882
0.0840483
0.0788468
0.0661721
0.0555899
0.0489845
0.0491129
0.0516435
0.0546291
0.0641052
0.0725558
0.0828158
0.0949432
0.104577
0.111254
0.115471
0.117483
0.118304
0.120679
0.0682152
0.0756268
0.0753913
0.0684111
0.0576191
0.0567185
0.058992
0.0601216
0.062564
0.0697034
0.0723199
0.0794206
0.0914484
0.107995
0.123993
0.140044
0.155691
0.165823
0.171446
0.172891
0.0722935
0.0719934
0.0697547
0.061204
0.056974
0.0624328
0.0707218
0.0842445
0.0975376
0.11063
0.10368
0.106524
0.106654
0.11548
0.132196
0.153055
0.175631
0.198461
0.221131
0.237874
0.0833993
0.0689648
0.0637656
0.0541982
0.0528317
0.060712
0.071876
0.0912395
0.116659
0.134793
0.147141
0.161432
0.160591
0.166582
0.168289
0.175571
0.19321
0.227914
0.26327
0.31723
0.0964437
0.0639321
0.052551
0.0491999
0.0501452
0.0577728
0.0681406
0.0881046
0.118222
0.145388
0.174821
0.195005
0.218063
0.239484
0.248075
0.256798
0.26672
0.282205
0.315005
0.398883
0.0983747
0.0549221
0.0473487
0.0481408
0.0527898
0.0617521
0.0709341
0.087182
0.112898
0.142974
0.184027
0.216621
0.260754
0.295208
0.32839
0.358813
0.385146
0.407319
0.435021
0.531158
0.0942947
0.0473453
0.0456671
0.0529385
0.06519
0.0856671
0.101983
0.120814
0.139209
0.153409
0.18658
0.228647
0.289832
0.343075
0.398791
0.457654
0.511731
0.564698
0.60307
0.72829
0.0868775
0.04067
0.0430096
0.0561639
0.0708593
0.106322
0.141803
0.179918
0.212807
0.244983
0.276084
0.31045
0.357926
0.41734
0.483648
0.566661
0.659756
0.749153
0.83473
0.958832
0.0673744
0.0326479
0.0375669
0.0455973
0.0658174
0.110776
0.159721
0.212038
0.272292
0.356384
0.421935
0.487094
0.551207
0.615536
0.671451
0.745501
0.85331
0.968163
1.16439
1.14597
0.0459928
0.026371
0.0300012
0.036422
0.0631731
0.104997
0.155297
0.213931
0.306052
0.44486
0.553513
0.66484
0.773638
0.86728
0.961132
1.06785
1.1855
1.3109
1.53859
1.50916
0.0309487
0.0212254
0.027738
0.0338856
0.0641897
0.116925
0.172147
0.244182
0.393375
0.56396
0.732515
0.887512
1.04101
1.17363
1.3348
1.50605
1.67435
1.83616
2.09163
2.07916
0.0222382
0.017664
0.0260862
0.0326352
0.0994452
0.239309
0.371455
0.542524
0.767115
0.964244
1.14759
1.31158
1.47903
1.64163
1.86049
2.10325
2.34603
2.59286
2.79579
3.00474
0.0138738
0.0179511
0.0241827
0.0537914
0.225825
0.437317
0.652447
0.921063
1.23617
1.53554
1.75952
1.97229
2.1898
2.41697
2.70932
2.99326
3.27248
3.51079
3.65679
3.78193
0.00829633
0.0243233
0.0560674
0.165041
0.412692
0.683374
1.04399
1.45652
1.89381
2.27886
2.57333
2.85986
3.13824
3.43171
3.75282
3.97371
4.1058
4.14502
4.05027
3.91983
0.00707273
0.0470537
0.156077
0.401123
0.833168
1.42244
1.98333
2.54964
3.13992
3.52536
3.76249
4.00678
4.21714
4.37605
4.46717
4.39471
4.18109
3.64931
2.79465
1.89359
0.0400809
0.169731
0.489047
1.15426
2.09035
2.92107
3.59011
4.26347
4.75048
4.8255
4.73657
4.74025
4.69852
4.53212
4.02501
3.06958
2.09256
1.33207
1.01824
0.992888
0.300625
0.844726
1.97823
3.22097
4.25577
4.88389
5.41157
5.8709
5.72544
5.27433
4.84628
4.30962
3.39028
2.32397
1.42558
1.02972
0.989379
0.994935
0.997328
0.999441
2.32201
3.65203
4.92972
5.73569
6.26554
6.44756
6.54923
6.25217
4.54811
3.21218
2.37273
1.56247
1.07918
0.987355
0.992826
0.996239
0.999146
0.999972
1.00002
1.00001
6.9717
6.94354
6.91652
6.94659
7.02786
6.79698
6.02738
2.40925
0.621739
1
1
1
1
1
1
1
1
1
1
1
6.93102
6.89813
6.8461
6.76323
6.81355
5.84761
2.59235
1.01766
1
1
1
1
1
1
1
1
1
1
1
1
6.8088
6.85512
6.82896
6.66597
6.28473
3.24789
1.01891
0.999758
1
1
1
1
1
1
1
1
1
1
1
1
6.697
6.83116
6.82108
6.51776
4.68935
1.42099
0.995548
1.00007
0.999999
1
1
1
1
1
1
1
1
1
1
1
6.53722
6.82997
6.81647
6.08496
2.76046
0.974595
1.00032
0.999995
1
1
1
1
1
1
1
1
1
1
1
1
6.40332
6.77923
6.81551
5.01087
1.45758
1
1
1
1
1
1
1
1
1
1
1
1
1
1
1
6.3488
6.67574
6.68673
3.54192
0.973199
1
1
1
1
1
1
1
1
1
1
1
1
1
1
1
6.48773
6.61271
6.01914
2.07012
0.999999
1
1
1
1
1
1
1
1
1
1
1
1
1
1
1
6.95676
6.69758
4.88997
1.15874
1
1
1
1
1
1
1
1
1
1
1
1
1
1
1
1
7.21691
6.33846
3.46244
0.988135
1
1
1
1
1
1
1
1
1
1
1
1
1
1
1
1
7.41238
5.99757
2.33445
1
1
1
1
1
1
1
1
1
1
1
1
1
1
1
1
1
7.47741
5.4704
1.63406
1
1
1
1
1
1
1
1
1
1
1
1
1
1
1
1
1
7.50972
4.77542
1.19583
1
1
1
1
1
1
1
1
1
1
1
1
1
1
1
1
1
7.39753
3.99422
1.01246
1
1
1
1
1
1
1
1
1
1
1
1
1
1
1
1
1
7.19492
3.17096
1
1
1
1
1
1
1
1
1
1
1
1
1
1
1
1
1
1
6.9553
2.52141
1
1
1
1
1
1
1
1
1
1
1
1
1
1
1
1
1
1
6.7641
1.8631
1
1
1
1
1
1
1
1
1
1
1
1
1
1
1
1
1
1
6.27544
1.33056
1
1
1
1
1
1
1
1
1
1
1
1
1
1
1
1
1
1
5.65869
1.00497
1
1
1
1
1
1
1
1
1
1
1
1
1
1
1
1
1
1
4.65571
1.0001
1
1
1
1
1
1
1
1
1
1
1
1
1
1
1
1
1
1
4.65568
1.0001
1
1
1
1
1
1
1
1
1
1
1
1
1
1
1
1
1
1
5.65873
1.00497
1
1
1
1
1
1
1
1
1
1
1
1
1
1
1
1
1
1
6.27544
1.33058
1
1
1
1
1
1
1
1
1
1
1
1
1
1
1
1
1
1
6.76406
1.8631
1
1
1
1
1
1
1
1
1
1
1
1
1
1
1
1
1
1
6.95529
2.52141
1
1
1
1
1
1
1
1
1
1
1
1
1
1
1
1
1
1
7.19495
3.17097
1
1
1
1
1
1
1
1
1
1
1
1
1
1
1
1
1
1
7.39751
3.9942
1.01246
1
1
1
1
1
1
1
1
1
1
1
1
1
1
1
1
1
7.50978
4.77556
1.19581
1
1
1
1
1
1
1
1
1
1
1
1
1
1
1
1
1
7.47736
5.47016
1.63416
1
1
1
1
1
1
1
1
1
1
1
1
1
1
1
1
1
7.41239
5.99772
2.33428
1
1
1
1
1
1
1
1
1
1
1
1
1
1
1
1
1
7.21689
6.33845
3.46257
0.988134
1
1
1
1
1
1
1
1
1
1
1
1
1
1
1
1
6.95673
6.69768
4.89012
1.15871
1
1
1
1
1
1
1
1
1
1
1
1
1
1
1
1
6.48777
6.61273
6.01928
2.07019
0.999999
1
1
1
1
1
1
1
1
1
1
1
1
1
1
1
6.34885
6.67569
6.68646
3.54169
0.973204
1
1
1
1
1
1
1
1
1
1
1
1
1
1
1
6.40322
6.7791
6.81561
5.01122
1.45734
1
1
1
1
1
1
1
1
1
1
1
1
1
1
1
6.5371
6.82987
6.81637
6.0844
2.76047
0.974598
1.00032
0.999995
1
1
1
1
1
1
1
1
1
1
1
1
6.69705
6.8312
6.82104
6.51809
4.68992
1.42072
0.995535
1.00007
0.999999
1
1
1
1
1
1
1
1
1
1
1
6.80897
6.85522
6.82903
6.66601
6.28447
3.24783
1.01905
0.999756
1
1
1
1
1
1
1
1
1
1
1
1
6.93116
6.89819
6.84609
6.76309
6.8135
5.84774
2.59178
1.01758
1
1
1
1
1
1
1
1
1
1
1
1
6.97172
6.94352
6.9164
6.94625
7.02779
6.79808
6.02801
2.40845
0.621826
1
1
1
1
1
1
1
1
1
1
1
2.32034
3.63919
4.91415
5.72996
6.26746
6.45116
6.5516
6.25392
4.54901
3.21241
2.37254
1.56211
1.07901
0.987356
0.992832
0.996241
0.999147
0.999972
1.00002
1.00001
0.313021
0.885734
2.00702
3.21971
4.24815
4.88201
5.4106
5.87059
5.72515
5.27412
4.84611
4.30928
3.38968
2.32317
1.42495
1.02955
0.989381
0.994935
0.997328
0.999441
0.0241655
0.14033
0.493778
1.17625
2.09443
2.91593
3.58756
4.2634
4.75108
4.82573
4.73681
4.74053
4.6987
4.53208
4.02444
3.06874
2.0919
1.33183
1.01822
0.992886
0.010418
0.0325416
0.15322
0.398362
0.840169
1.42655
1.98267
2.54799
3.13856
3.52444
3.76221
4.00676
4.21733
4.37649
4.46762
4.39503
4.18116
3.64922
2.79457
1.8936
0.0133177
0.0201251
0.0406873
0.166801
0.417056
0.689178
1.04757
1.45872
1.89547
2.28021
2.57422
2.86036
3.13876
3.43262
3.75392
3.97463
4.10616
4.14495
4.05014
3.91964
0.0212383
0.0172904
0.0162227
0.0504542
0.218024
0.435234
0.655624
0.924794
1.23934
1.5373
1.76036
1.97252
2.18995
2.41723
2.7098
2.9938
3.27284
3.51086
3.65666
3.78174
0.0280198
0.0186742
0.0172845
0.0278593
0.0927521
0.234976
0.370482
0.542932
0.767396
0.96407
1.14719
1.31099
1.47846
1.64139
1.86079
2.1039
2.34668
2.59315
2.79584
3.00471
0.037525
0.0224274
0.0206438
0.0295135
0.0621618
0.115342
0.171192
0.243074
0.392914
0.564448
0.732663
0.887294
1.04071
1.17355
1.33493
1.50624
1.67443
1.83622
2.09158
2.07913
0.0511428
0.028127
0.026512
0.0334319
0.0616085
0.104164
0.15539
0.215115
0.307265
0.445383
0.553567
0.664509
0.773209
0.867016
0.96081
1.06746
1.18521
1.31075
1.53871
1.50937
0.0677741
0.0332404
0.0365354
0.0444566
0.0644872
0.110259
0.160211
0.213057
0.273048
0.356238
0.421443
0.486461
0.550473
0.61481
0.670848
0.74518
0.853465
0.968484
1.16462
1.1461
0.085162
0.0394522
0.0425589
0.0560779
0.0702693
0.106498
0.142615
0.180393
0.213089
0.244517
0.275188
0.309512
0.357318
0.417221
0.483999
0.567168
0.66009
0.749295
0.8347
0.958816
0.0936804
0.0474038
0.046101
0.0531764
0.0653165
0.086781
0.10334
0.12165
0.139815
0.153647
0.186763
0.229069
0.290552
0.343803
0.399395
0.457954
0.51171
0.564423
0.602777
0.728082
0.0972633
0.0574111
0.0488755
0.0494482
0.0535584
0.0627748
0.0716454
0.0879153
0.113184
0.143306
0.184527
0.217259
0.261446
0.295783
0.328637
0.358675
0.38468
0.406744
0.434522
0.530887
0.0934355
0.0657682
0.0565391
0.050632
0.0512653
0.0586348
0.0679882
0.0886829
0.118336
0.145536
0.175172
0.195515
0.218488
0.239846
0.247778
0.25613
0.265903
0.281552
0.314811
0.39909
0.0797273
0.0699948
0.0659954
0.0558796
0.0538438
0.0614457
0.071289
0.0913227
0.116562
0.134793
0.147321
0.161747
0.160553
0.166312
0.167766
0.174984
0.192974
0.228105
0.263611
0.317357
0.0681329
0.0723024
0.07038
0.0625303
0.0572374
0.0626718
0.0700042
0.0839364
0.0975456
0.110806
0.10382
0.106711
0.106792
0.115413
0.131978
0.152904
0.175712
0.1987
0.22143
0.23777
0.0654618
0.0750222
0.0746576
0.0680346
0.0573267
0.0564541
0.0578364
0.0598526
0.062972
0.0702774
0.0728709
0.0797375
0.0915161
0.107883
0.123804
0.139984
0.155877
0.165954
0.171288
0.172697
0.0595236
0.0729382
0.0831616
0.0780065
0.0651927
0.0543448
0.0487512
0.0488001
0.0517995
0.0550731
0.064366
0.0725742
0.0827724
0.0948858
0.10446
0.111153
0.115614
0.117605
0.118344
0.12043
0.0596115
0.0811237
0.102347
0.122891
0.14649
0.140895
0.122221
0.111729
0.124551
0.131493
0.135899
0.136329
0.150187
0.175583
0.187692
0.190538
0.196321
0.205728
0.216358
0.20597
0.0911459
0.176806
0.215633
0.264619
0.328451
0.387902
0.400464
0.413596
0.436022
0.443026
0.450789
0.45659
0.4712
0.479424
0.487273
0.490486
0.510978
0.519446
0.525671
0.518127
0.558077
0.631441
0.709478
0.819735
0.832826
0.819808
0.824102
0.830961
0.836782
0.845232
0.847684
0.835926
0.816002
0.799987
0.781061
0.782447
0.795523
0.817909
0.863506
0.904798
0.274455
0.408476
0.534258
0.686025
0.777679
0.813238
0.837346
0.830691
0.834585
0.841776
0.849591
0.841943
0.828076
0.808774
0.779696
0.776792
0.787098
0.807868
0.849882
0.894058
0.136412
0.160977
0.228815
0.329913
0.528305
0.69943
0.762396
0.808786
0.828981
0.827141
0.832833
0.830166
0.82374
0.815027
0.785915
0.779247
0.785944
0.805915
0.847421
0.895346
0.186187
0.215194
0.232405
0.24225
0.263059
0.360919
0.539442
0.721574
0.771947
0.777865
0.806196
0.830157
0.821122
0.816841
0.789822
0.778312
0.783915
0.803944
0.84063
0.888853
0.237596
0.25818
0.268279
0.291135
0.304811
0.29849
0.313936
0.405014
0.545597
0.651807
0.743914
0.804116
0.820911
0.820179
0.797521
0.776507
0.78144
0.804775
0.842941
0.888363
0.317802
0.320351
0.325422
0.333073
0.335615
0.33621
0.345734
0.339414
0.345156
0.39585
0.529686
0.687445
0.795924
0.804643
0.798021
0.778987
0.781581
0.80933
0.855457
0.89473
0.411602
0.40538
0.372248
0.366222
0.375468
0.376866
0.382563
0.385406
0.374108
0.344039
0.358871
0.487126
0.694221
0.76168
0.785605
0.780366
0.778909
0.81036
0.865618
0.904254
0.530988
0.507202
0.445689
0.413836
0.416446
0.423518
0.423557
0.42084
0.407314
0.379038
0.356368
0.363127
0.50361
0.675067
0.761582
0.769247
0.778535
0.812847
0.874127
0.910709
0.685902
0.624772
0.538365
0.456171
0.459338
0.467417
0.462117
0.45127
0.446752
0.427759
0.390491
0.35641
0.370793
0.534103
0.684969
0.725419
0.766409
0.81307
0.890033
0.914607
0.869203
0.775889
0.669586
0.550758
0.515532
0.511166
0.507029
0.482165
0.474727
0.464639
0.42908
0.391681
0.355217
0.38804
0.523608
0.663286
0.74131
0.807485
0.893916
0.910832
1.25044
0.964185
0.840954
0.733887
0.605911
0.563529
0.555779
0.540534
0.528068
0.519898
0.496155
0.45803
0.405456
0.373594
0.387598
0.477452
0.60948
0.712723
0.818031
0.875768
2.04421
1.44952
1.16084
1.02235
0.883509
0.773623
0.679036
0.609212
0.588004
0.57152
0.544405
0.508851
0.482238
0.440424
0.414759
0.407661
0.423386
0.480378
0.569745
0.741816
2.50162
2.17657
1.71475
1.3341
1.10358
0.972381
0.861382
0.733473
0.671075
0.632882
0.581176
0.563948
0.552752
0.517804
0.474483
0.447968
0.436782
0.44453
0.472217
0.609924
2.36718
2.34994
2.2383
1.93255
1.53939
1.26079
1.10478
0.97611
0.877802
0.784419
0.672052
0.606979
0.596073
0.571713
0.528485
0.488238
0.486942
0.500501
0.521296
0.612772
1.68366
2.14615
2.22134
2.19277
2.06532
1.77466
1.48386
1.2503
1.06018
0.936718
0.836348
0.733955
0.659519
0.603541
0.548665
0.53738
0.545384
0.564859
0.597092
0.674616
1.10842
1.43455
1.8439
2.11336
2.11511
2.07572
1.93757
1.69063
1.39083
1.1849
1.07122
0.93893
0.818704
0.733283
0.648692
0.614916
0.610219
0.61223
0.63095
0.712794
1.00446
1.04407
1.20423
1.54538
1.86888
2.02383
2.01522
1.96097
1.81165
1.58545
1.36352
1.13831
0.982308
0.905917
0.825502
0.738083
0.70007
0.699393
0.706005
0.764327
1.00009
1.00112
1.0103
1.07912
1.27101
1.57409
1.83501
1.91788
1.89715
1.82963
1.69722
1.51844
1.31711
1.14519
1.02699
0.919647
0.86618
0.867477
0.880685
0.924307
1
1.00001
1.00015
1.00251
1.01928
1.10169
1.2989
1.5481
1.75494
1.78852
1.75651
1.6889
1.59454
1.46305
1.33106
1.21324
1.11429
1.06137
1.06105
1.07141
1
1
1
1.00003
1.00036
1.00375
1.02643
1.10838
1.2774
1.47366
1.62004
1.63593
1.59816
1.53889
1.46645
1.38727
1.31105
1.24363
1.20216
1.1416
1
1
1
1
1
1.00004
1.00057
1.00434
1.02635
1.08811
1.21235
1.34748
1.4397
1.45626
1.4349
1.38939
1.32867
1.2652
1.21103
1.13158
1
1
1
1
1
1
1
1.00005
1.00054
1.00345
1.0172
1.05264
1.11944
1.18507
1.23388
1.24294
1.22796
1.19288
1.14743
1.07479
1
1
1
1
1
1
1
1
1
1.00004
1.0003
1.00162
1.00659
1.01784
1.03537
1.05013
1.05397
1.04957
1.03726
1.01535
1
1
1
1
1
1
1
1
1
1
1
1.00002
1.00008
1.00033
1.001
1.00201
1.00263
1.00257
1.002
1.00075
1
1
1
1
1
1
1
1
1
1
1
1
1
1
1.00001
1.00002
1.00003
1.00003
1.00002
1.00001
1.6228
2.45896
2.58218
2.08353
1.30971
1.03707
1.00188
1.00005
1
1
1
1
1
1
1
2.34276
2.8137
2.52515
1.53953
1.04812
1.00081
1
1
1
1
1
1
1
1
1
2.93228
2.87002
1.97874
1.15232
1.00524
1.00005
1
1
1
1
1
1
1
1
1
3.25488
2.55767
1.36482
1.01915
1.00018
1
1
1
1
1
1
1
1
1
1
3.31971
1.68214
1.04706
1.00052
1
1
1
1
1
1
1
1
1
1
1
2.06696
1.07267
1.00047
0.999999
1
1
1
1
1
1
1
1
1
1
1
1.10238
1.00056
0.999997
1
1
1
1
1
1
1
1
1
1
1
1
0.998152
0.999866
0.999996
1
1
1
1
1
1
1
1
1
1
1
1
0.999966
1
1
1
1
1
1
1
1
1
1
1
1
1
1
1
1
1
1
1
1
1
1
1
1
1
1
1
1
1
1
1
1
1
1
1
1
1
1
1
1
1
1
1
1
1
1
1
1
1
1
1
1
1
1
1
1
1
1
1
1
1
1
1
1
1
1
1
1
1
1
1
1
1
1
1
1
1
1
1
1
1
1
1
1
1
1
1
1
1
1
1
1
1
1
1
1
1
1
1
1
1
1
1
1
1
1
1
1
1
1
1
1
1
1
1
1
1
1
1
1
1
1
1
1
1
1
1
1
1
1
1
1
1
1
1
1
1
1
1
1
1
1
1
1
1
1
1
1
1
1
1
1
1
1
1
1
1
1
1
1
1
1
1
1
1
1
1
1
1
1
1
1
1
1
1
1
1
1
1
1
1
1
1
1
1
1
1
1
1
1
1
1
1
1
1
1
1
1
1
1
1
1
1
1
1
1
1
1
1
1
1
1
1
1
1
1
1
1
1
1
1
1
1
1
1
1
1
1
1
1
1
1
1
1
1
1
1
1
1
1
1
1
1
1
1
1
1
1
1
1
1
1
1
1
1
1
1
1
1
1
1
1
1
1
1
1
1
1
1
1
1
1
1
1
1
1
1
1
1
1
1
1
1
1
1
1
1
1
1
1
1
1
1
1
1
1
1
1
1
1
1
1
1
1
1
1
1
1
1
1
1
1
1
1
1
1
1
1
1
1
1
1
1
1
1
1
1
1
1
1
1
1
1
1
1
1
1
1
1
1
1
1
1
1
1
1
1
1
1
1
1
1
1
1
1
1
1
1
1
1
1
1
1
1
1
1
1
1
1
1
1
1
1
1
1
1
1
1
1
1
1
1
1
1
1
1
1
1
1
1
1
1
1
1
1
1
1
1
1
1
1
1
1
1
1
1
1
1
1
1
1
1
1
1
1
1
1
1
1
1
1
1
1
1
1
1
1
1
1
1
1
1
1
1
1
1
1
1
1
1
1
1
1
1
1
1
1
1
1
1
1
1
1
1
1
1
1
1
1
1
1
1
1
1
1
1
1
1
1
1
1
1
1
1
1
1
1
1
1
1
1
1
1
1
1
1
1
1
1
1
1
1
1
1
1
1
1
1
1
1
1
1
1
1
1
1
1
1
1
1
1
1
1
1
1
1
1
1
1
1
1
1
1
1
1
1
1
1
1
1
1
1
1
1
1
1
1
1
1
1
1
1
1
1
1
1
1
1
1
1
1
1
1
1
1
1
1
1
1
1
1
1
1
1
1
1
1
1
1
1
1
1
1
1
1
1
1
1
1
1
1
1
1
1
1
1
1
1
1
1
1
1
1
1
1
1
1
1
1
1
1
1
1
1
1
1
1
1
1
1
1
1
1
1
1
1
1
1
1
1
1
1
1
1
1
1
1
1
1
1
1
1
1
1
1
1
1
1
1
1
1
1
1
1
1
1
1
1
1
1
1
1
1
1
1
1
1
1
1
1
1
1
1
1
1
1
1
1
1
1
1
1
1
1
1
1
1
1
1
1
1
1
1
1
1
1
1
1
1
1
1
1
1
1
1
1
1
1
1
1
1
1
1
1
1
1
1
1
1
1
1
1
1
1
1
1
1
1
1
1
1
1
1
1
1
1
1
1
1
1
1
1
1
1
1
1
1
1
1
1
1
1
1
1
1
1
1
1
1
1
1
1
1
1
1
1
1
1
1
1
1
1
1
1
1
1
1
1
1
1
1
1
1
1
1
1
1
1
1
1
1
1
1
1
1
1
1
1
1
1
1
1
1
1
1
1
1
1
1
1
1
1
1
1
1
1
1
1
1
1
1
1
1
1
1
1
1
1
1
1
1
1
1
1
1
1
1
1
1
1
1
1
1
1
1
1
1
1
1
1
1
1
1
1
0.999966
1
1
1
1
1
1
1
1
1
1
1
1
1
1
0.998151
0.999866
0.999996
1
1
1
1
1
1
1
1
1
1
1
1
1.10239
1.00056
0.999997
1
1
1
1
1
1
1
1
1
1
1
1
2.06694
1.07268
1.00047
0.999999
1
1
1
1
1
1
1
1
1
1
1
3.31961
1.68215
1.04707
1.00052
1
1
1
1
1
1
1
1
1
1
1
3.25482
2.55767
1.36485
1.01915
1.00018
1
1
1
1
1
1
1
1
1
1
2.93219
2.86997
1.9787
1.15233
1.00524
1.00005
1
1
1
1
1
1
1
1
1
2.34284
2.81366
2.52514
1.5395
1.04811
1.00081
1
1
1
1
1
1
1
1
1
1.62269
2.45896
2.58219
2.0835
1.30969
1.03707
1.00188
1.00005
1
1
1
1
1
1
1
1.25139
2.04395
2.50121
2.3671
1.68371
1.10843
1.00446
1.00009
1
1
1
1
1
1
1
0.963427
1.45033
2.17681
2.34992
2.14623
1.4346
1.04407
1.00112
1.00001
1
1
1
1
1
1
0.839972
1.1599
1.71545
2.23851
2.22133
1.84394
1.20425
1.0103
1.00015
1
1
1
1
1
1
0.734827
1.02226
1.33337
1.93222
2.19272
2.1134
1.54549
1.07915
1.00251
1.00003
1
1
1
1
1
0.606206
0.882764
1.10315
1.54024
2.06537
2.11514
1.86889
1.27107
1.01929
1.00036
1
1
1
1
1
0.563743
0.773635
0.971859
1.26043
1.77483
2.07582
2.02389
1.57407
1.10169
1.00375
1.00004
1
1
1
1
0.555929
0.679998
0.861197
1.10373
1.48373
1.93769
2.01526
1.83499
1.29882
1.02642
1.00057
1
1
1
1
0.539974
0.609551
0.734191
0.976421
1.25004
1.6905
1.96102
1.91789
1.54803
1.10833
1.00434
1.00005
1
1
1
0.52785
0.588174
0.671799
0.878438
1.0605
1.39112
1.8116
1.89719
1.75493
1.27736
1.02635
1.00054
1
1
1
0.519914
0.57119
0.633033
0.785072
0.936657
1.18483
1.58588
1.82974
1.78857
1.47366
1.08811
1.00345
1.00004
1
1
0.496528
0.543275
0.579826
0.672767
0.836973
1.07151
1.36394
1.69731
1.75654
1.62006
1.21236
1.0172
1.0003
1
1
0.458408
0.508074
0.562782
0.60641
0.735387
0.939504
1.13796
1.51839
1.68889
1.63593
1.34749
1.05265
1.00162
1.00002
1
0.4057
0.482408
0.552024
0.594813
0.660075
0.819317
0.981789
1.31706
1.59451
1.59815
1.4397
1.11944
1.00659
1.00008
1
0.373767
0.441994
0.51819
0.570353
0.602338
0.734186
0.905819
1.14517
1.46304
1.53887
1.45625
1.18507
1.01783
1.00033
1
0.387618
0.416454
0.476102
0.528576
0.547005
0.64891
0.825899
1.02657
1.33091
1.46644
1.43489
1.23387
1.03537
1.001
1.00001
0.475614
0.40813
0.449384
0.489257
0.535768
0.614075
0.738899
0.918861
1.2131
1.38726
1.38938
1.24293
1.05013
1.00201
1.00002
0.60745
0.423246
0.438279
0.488216
0.543747
0.609005
0.701319
0.865638
1.11432
1.31106
1.32867
1.22796
1.05397
1.00263
1.00003
0.710266
0.47865
0.446084
0.5024
0.563388
0.610853
0.700615
0.867002
1.06132
1.24364
1.2652
1.19287
1.04957
1.00257
1.00003
0.812359
0.566987
0.473534
0.524533
0.596781
0.629584
0.706852
0.880431
1.06087
1.2021
1.211
1.14742
1.03726
1.002
1.00002
0.868771
0.739759
0.610097
0.61625
0.676158
0.712667
0.764509
0.924
1.07104
1.14149
1.13152
1.07478
1.01535
1.00075
1.00001
0.869501
0.776155
0.669244
0.550588
0.515459
0.511332
0.507008
0.481179
0.47448
0.46512
0.430334
0.392629
0.355066
0.386895
0.52544
0.664624
0.737769
0.805008
0.89367
0.910478
0.685972
0.625096
0.538094
0.456204
0.459442
0.4676
0.462156
0.450784
0.446554
0.428176
0.391302
0.356455
0.369323
0.532031
0.684036
0.725139
0.763523
0.81428
0.891778
0.914685
0.530997
0.5069
0.445738
0.414519
0.416868
0.423104
0.423428
0.420648
0.407192
0.379078
0.356604
0.362906
0.500635
0.673871
0.758234
0.769163
0.782726
0.817769
0.8794
0.914163
0.411832
0.405105
0.37238
0.366701
0.375465
0.376006
0.382427
0.385322
0.373743
0.34404
0.358981
0.486876
0.691542
0.756433
0.783254
0.782907
0.78377
0.815927
0.872334
0.909873
0.318008
0.319991
0.325369
0.333584
0.335971
0.336063
0.345416
0.33932
0.344124
0.39544
0.530785
0.68584
0.793676
0.803018
0.795748
0.780277
0.786946
0.816404
0.864079
0.901201
0.237494
0.258142
0.268649
0.291368
0.304534
0.298272
0.313117
0.403622
0.540072
0.651019
0.743817
0.80515
0.822312
0.821098
0.798789
0.778173
0.783804
0.806979
0.846645
0.891246
0.186128
0.215344
0.232495
0.242064
0.262917
0.360693
0.537094
0.717505
0.773631
0.7793
0.807655
0.83218
0.824236
0.81917
0.791724
0.778055
0.782682
0.801791
0.83731
0.886282
0.136405
0.161076
0.228121
0.329928
0.528986
0.699316
0.760703
0.803256
0.830388
0.827338
0.834959
0.833389
0.828309
0.818929
0.787716
0.7787
0.784197
0.803787
0.841676
0.890471
0.275411
0.40876
0.534028
0.68689
0.777456
0.813339
0.83741
0.82561
0.828045
0.838293
0.849282
0.843641
0.832724
0.812385
0.781183
0.775952
0.784565
0.803295
0.842148
0.889382
0.556759
0.631679
0.70937
0.820123
0.832338
0.824768
0.832986
0.836756
0.840084
0.852053
0.86133
0.850721
0.827537
0.800646
0.781705
0.782663
0.794901
0.816326
0.862187
0.904037
)
;

boundaryField
{
    inlet
    {
        type            fixedValue;
        value           uniform 1;
    }
    outlet
    {
        type            zeroGradient;
    }
    airfoil
    {
        type            zeroGradient;
    }
    top
    {
        type            symmetryPlane;
    }
    bottom
    {
        type            symmetryPlane;
    }
    defaultFaces
    {
        type            empty;
    }
}


// ************************************************************************* //
