/*--------------------------------*- C++ -*----------------------------------*\
  =========                 |
  \\      /  F ield         | OpenFOAM: The Open Source CFD Toolbox
   \\    /   O peration     | Website:  https://openfoam.org
    \\  /    A nd           | Version:  7
     \\/     M anipulation  |
\*---------------------------------------------------------------------------*/
FoamFile
{
    version     2.0;
    format      ascii;
    class       volScalarField;
    location    "2.1";
    object      rho;
}
// * * * * * * * * * * * * * * * * * * * * * * * * * * * * * * * * * * * * * //

dimensions      [1 -3 0 0 0 0 0];

internalField   nonuniform List<scalar> 
3700
(
0.125936
0.245243
0.307386
0.3985
0.452818
0.521774
0.570617
0.602359
0.607608
0.603269
0.628875
0.649971
0.654811
0.653945
0.677558
0.694853
0.711758
0.704263
0.702645
0.713178
0.0847679
0.115175
0.153028
0.192171
0.185984
0.19185
0.204807
0.210854
0.192403
0.172112
0.191333
0.211535
0.223605
0.232929
0.254219
0.287889
0.301511
0.282737
0.268937
0.262384
0.0852277
0.103358
0.117547
0.110298
0.0926239
0.0778709
0.0686563
0.0688407
0.0723834
0.0765592
0.0898074
0.101617
0.115955
0.132904
0.146367
0.155706
0.161606
0.164435
0.165603
0.168929
0.0954586
0.105798
0.105466
0.0957294
0.0806743
0.0794282
0.0826185
0.0842151
0.0876518
0.0976466
0.101317
0.111242
0.128044
0.151159
0.173506
0.195931
0.217785
0.23195
0.239825
0.241897
0.101131
0.100703
0.0975774
0.0856492
0.0797526
0.087384
0.0989694
0.117869
0.136458
0.154773
0.145101
0.149106
0.149314
0.161647
0.184992
0.21412
0.245644
0.277504
0.309158
0.332535
0.116556
0.0964394
0.0891922
0.0758579
0.0739645
0.0849775
0.100571
0.127613
0.163108
0.188448
0.205705
0.225695
0.224572
0.232975
0.235403
0.2456
0.27024
0.318647
0.367966
0.443218
0.134654
0.0893979
0.0735557
0.0689044
0.070232
0.0808932
0.0953768
0.123247
0.165287
0.203217
0.244296
0.27249
0.304689
0.33463
0.346655
0.358867
0.372765
0.394408
0.440174
0.557057
0.137313
0.0768552
0.066328
0.0674443
0.0739444
0.0864741
0.0992999
0.121983
0.157893
0.199876
0.257159
0.302648
0.364194
0.412285
0.458589
0.501041
0.537797
0.568732
0.607368
0.741311
0.131647
0.066315
0.0639998
0.0741695
0.0912951
0.119913
0.142715
0.168994
0.19468
0.21448
0.260775
0.319478
0.404779
0.47902
0.556689
0.638726
0.714101
0.787924
0.841377
1.01564
0.121374
0.0570033
0.0603004
0.0786803
0.0992042
0.148718
0.198259
0.251431
0.297331
0.342201
0.385611
0.433548
0.49975
0.582558
0.674944
0.790561
0.920176
1.04464
1.16373
1.33629
0.0942233
0.0457922
0.052694
0.0639155
0.0921557
0.154908
0.2232
0.29618
0.380166
0.497317
0.588692
0.679478
0.768782
0.858409
0.936314
1.03945
1.1895
1.34927
1.62201
1.59643
0.0643906
0.0370151
0.0421103
0.0510859
0.0884606
0.146826
0.216987
0.298796
0.427165
0.620438
0.771764
0.926776
1.07822
1.20859
1.33917
1.48762
1.65119
1.82552
2.14179
2.10092
0.0433774
0.0298141
0.0389467
0.0475308
0.0898151
0.163315
0.24036
0.340853
0.548695
0.786206
1.02081
1.2365
1.45005
1.6345
1.85849
2.09639
2.33009
2.5547
2.90927
2.89199
0.0312062
0.0248292
0.0366335
0.0457588
0.138922
0.333751
0.517886
0.755972
1.06837
1.34255
1.59764
1.82577
2.05866
2.28464
2.5885
2.92535
3.26205
3.60436
3.88592
4.17597
0.0194969
0.0252325
0.0339593
0.0752905
0.315003
0.609322
0.908653
1.28214
1.72004
2.13605
2.44739
2.74302
3.04509
3.36027
3.76568
4.15932
4.54643
4.87693
5.07994
5.25407
0.0116802
0.034164
0.0785313
0.230417
0.574996
0.951489
1.45277
2.02585
2.63314
3.16785
3.57666
3.97419
4.3601
4.7666
5.21153
5.51769
5.70119
5.75606
5.62594
5.44721
0.00996877
0.0660068
0.218077
0.558994
1.15942
1.97778
2.75656
3.54248
4.36143
4.8961
5.22485
5.56324
5.85435
6.07456
6.20105
6.10111
5.8075
5.07459
3.89236
2.64364
0.056359
0.237291
0.681462
1.60541
2.90425
4.05654
4.98433
5.91772
6.59287
6.6966
6.57326
6.57838
6.52057
6.29109
5.59186
4.27076
2.91906
1.86302
1.42547
1.39008
0.420335
1.17652
2.74927
4.47178
5.90558
6.77617
7.50738
8.14401
7.9426
7.31756
6.72474
5.98341
4.7124
3.23843
1.99289
1.44147
1.38518
1.39293
1.39628
1.39923
3.22834
5.07043
6.83902
7.95445
8.68844
8.94156
9.0825
8.67216
6.31414
4.46318
3.30295
2.18242
1.51041
1.38236
1.38999
1.39475
1.39881
1.39997
1.40003
1.40002
9.66387
9.62496
9.58781
9.63
9.74379
9.42676
8.3646
3.35693
0.871902
1.40001
1.40001
1.40001
1.40001
1.40001
1.40001
1.40001
1.40001
1.40001
1.40001
1.40001
9.60751
9.56218
9.49054
9.37688
9.44892
8.11723
3.61193
1.42455
1.40001
1.40001
1.40001
1.40001
1.40001
1.40001
1.40001
1.40001
1.40001
1.40001
1.40001
1.40001
9.43877
9.50283
9.46693
9.2428
8.71882
4.5193
1.42616
1.39967
1.40001
1.40001
1.40001
1.40001
1.40001
1.40001
1.40001
1.40001
1.40001
1.40001
1.40001
1.40001
9.28428
9.46978
9.45617
9.03867
6.51351
1.98471
1.39382
1.4001
1.4
1.40001
1.40001
1.40001
1.40001
1.40001
1.40001
1.40001
1.40001
1.40001
1.40001
1.40001
9.06346
9.46826
9.45001
8.44135
3.84247
1.36455
1.40046
1.4
1.40001
1.40001
1.40001
1.40001
1.40001
1.40001
1.40001
1.40001
1.40001
1.40001
1.40001
1.40001
8.87832
9.39837
9.44902
6.95703
2.03521
1.40001
1.40001
1.40001
1.40001
1.40001
1.40001
1.40001
1.40001
1.40001
1.40001
1.40001
1.40001
1.40001
1.40001
1.40001
8.80288
9.25549
9.27164
4.92413
1.36259
1.40001
1.40001
1.40001
1.40001
1.40001
1.40001
1.40001
1.40001
1.40001
1.40001
1.40001
1.40001
1.40001
1.40001
1.40001
8.99438
9.1685
8.35048
2.88452
1.4
1.40001
1.40001
1.40001
1.40001
1.40001
1.40001
1.40001
1.40001
1.40001
1.40001
1.40001
1.40001
1.40001
1.40001
1.40001
9.64254
9.28615
6.79057
1.6203
1.40001
1.40001
1.40001
1.40001
1.40001
1.40001
1.40001
1.40001
1.40001
1.40001
1.40001
1.40001
1.40001
1.40001
1.40001
1.40001
10.002
8.79115
4.81471
1.38344
1.40001
1.40001
1.40001
1.40001
1.40001
1.40001
1.40001
1.40001
1.40001
1.40001
1.40001
1.40001
1.40001
1.40001
1.40001
1.40001
10.272
8.32108
3.25158
1.40001
1.40001
1.40001
1.40001
1.40001
1.40001
1.40001
1.40001
1.40001
1.40001
1.40001
1.40001
1.40001
1.40001
1.40001
1.40001
1.40001
10.3617
7.59306
2.28018
1.40001
1.40001
1.40001
1.40001
1.40001
1.40001
1.40001
1.40001
1.40001
1.40001
1.40001
1.40001
1.40001
1.40001
1.40001
1.40001
1.40001
10.4063
6.63237
1.67198
1.40001
1.40001
1.40001
1.40001
1.40001
1.40001
1.40001
1.40001
1.40001
1.40001
1.40001
1.40001
1.40001
1.40001
1.40001
1.40001
1.40001
10.2517
5.55128
1.41735
1.40001
1.40001
1.40001
1.40001
1.40001
1.40001
1.40001
1.40001
1.40001
1.40001
1.40001
1.40001
1.40001
1.40001
1.40001
1.40001
1.40001
9.97243
4.41035
1.40001
1.40001
1.40001
1.40001
1.40001
1.40001
1.40001
1.40001
1.40001
1.40001
1.40001
1.40001
1.40001
1.40001
1.40001
1.40001
1.40001
1.40001
9.64267
3.50985
1.40001
1.40001
1.40001
1.40001
1.40001
1.40001
1.40001
1.40001
1.40001
1.40001
1.40001
1.40001
1.40001
1.40001
1.40001
1.40001
1.40001
1.40001
9.38061
2.59725
1.40001
1.40001
1.40001
1.40001
1.40001
1.40001
1.40001
1.40001
1.40001
1.40001
1.40001
1.40001
1.40001
1.40001
1.40001
1.40001
1.40001
1.40001
8.70737
1.85886
1.40001
1.40001
1.40001
1.40001
1.40001
1.40001
1.40001
1.40001
1.40001
1.40001
1.40001
1.40001
1.40001
1.40001
1.40001
1.40001
1.40001
1.40001
7.8551
1.4069
1.40001
1.40001
1.40001
1.40001
1.40001
1.40001
1.40001
1.40001
1.40001
1.40001
1.40001
1.40001
1.40001
1.40001
1.40001
1.40001
1.40001
1.40001
6.46557
1.40015
1.40001
1.40001
1.40001
1.40001
1.40001
1.40001
1.40001
1.40001
1.40001
1.40001
1.40001
1.40001
1.40001
1.40001
1.40001
1.40001
1.40001
1.40001
6.46553
1.40015
1.40001
1.40001
1.40001
1.40001
1.40001
1.40001
1.40001
1.40001
1.40001
1.40001
1.40001
1.40001
1.40001
1.40001
1.40001
1.40001
1.40001
1.40001
7.85515
1.4069
1.40001
1.40001
1.40001
1.40001
1.40001
1.40001
1.40001
1.40001
1.40001
1.40001
1.40001
1.40001
1.40001
1.40001
1.40001
1.40001
1.40001
1.40001
8.70737
1.85888
1.40001
1.40001
1.40001
1.40001
1.40001
1.40001
1.40001
1.40001
1.40001
1.40001
1.40001
1.40001
1.40001
1.40001
1.40001
1.40001
1.40001
1.40001
9.38055
2.59724
1.40001
1.40001
1.40001
1.40001
1.40001
1.40001
1.40001
1.40001
1.40001
1.40001
1.40001
1.40001
1.40001
1.40001
1.40001
1.40001
1.40001
1.40001
9.64266
3.50984
1.40001
1.40001
1.40001
1.40001
1.40001
1.40001
1.40001
1.40001
1.40001
1.40001
1.40001
1.40001
1.40001
1.40001
1.40001
1.40001
1.40001
1.40001
9.97247
4.41036
1.40001
1.40001
1.40001
1.40001
1.40001
1.40001
1.40001
1.40001
1.40001
1.40001
1.40001
1.40001
1.40001
1.40001
1.40001
1.40001
1.40001
1.40001
10.2517
5.55126
1.41736
1.40001
1.40001
1.40001
1.40001
1.40001
1.40001
1.40001
1.40001
1.40001
1.40001
1.40001
1.40001
1.40001
1.40001
1.40001
1.40001
1.40001
10.4064
6.63258
1.67195
1.40001
1.40001
1.40001
1.40001
1.40001
1.40001
1.40001
1.40001
1.40001
1.40001
1.40001
1.40001
1.40001
1.40001
1.40001
1.40001
1.40001
10.3617
7.59274
2.28031
1.40001
1.40001
1.40001
1.40001
1.40001
1.40001
1.40001
1.40001
1.40001
1.40001
1.40001
1.40001
1.40001
1.40001
1.40001
1.40001
1.40001
10.272
8.32129
3.25136
1.40001
1.40001
1.40001
1.40001
1.40001
1.40001
1.40001
1.40001
1.40001
1.40001
1.40001
1.40001
1.40001
1.40001
1.40001
1.40001
1.40001
10.0019
8.79114
4.8149
1.38344
1.40001
1.40001
1.40001
1.40001
1.40001
1.40001
1.40001
1.40001
1.40001
1.40001
1.40001
1.40001
1.40001
1.40001
1.40001
1.40001
9.64249
9.28628
6.79079
1.62027
1.40001
1.40001
1.40001
1.40001
1.40001
1.40001
1.40001
1.40001
1.40001
1.40001
1.40001
1.40001
1.40001
1.40001
1.40001
1.40001
8.99443
9.16853
8.35068
2.88462
1.4
1.40001
1.40001
1.40001
1.40001
1.40001
1.40001
1.40001
1.40001
1.40001
1.40001
1.40001
1.40001
1.40001
1.40001
1.40001
8.80295
9.25542
9.27127
4.92381
1.36259
1.40001
1.40001
1.40001
1.40001
1.40001
1.40001
1.40001
1.40001
1.40001
1.40001
1.40001
1.40001
1.40001
1.40001
1.40001
8.87819
9.39819
9.44916
6.95751
2.03488
1.40001
1.40001
1.40001
1.40001
1.40001
1.40001
1.40001
1.40001
1.40001
1.40001
1.40001
1.40001
1.40001
1.40001
1.40001
9.0633
9.46811
9.44987
8.44058
3.84249
1.36455
1.40046
1.4
1.40001
1.40001
1.40001
1.40001
1.40001
1.40001
1.40001
1.40001
1.40001
1.40001
1.40001
1.40001
9.28435
9.46983
9.45611
9.03911
6.51431
1.98434
1.3938
1.4001
1.4
1.40001
1.40001
1.40001
1.40001
1.40001
1.40001
1.40001
1.40001
1.40001
1.40001
1.40001
9.43901
9.50298
9.46703
9.24287
8.71847
4.51922
1.42635
1.39967
1.40001
1.40001
1.40001
1.40001
1.40001
1.40001
1.40001
1.40001
1.40001
1.40001
1.40001
1.40001
9.60772
9.56226
9.49052
9.37669
9.44885
8.11741
3.61115
1.42443
1.40001
1.40001
1.40001
1.40001
1.40001
1.40001
1.40001
1.40001
1.40001
1.40001
1.40001
1.40001
9.6639
9.62495
9.58763
9.62953
9.74369
9.42829
8.36548
3.35584
0.872022
1.40001
1.40001
1.40001
1.40001
1.40001
1.40001
1.40001
1.40001
1.40001
1.40001
1.40001
3.22602
5.05263
6.81747
7.94652
8.69109
8.94653
9.08578
8.67458
6.31538
4.4635
3.3027
2.18191
1.51017
1.38236
1.39
1.39476
1.39881
1.39997
1.40003
1.40002
0.437721
1.23358
2.78922
4.47007
5.89502
6.77355
7.50602
8.14357
7.9422
7.31728
6.7245
5.98293
4.71157
3.23732
1.99202
1.44123
1.38518
1.39294
1.39628
1.39923
0.0340026
0.196256
0.688095
1.636
2.90997
4.04945
4.9808
5.91763
6.5937
6.69691
6.57359
6.57878
6.52083
6.29103
5.59108
4.2696
2.91815
1.86269
1.42544
1.39008
0.0146733
0.0456627
0.214052
0.555133
1.16916
1.98352
2.75567
3.54022
4.35955
4.89483
5.22446
5.56321
5.85462
6.07517
6.20167
6.10155
5.80761
5.07447
3.89224
2.64366
0.0187393
0.0282883
0.0570152
0.232869
0.581078
0.959567
1.45775
2.02891
2.63544
3.16972
3.5779
3.97487
4.36081
4.76786
5.21306
5.51896
5.70169
5.75597
5.62576
5.44696
0.0298455
0.0243211
0.0228056
0.0706193
0.304136
0.606414
0.913063
1.28732
1.72443
2.13849
2.44855
2.74334
3.04529
3.36063
3.76635
4.16007
4.54692
4.87702
5.07976
5.25381
0.039338
0.02626
0.0243029
0.0390796
0.129591
0.327704
0.516516
0.756523
1.06875
1.3423
1.59708
1.82495
2.05786
2.2843
2.58893
2.92624
3.26295
3.60476
3.886
4.17592
0.052625
0.0315161
0.0290168
0.0414131
0.0869905
0.161104
0.23902
0.339299
0.548046
0.786874
1.021
1.23619
1.44963
1.63438
1.85867
2.09666
2.33019
2.55478
2.9092
2.89194
0.0716401
0.0394898
0.0372374
0.0469054
0.0862787
0.145663
0.21711
0.300439
0.428847
0.621154
0.771831
0.92631
1.07762
1.20823
1.33872
1.48707
1.65079
1.82531
2.14197
2.10121
0.0948343
0.04663
0.0512578
0.0623239
0.0903015
0.154187
0.223876
0.297593
0.381213
0.497107
0.588002
0.678595
0.767761
0.857401
0.935476
1.03901
1.18972
1.34972
1.62234
1.59661
0.119033
0.0553038
0.059674
0.0785632
0.098382
0.14896
0.199385
0.252087
0.297718
0.341547
0.38436
0.43224
0.498904
0.582393
0.675431
0.791267
0.920642
1.04484
1.16369
1.33627
0.130822
0.0664
0.0646095
0.0745035
0.091472
0.121464
0.144603
0.170156
0.19552
0.214808
0.261027
0.320065
0.405782
0.480033
0.55753
0.639145
0.714073
0.787541
0.840969
1.01535
0.135771
0.0803291
0.0684617
0.0692732
0.0750157
0.0878993
0.100289
0.123002
0.158287
0.200336
0.257855
0.303537
0.365158
0.413087
0.458934
0.500851
0.53715
0.567931
0.606675
0.740934
0.13045
0.0919533
0.0791183
0.0709024
0.0717933
0.082093
0.0951586
0.12405
0.165443
0.203423
0.244785
0.2732
0.305281
0.335135
0.346243
0.357937
0.371628
0.3935
0.439905
0.557345
0.111406
0.0978661
0.0923047
0.0782028
0.0753734
0.0859989
0.0997491
0.127727
0.16297
0.188448
0.205957
0.226136
0.22452
0.2326
0.234674
0.244781
0.269911
0.318913
0.368441
0.443394
0.095299
0.101119
0.0984474
0.0875001
0.080118
0.0877151
0.0979661
0.117439
0.136469
0.155021
0.145299
0.149368
0.149506
0.161552
0.184687
0.213909
0.245757
0.277836
0.309574
0.332389
0.0915922
0.104938
0.104436
0.0952019
0.0802669
0.0790588
0.081005
0.08384
0.0882233
0.0984503
0.102087
0.111685
0.128138
0.151002
0.173244
0.195848
0.218044
0.232132
0.239604
0.241627
0.0832999
0.102025
0.1163
0.109123
0.0912588
0.076135
0.0683318
0.068404
0.0726014
0.0771799
0.0901717
0.101643
0.115894
0.132823
0.146204
0.155564
0.161805
0.164604
0.165659
0.16858
0.0833852
0.113367
0.142905
0.171473
0.204116
0.196218
0.170285
0.155703
0.173413
0.18302
0.189279
0.190058
0.209332
0.244545
0.261393
0.265441
0.273526
0.286574
0.301315
0.286975
0.127009
0.245828
0.299677
0.367526
0.455616
0.537533
0.554835
0.572963
0.603799
0.613499
0.624318
0.632409
0.652451
0.663641
0.674517
0.67906
0.707502
0.719319
0.728046
0.717772
0.773333
0.875084
0.983407
1.13638
1.15474
1.13702
1.14334
1.15316
1.16147
1.17344
1.17709
1.16087
1.13323
1.11113
1.08558
1.08928
1.11002
1.14343
1.20835
1.26677
0.38215
0.568255
0.742792
0.953465
1.0804
1.12942
1.16298
1.15389
1.15943
1.16962
1.18061
1.16995
1.15048
1.12366
1.0838
1.08127
1.09787
1.12896
1.18905
1.25173
0.190929
0.225228
0.319807
0.460627
0.736555
0.973972
1.06129
1.12552
1.15352
1.15106
1.15898
1.15509
1.14563
1.13313
1.09287
1.08456
1.09553
1.12527
1.18493
1.25336
0.260471
0.301002
0.325056
0.338825
0.367859
0.504131
0.752577
1.00573
1.07573
1.08397
1.12333
1.15641
1.14323
1.13665
1.09905
1.08345
1.09231
1.12177
1.17477
1.24406
0.332208
0.360977
0.375116
0.407036
0.426144
0.41732
0.438827
0.565634
0.76133
0.909137
1.03732
1.12096
1.14377
1.14216
1.11054
1.08143
1.08894
1.12269
1.17762
1.24318
0.444066
0.447695
0.454821
0.465517
0.469065
0.469891
0.483166
0.474355
0.482348
0.552965
0.739367
0.958973
1.10954
1.1212
1.11191
1.08548
1.0895
1.12914
1.19501
1.25196
0.574814
0.56621
0.520109
0.511723
0.524606
0.526554
0.534494
0.538465
0.522742
0.480865
0.501566
0.680241
0.968385
1.06193
1.09516
1.08795
1.08628
1.1309
1.20931
1.26521
0.741115
0.708045
0.622408
0.578041
0.581682
0.591551
0.591623
0.587866
0.569045
0.529663
0.498113
0.507569
0.70328
0.941793
1.06215
1.07295
1.08621
1.13476
1.22139
1.27422
0.956726
0.871681
0.75141
0.636964
0.641409
0.652706
0.64537
0.630304
0.624039
0.597595
0.545683
0.498232
0.518332
0.745836
0.955836
1.01233
1.06973
1.1354
1.24376
1.27966
1.21162
1.08185
0.933992
0.768627
0.719661
0.713657
0.707958
0.673386
0.663064
0.649028
0.599496
0.547407
0.49665
0.542471
0.731412
0.926007
1.0351
1.12794
1.24939
1.27443
1.74139
1.34375
1.17247
1.02356
0.84554
0.786637
0.775911
0.754748
0.737444
0.726098
0.693048
0.639975
0.566738
0.52239
0.542004
0.667369
0.851785
0.996325
1.144
1.22567
2.84428
2.01851
1.61747
1.42504
1.23197
1.07916
0.947623
0.850505
0.821047
0.798144
0.760426
0.710951
0.673932
0.615705
0.580025
0.570295
0.592545
0.67259
0.797842
1.03881
3.4811
3.0294
2.38779
1.85893
1.53849
1.35605
1.20165
1.02366
0.936877
0.883792
0.811835
0.787906
0.772402
0.723815
0.663546
0.626722
0.611413
0.6227
0.6618
0.854658
3.29797
3.27203
3.11676
2.69167
2.14514
1.7578
1.54082
1.3618
1.22504
1.09512
0.938674
0.848089
0.833036
0.799231
0.739086
0.683115
0.68167
0.701068
0.730596
0.858721
2.35125
2.99335
3.09608
3.05515
2.87778
2.47347
2.069
1.74408
1.47953
1.30769
1.16791
1.02532
0.921747
0.843878
0.76747
0.751991
0.763526
0.791193
0.83666
0.945262
1.55113
2.00548
2.57495
2.94882
2.94967
2.89401
2.70165
2.35793
1.94066
1.654
1.49574
1.31154
1.14411
1.02519
0.907382
0.860525
0.854344
0.857633
0.884101
0.998696
1.40623
1.46148
1.68484
2.1602
2.61032
2.82516
2.81197
2.73589
2.52785
2.21282
1.90378
1.59011
1.37282
1.26653
1.1546
1.03283
0.980112
0.979631
0.98911
1.07075
1.40013
1.40157
1.41438
1.51039
1.77802
2.20044
2.56363
2.6784
2.64864
2.55439
2.36982
2.12075
1.84029
1.60082
1.43623
1.2867
1.21238
1.21459
1.23321
1.29424
1.40001
1.40002
1.40021
1.40351
1.42692
1.5419
1.81697
2.16435
2.45247
2.49869
2.45378
2.35945
2.22796
2.04476
1.8609
1.69681
1.55901
1.48539
1.4851
1.49964
1.40001
1.40001
1.40001
1.40004
1.40051
1.40524
1.4369
1.55123
1.78702
2.06065
2.26467
2.28656
2.23383
2.15119
2.05029
1.94
1.83381
1.73987
1.68209
1.59762
1.40001
1.40001
1.40001
1.40001
1.40001
1.40006
1.4008
1.40607
1.43678
1.52296
1.69629
1.88475
2.01335
2.03646
2.00667
1.9432
1.85854
1.77004
1.6945
1.58363
1.40001
1.40001
1.40001
1.40001
1.40001
1.40001
1.40001
1.40008
1.40076
1.40482
1.42401
1.47347
1.56667
1.65825
1.72637
1.73902
1.71812
1.66917
1.60576
1.50439
1.40001
1.40001
1.40001
1.40001
1.40001
1.40001
1.40001
1.40001
1.40001
1.40006
1.40043
1.40227
1.4092
1.4249
1.44936
1.46997
1.47533
1.46919
1.45201
1.42143
1.40001
1.40001
1.40001
1.40001
1.40001
1.40001
1.40001
1.40001
1.40001
1.40001
1.40001
1.40003
1.40012
1.40047
1.40139
1.40282
1.40367
1.4036
1.4028
1.40105
1.40001
1.40001
1.40001
1.40001
1.40001
1.40001
1.40001
1.40001
1.40001
1.40001
1.40001
1.40001
1.40001
1.40001
1.40002
1.40003
1.40005
1.40005
1.40004
1.40002
2.25842
3.42021
3.59315
2.90487
1.83099
1.45165
1.40263
1.40007
1.40001
1.40001
1.40001
1.40001
1.40001
1.40001
1.40001
3.25801
3.91325
3.51701
2.15069
1.46705
1.40113
1.40001
1.4
1.40001
1.40001
1.40001
1.40001
1.40001
1.40001
1.40001
4.07651
3.99268
2.75996
1.61207
1.40731
1.40008
1.40001
1.40001
1.40001
1.40001
1.40001
1.40001
1.40001
1.40001
1.40001
4.52432
3.56229
1.90757
1.42669
1.40026
1.40001
1.40001
1.40001
1.40001
1.40001
1.40001
1.40001
1.40001
1.40001
1.40001
4.6176
2.34834
1.46554
1.40073
1.40001
1.4
1.40001
1.40001
1.40001
1.40001
1.40001
1.40001
1.40001
1.40001
1.40001
2.88241
1.50118
1.40065
1.4
1.4
1.4
1.40001
1.40001
1.40001
1.40001
1.40001
1.40001
1.40001
1.40001
1.40001
1.54267
1.40079
1.4
1.4
1.40001
1.40001
1.40001
1.40001
1.40001
1.40001
1.40001
1.40001
1.40001
1.40001
1.40001
1.39743
1.39982
1.4
1.4
1.40001
1.40001
1.40001
1.40001
1.40001
1.40001
1.40001
1.40001
1.40001
1.40001
1.40001
1.39996
1.40001
1.40001
1.40001
1.40001
1.40001
1.40001
1.40001
1.40001
1.40001
1.40001
1.40001
1.40001
1.40001
1.40001
1.40001
1.40001
1.40001
1.40001
1.40001
1.40001
1.40001
1.40001
1.40001
1.40001
1.40001
1.40001
1.40001
1.40001
1.40001
1.40001
1.40001
1.40001
1.40001
1.40001
1.40001
1.40001
1.40001
1.40001
1.40001
1.40001
1.40001
1.40001
1.40001
1.40001
1.40001
1.40001
1.40001
1.40001
1.40001
1.40001
1.40001
1.40001
1.40001
1.40001
1.40001
1.40001
1.40001
1.40001
1.40001
1.40001
1.40001
1.40001
1.40001
1.40001
1.40001
1.40001
1.40001
1.40001
1.40001
1.40001
1.40001
1.40001
1.40001
1.40001
1.40001
1.40001
1.40001
1.40001
1.40001
1.40001
1.40001
1.40001
1.40001
1.40001
1.40001
1.40001
1.40001
1.40001
1.40001
1.40001
1.40001
1.40001
1.40001
1.40001
1.40001
1.40001
1.40001
1.40001
1.40001
1.40001
1.40001
1.40001
1.40001
1.40001
1.40001
1.40001
1.40001
1.40001
1.40001
1.40001
1.40001
1.40001
1.40001
1.40001
1.40001
1.40001
1.40001
1.40001
1.40001
1.40001
1.40001
1.40001
1.40001
1.40001
1.40001
1.40001
1.40001
1.40001
1.40001
1.40001
1.40001
1.40001
1.40001
1.40001
1.40001
1.40001
1.40001
1.40001
1.40001
1.40001
1.40001
1.40001
1.40001
1.40001
1.40001
1.40001
1.40001
1.40001
1.40001
1.40001
1.40001
1.40001
1.40001
1.40001
1.40001
1.40001
1.40001
1.40001
1.40001
1.40001
1.40001
1.40001
1.40001
1.40001
1.40001
1.40001
1.40001
1.40001
1.40001
1.40001
1.40001
1.40001
1.40001
1.40001
1.40001
1.40001
1.40001
1.40001
1.40001
1.40001
1.40001
1.40001
1.40001
1.40001
1.40001
1.40001
1.40001
1.40001
1.40001
1.40001
1.40001
1.40001
1.40001
1.40001
1.40001
1.40001
1.40001
1.40001
1.40001
1.40001
1.40001
1.40001
1.40001
1.40001
1.40001
1.40001
1.40001
1.40001
1.40001
1.40001
1.40001
1.40001
1.40001
1.40001
1.40001
1.40001
1.40001
1.40001
1.40001
1.40001
1.40001
1.40001
1.40001
1.40001
1.40001
1.40001
1.40001
1.40001
1.40001
1.40001
1.40001
1.40001
1.40001
1.40001
1.40001
1.40001
1.40001
1.40001
1.40001
1.40001
1.40001
1.40001
1.40001
1.40001
1.40001
1.40001
1.40001
1.40001
1.40001
1.40001
1.40001
1.40001
1.40001
1.40001
1.40001
1.40001
1.40001
1.40001
1.40001
1.40001
1.40001
1.40001
1.40001
1.40001
1.40001
1.40001
1.40001
1.40001
1.40001
1.40001
1.40001
1.40001
1.40001
1.40001
1.40001
1.40001
1.40001
1.40001
1.40001
1.40001
1.40001
1.40001
1.40001
1.40001
1.40001
1.40001
1.40001
1.40001
1.40001
1.40001
1.40001
1.40001
1.40001
1.40001
1.40001
1.40001
1.40001
1.40001
1.40001
1.40001
1.40001
1.40001
1.40001
1.40001
1.40001
1.40001
1.40001
1.40001
1.40001
1.40001
1.40001
1.40001
1.40001
1.40001
1.40001
1.40001
1.40001
1.40001
1.40001
1.40001
1.40001
1.40001
1.40001
1.40001
1.40001
1.40001
1.40001
1.40001
1.40001
1.40001
1.40001
1.40001
1.40001
1.40001
1.40001
1.40001
1.40001
1.40001
1.40001
1.40001
1.40001
1.40001
1.40001
1.40001
1.40001
1.40001
1.40001
1.40001
1.40001
1.40001
1.40001
1.40001
1.40001
1.40001
1.40001
1.40001
1.40001
1.40001
1.40001
1.40001
1.40001
1.40001
1.40001
1.40001
1.40001
1.40001
1.40001
1.40001
1.40001
1.40001
1.40001
1.40001
1.40001
1.40001
1.40001
1.40001
1.40001
1.40001
1.40001
1.40001
1.40001
1.40001
1.40001
1.40001
1.40001
1.40001
1.40001
1.40001
1.40001
1.40001
1.40001
1.40001
1.40001
1.40001
1.40001
1.40001
1.40001
1.40001
1.40001
1.40001
1.40001
1.40001
1.40001
1.40001
1.40001
1.40001
1.40001
1.40001
1.40001
1.40001
1.40001
1.40001
1.40001
1.40001
1.40001
1.40001
1.40001
1.40001
1.40001
1.40001
1.40001
1.40001
1.40001
1.40001
1.40001
1.40001
1.40001
1.40001
1.40001
1.40001
1.40001
1.40001
1.40001
1.40001
1.40001
1.40001
1.40001
1.40001
1.40001
1.40001
1.40001
1.40001
1.40001
1.40001
1.40001
1.40001
1.40001
1.40001
1.40001
1.40001
1.40001
1.40001
1.40001
1.40001
1.40001
1.40001
1.40001
1.40001
1.40001
1.40001
1.40001
1.40001
1.40001
1.40001
1.40001
1.40001
1.40001
1.40001
1.40001
1.40001
1.40001
1.40001
1.40001
1.40001
1.40001
1.40001
1.40001
1.40001
1.40001
1.40001
1.40001
1.40001
1.40001
1.40001
1.40001
1.40001
1.40001
1.40001
1.40001
1.40001
1.40001
1.40001
1.40001
1.40001
1.40001
1.40001
1.40001
1.40001
1.40001
1.40001
1.40001
1.40001
1.40001
1.40001
1.40001
1.40001
1.40001
1.40001
1.40001
1.40001
1.40001
1.40001
1.40001
1.40001
1.40001
1.40001
1.40001
1.40001
1.40001
1.40001
1.40001
1.40001
1.40001
1.40001
1.40001
1.40001
1.40001
1.40001
1.40001
1.40001
1.40001
1.40001
1.40001
1.40001
1.40001
1.40001
1.40001
1.40001
1.40001
1.40001
1.40001
1.40001
1.40001
1.40001
1.40001
1.40001
1.40001
1.40001
1.40001
1.40001
1.40001
1.40001
1.40001
1.40001
1.40001
1.40001
1.40001
1.40001
1.40001
1.40001
1.40001
1.40001
1.40001
1.40001
1.40001
1.40001
1.40001
1.40001
1.40001
1.40001
1.40001
1.40001
1.40001
1.40001
1.40001
1.40001
1.40001
1.40001
1.40001
1.40001
1.40001
1.40001
1.40001
1.40001
1.40001
1.40001
1.40001
1.40001
1.40001
1.40001
1.40001
1.40001
1.40001
1.40001
1.40001
1.40001
1.40001
1.40001
1.40001
1.40001
1.40001
1.40001
1.40001
1.40001
1.40001
1.40001
1.40001
1.40001
1.40001
1.40001
1.40001
1.40001
1.40001
1.40001
1.40001
1.40001
1.40001
1.40001
1.40001
1.40001
1.40001
1.40001
1.40001
1.40001
1.40001
1.40001
1.40001
1.40001
1.40001
1.40001
1.40001
1.40001
1.40001
1.40001
1.40001
1.40001
1.40001
1.40001
1.40001
1.40001
1.40001
1.40001
1.40001
1.40001
1.40001
1.40001
1.40001
1.40001
1.40001
1.40001
1.40001
1.40001
1.40001
1.40001
1.40001
1.40001
1.40001
1.40001
1.40001
1.40001
1.40001
1.40001
1.40001
1.40001
1.40001
1.40001
1.40001
1.40001
1.40001
1.40001
1.40001
1.40001
1.40001
1.40001
1.40001
1.40001
1.40001
1.40001
1.40001
1.40001
1.40001
1.40001
1.40001
1.40001
1.40001
1.40001
1.40001
1.40001
1.40001
1.40001
1.40001
1.40001
1.40001
1.40001
1.40001
1.40001
1.40001
1.40001
1.40001
1.40001
1.40001
1.40001
1.40001
1.40001
1.40001
1.40001
1.40001
1.40001
1.40001
1.40001
1.40001
1.40001
1.40001
1.40001
1.40001
1.40001
1.40001
1.40001
1.40001
1.40001
1.40001
1.40001
1.40001
1.40001
1.40001
1.40001
1.40001
1.40001
1.40001
1.40001
1.40001
1.40001
1.40001
1.40001
1.40001
1.40001
1.40001
1.40001
1.40001
1.40001
1.40001
1.40001
1.40001
1.40001
1.40001
1.40001
1.40001
1.40001
1.40001
1.40001
1.40001
1.40001
1.40001
1.40001
1.40001
1.40001
1.40001
1.40001
1.40001
1.40001
1.40001
1.40001
1.40001
1.40001
1.40001
1.40001
1.40001
1.40001
1.40001
1.40001
1.40001
1.40001
1.40001
1.40001
1.40001
1.40001
1.40001
1.40001
1.40001
1.40001
1.40001
1.40001
1.40001
1.40001
1.40001
1.40001
1.40001
1.40001
1.40001
1.40001
1.40001
1.40001
1.40001
1.40001
1.40001
1.40001
1.40001
1.40001
1.40001
1.40001
1.40001
1.40001
1.40001
1.40001
1.40001
1.40001
1.40001
1.40001
1.40001
1.40001
1.40001
1.40001
1.40001
1.40001
1.40001
1.40001
1.40001
1.40001
1.40001
1.40001
1.40001
1.40001
1.40001
1.40001
1.40001
1.40001
1.40001
1.40001
1.40001
1.40001
1.40001
1.40001
1.40001
1.40001
1.40001
1.40001
1.40001
1.40001
1.40001
1.40001
1.40001
1.40001
1.40001
1.40001
1.39996
1.40001
1.40001
1.40001
1.40001
1.40001
1.40001
1.40001
1.40001
1.40001
1.40001
1.40001
1.40001
1.40001
1.40001
1.39742
1.39982
1.4
1.4
1.40001
1.40001
1.40001
1.40001
1.40001
1.40001
1.40001
1.40001
1.40001
1.40001
1.40001
1.54269
1.40079
1.4
1.4
1.40001
1.40001
1.40001
1.40001
1.40001
1.40001
1.40001
1.40001
1.40001
1.40001
1.40001
2.88239
1.5012
1.40065
1.4
1.4
1.4
1.40001
1.40001
1.40001
1.40001
1.40001
1.40001
1.40001
1.40001
1.40001
4.61747
2.34835
1.46554
1.40073
1.40001
1.4
1.40001
1.40001
1.40001
1.40001
1.40001
1.40001
1.40001
1.40001
1.40001
4.52423
3.5623
1.9076
1.42668
1.40026
1.40001
1.40001
1.40001
1.40001
1.40001
1.40001
1.40001
1.40001
1.40001
1.40001
4.07639
3.9926
2.75991
1.61208
1.40731
1.40008
1.40001
1.40001
1.40001
1.40001
1.40001
1.40001
1.40001
1.40001
1.40001
3.25813
3.91319
3.51699
2.15065
1.46704
1.40113
1.40001
1.4
1.40001
1.40001
1.40001
1.40001
1.40001
1.40001
1.40001
2.25827
3.4202
3.59316
2.90483
1.83097
1.45165
1.40263
1.40007
1.40001
1.40001
1.40001
1.40001
1.40001
1.40001
1.40001
1.74272
2.84391
3.48053
3.29786
2.35131
1.55114
1.40623
1.40013
1.40001
1.40001
1.40001
1.40001
1.40001
1.40001
1.40001
1.34269
2.01964
3.02973
3.272
2.99346
2.00555
1.46149
1.40157
1.40002
1.40001
1.40001
1.40001
1.40001
1.40001
1.40001
1.1711
1.61616
2.38877
3.11706
3.09608
2.575
1.68486
1.41438
1.40021
1.40001
1.40001
1.40001
1.40001
1.40001
1.40001
1.02487
1.42492
1.85792
2.69121
3.05507
2.94886
2.16035
1.51043
1.40351
1.40004
1.40001
1.40001
1.40001
1.40001
1.40001
0.845951
1.23094
1.53788
2.14632
2.87785
2.94971
2.61034
1.7781
1.42692
1.40051
1.40001
1.40001
1.40001
1.40001
1.40001
0.786935
1.07918
1.35532
1.7573
2.47371
2.89416
2.82524
2.20041
1.54189
1.40524
1.40006
1.40001
1.40001
1.40001
1.40001
0.77612
0.948963
1.20139
1.53936
2.06881
2.70182
2.81203
2.56361
1.81686
1.43688
1.4008
1.40001
1.40001
1.40001
1.40001
0.753969
0.850977
1.02466
1.36223
1.74373
2.35774
2.73595
2.67842
2.16426
1.55117
1.40606
1.40008
1.40001
1.40001
1.40001
0.73714
0.821284
0.937884
1.22592
1.47996
1.94107
2.52778
2.64869
2.45246
1.78697
1.43678
1.40076
1.40001
1.40001
1.40001
0.726121
0.797686
0.884001
1.09603
1.3076
1.65391
2.21343
2.55454
2.49876
2.06066
1.52295
1.40482
1.40006
1.40001
1.40001
0.69357
0.758853
0.809954
0.93967
1.16878
1.49615
1.90437
2.36995
2.45382
2.2647
1.69631
1.42401
1.40043
1.40001
1.40001
0.640504
0.70987
0.786281
0.847294
1.02732
1.31233
1.58963
2.12067
2.35943
2.28655
1.88477
1.47348
1.40227
1.40003
1.40001
0.567076
0.674169
0.771386
0.831277
0.922521
1.14497
1.3721
1.84021
2.2279
2.23382
2.01335
1.56667
1.4092
1.40012
1.40001
0.522628
0.617897
0.724355
0.797336
0.842199
1.02644
1.26639
1.60079
2.04473
2.15117
2.03645
1.65824
1.42489
1.40047
1.40001
0.542031
0.58239
0.665808
0.739216
0.765152
0.907683
1.15516
1.43565
1.86069
2.05026
2.00665
1.72636
1.44936
1.40139
1.40002
0.66481
0.570948
0.628699
0.684538
0.749742
0.859351
1.03397
1.2856
1.69662
1.93999
1.9432
1.73901
1.46996
1.40281
1.40003
0.848959
0.592348
0.613504
0.683449
0.761241
0.852652
0.981856
1.21162
1.55905
1.83384
1.85855
1.71811
1.47532
1.40367
1.40005
0.992906
0.67018
0.624867
0.703721
0.789138
0.855712
0.981337
1.21393
1.48531
1.73988
1.77004
1.66917
1.46918
1.4036
1.40005
1.1361
0.79399
0.663636
0.73512
0.836224
0.882192
0.990294
1.23286
1.48484
1.682
1.69445
1.60574
1.45201
1.4028
1.40004
1.21591
1.03593
0.854898
0.863584
0.947417
0.99852
1.071
1.29382
1.49913
1.59746
1.58355
1.50438
1.42144
1.40105
1.40002
1.21204
1.08222
0.933517
0.768391
0.71956
0.713888
0.707928
0.672013
0.66272
0.6497
0.601245
0.548728
0.496437
0.540874
0.733961
0.927879
1.03017
1.1245
1.24907
1.27394
0.956822
0.872131
0.751034
0.63701
0.641554
0.652962
0.645423
0.629627
0.623763
0.598177
0.546815
0.498292
0.516281
0.742955
0.954537
1.01195
1.06573
1.1371
1.24619
1.27977
0.741127
0.707625
0.622477
0.578991
0.58227
0.590973
0.591444
0.587599
0.568877
0.529719
0.498441
0.507259
0.699141
0.940137
1.05749
1.07284
1.09204
1.1416
1.22873
1.27904
0.575134
0.565826
0.520293
0.51239
0.524601
0.525355
0.534304
0.538349
0.522234
0.480866
0.501719
0.67989
0.964677
1.05464
1.09189
1.09149
1.09302
1.13863
1.21866
1.27305
0.444353
0.447195
0.454748