/*--------------------------------*- C++ -*----------------------------------*\
  =========                 |
  \\      /  F ield         | OpenFOAM: The Open Source CFD Toolbox
   \\    /   O peration     | Website:  https://openfoam.org
    \\  /    A nd           | Version:  7
     \\/     M anipulation  |
\*---------------------------------------------------------------------------*/
FoamFile
{
    version     2.0;
    format      ascii;
    class       volScalarField;
    location    "2.1";
    object      T;
}
// * * * * * * * * * * * * * * * * * * * * * * * * * * * * * * * * * * * * * //

dimensions      [0 0 0 1 0 0 0];

internalField   nonuniform List<scalar> 
3700
(
100.465
100.688
100.787
100.863
100.89
100.981
101.09
101.116
101.107
101.078
101.078
101.123
101.138
101.13
101.131
101.13
101.126
101.108
101.07
101.033
100.081
100.186
100.333
100.406
100.367
100.469
100.674
100.707
100.634
100.483
100.507
100.555
100.523
100.467
100.484
100.546
100.567
100.53
100.446
100.393
100.027
100.075
100.103
100.08
100.019
99.9426
99.8867
99.8805
99.8863
99.8978
99.9335
99.9621
99.9897
100.013
100.028
100.033
100.033
100.026
100.014
100.013
100.045
100.075
100.078
100.049
99.9909
99.9723
99.9645
99.9471
99.9295
99.937
99.9325
99.9524
99.9879
100.023
100.049
100.067
100.084
100.087
100.083
100.063
100.079
100.087
100.081
100.043
100.014
100.025
100.042
100.062
100.07
100.071
100.035
100.019
100.002
100.016
100.045
100.074
100.098
100.124
100.138
100.147
100.175
100.116
100.09
100.026
100
100.023
100.055
100.096
100.132
100.14
100.142
100.137
100.114
100.103
100.086
100.082
100.094
100.136
100.167
100.204
100.273
100.12
100.022
99.9647
99.9593
99.9865
100.021
100.081
100.136
100.161
100.186
100.19
100.197
100.194
100.188
100.181
100.173
100.172
100.19
100.248
100.3
100.047
99.9403
99.9303
99.948
99.9759
100.008
100.059
100.105
100.144
100.186
100.206
100.237
100.244
100.253
100.259
100.262
100.267
100.274
100.312
100.278
99.9527
99.8974
99.9253
99.9685
100.018
100.044
100.086
100.11
100.137
100.168
100.197
100.244
100.269
100.291
100.312
100.325
100.337
100.348
100.39
100.21
99.8858
99.8561
99.9357
99.9991
100.09
100.134
100.181
100.202
100.227
100.235
100.25
100.27
100.295
100.321
100.35
100.379
100.4
100.421
100.455
100.107
99.8147
99.8099
99.8764
99.988
100.115
100.184
100.228
100.274
100.326
100.343
100.361
100.379
100.39
100.397
100.409
100.432
100.457
100.502
100.497
99.9992
99.7417
99.7423
99.8143
99.9798
100.116
100.198
100.237
100.306
100.382
100.409
100.432
100.452
100.464
100.479
100.496
100.516
100.534
100.571
100.567
99.8868
99.6699
99.7089
99.809
100.056
100.233
100.269
100.294
100.37
100.425
100.462
100.487
100.509
100.525
100.551
100.576
100.601
100.624
100.654
100.652
99.7672
99.5992
99.6924
99.8485
100.217
100.385
100.416
100.471
100.524
100.551
100.563
100.572
100.583
100.598
100.625
100.657
100.687
100.712
100.726
100.735
99.623
99.6004
99.6954
100.023
100.366
100.48
100.526
100.573
100.617
100.642
100.652
100.663
100.678
100.699
100.727
100.752
100.771
100.783
100.779
100.774
99.441
99.6741
99.9533
100.278
100.483
100.55
100.608
100.656
100.691
100.712
100.727
100.746
100.767
100.793
100.814
100.825
100.824
100.816
100.79
100.745
99.3288
99.8009
100.198
100.462
100.606
100.69
100.73
100.763
100.79
100.805
100.816
100.832
100.848
100.855
100.855
100.844
100.793
100.679
100.518
100.28
99.5645
100.141
100.471
100.658
100.766
100.813
100.84
100.864
100.877
100.883
100.882
100.881
100.88
100.857
100.772
100.624
100.361
100.101
100.005
99.9978
100.129
100.518
100.737
100.841
100.889
100.905
100.917
100.924
100.92
100.909
100.893
100.837
100.722
100.467
100.147
100.01
99.9966
99.9985
99.9992
99.9998
100.696
100.837
100.915
100.95
100.959
100.951
100.952
100.933
100.843
100.759
100.571
100.231
100.03
99.9957
99.9977
99.9989
99.9998
100
100
100
100.999
100.998
100.995
100.989
100.978
100.945
100.882
100.478
99.8321
100
100
100
100
100
100
100
100
100
100
100
100.999
100.996
100.991
100.978
100.953
100.856
100.481
100.013
100
100
100
100
100
100
100
100
100
100
100
100
100.991
100.993
100.989
100.969
100.916
100.614
100.023
99.9997
100
100
100
100
100
100
100
100
100
100
100
100
100.986
100.991
100.987
100.954
100.792
100.236
99.9969
100
100
100
100
100
100
100
100
100
100
100
100
100
100.978
100.99
100.985
100.92
100.578
99.9919
100
100
100
100
100
100
100
100
100
100
100
100
100
100
100.973
100.985
100.981
100.837
100.266
100
100
100
100
100
100
100
100
100
100
100
100
100
100
100
100.971
100.979
100.969
100.702
99.9925
100
100
100
100
100
100
100
100
100
100
100
100
100
100
100
100.984
100.974
100.914
100.473
100
100
100
100
100
100
100
100
100
100
100
100
100
100
100
100
101.006
100.975
100.816
100.119
100
100
100
100
100
100
100
100
100
100
100
100
100
100
100
100
101.017
100.941
100.68
99.9965
100
100
100
100
100
100
100
100
100
100
100
100
100
100
100
100
101.026
100.908
100.512
100
100
100
100
100
100
100
100
100
100
100
100
100
100
100
100
100
101.029
100.863
100.33
100
100
100
100
100
100
100
100
100
100
100
100
100
100
100
100
100
101.031
100.803
100.131
100
100
100
100
100
100
100
100
100
100
100
100
100
100
100
100
100
101.023
100.732
100.007
100
100
100
100
100
100
100
100
100
100
100
100
100
100
100
100
100
101.008
100.658
100
100
100
100
100
100
100
100
100
100
100
100
100
100
100
100
100
100
100.983
100.574
100
100
100
100
100
100
100
100
100
100
100
100
100
100
100
100
100
100
100.95
100.428
100
100
100
100
100
100
100
100
100
100
100
100
100
100
100
100
100
100
100.899
100.212
100
100
100
100
100
100
100
100
100
100
100
100
100
100
100
100
100
100
100.854
100.004
100
100
100
100
100
100
100
100
100
100
100
100
100
100
100
100
100
100
100.811
100
100
100
100
100
100
100
100
100
100
100
100
100
100
100
100
100
100
100
100.811
100
100
100
100
100
100
100
100
100
100
100
100
100
100
100
100
100
100
100
100.854
100.004
100
100
100
100
100
100
100
100
100
100
100
100
100
100
100
100
100
100
100.899
100.212
100
100
100
100
100
100
100
100
100
100
100
100
100
100
100
100
100
100
100.95
100.428
100
100
100
100
100
100
100
100
100
100
100
100
100
100
100
100
100
100
100.983
100.574
100
100
100
100
100
100
100
100
100
100
100
100
100
100
100
100
100
100
101.008
100.658
100
100
100
100
100
100
100
100
100
100
100
100
100
100
100
100
100
100
101.023
100.732
100.007
100
100
100
100
100
100
100
100
100
100
100
100
100
100
100
100
100
101.031
100.803
100.131
100
100
100
100
100
100
100
100
100
100
100
100
100
100
100
100
100
101.029
100.863
100.33
100
100
100
100
100
100
100
100
100
100
100
100
100
100
100
100
100
101.026
100.908
100.512
100
100
100
100
100
100
100
100
100
100
100
100
100
100
100
100
100
101.017
100.941
100.68
99.9965
100
100
100
100
100
100
100
100
100
100
100
100
100
100
100
100
101.006
100.975
100.816
100.119
100
100
100
100
100
100
100
100
100
100
100
100
100
100
100
100
100.984
100.974
100.914
100.473
100
100
100
100
100
100
100
100
100
100
100
100
100
100
100
100
100.971
100.979
100.969
100.702
99.9925
100
100
100
100
100
100
100
100
100
100
100
100
100
100
100
100.973
100.985
100.981
100.837
100.266
100
100
100
100
100
100
100
100
100
100
100
100
100
100
100
100.978
100.99
100.985
100.92
100.578
99.9919
100
100
100
100
100
100
100
100
100
100
100
100
100
100
100.986
100.991
100.987
100.954
100.792
100.236
99.9969
100
100
100
100
100
100
100
100
100
100
100
100
100
100.991
100.993
100.989
100.969
100.916
100.614
100.023
99.9997
100
100
100
100
100
100
100
100
100
100
100
100
100.999
100.996
100.991
100.978
100.953
100.856
100.481
100.013
100
100
100
100
100
100
100
100
100
100
100
100
100.999
100.998
100.995
100.989
100.978
100.945
100.882
100.477
99.8323
100
100
100
100
100
100
100
100
100
100
100
100.697
100.836
100.915
100.949
100.959
100.951
100.952
100.933
100.843
100.759
100.571
100.231
100.03
99.9957
99.9977
99.9989
99.9998
100
100
100
100.117
100.523
100.739
100.84
100.889
100.905
100.917
100.924
100.92
100.909
100.893
100.837
100.722
100.467
100.147
100.01
99.9966
99.9985
99.9992
99.9998
99.4976
100.105
100.465
100.658
100.764
100.812
100.839
100.864
100.877
100.883
100.882
100.881
100.88
100.857
100.772
100.624
100.361
100.101
100.005
99.9978
99.3995
99.7716
100.214
100.464
100.605
100.688
100.729
100.762
100.79
100.805
100.816
100.832
100.848
100.855
100.855
100.844
100.793
100.679
100.518
100.28
99.4963
99.6
99.9074
100.281
100.482
100.551
100.608
100.656
100.691
100.713
100.727
100.746
100.767
100.793
100.814
100.825
100.824
100.816
100.79
100.745
99.6255
99.5293
99.5889
100.024
100.361
100.481
100.527
100.575
100.617
100.643
100.652
100.664
100.678
100.699
100.727
100.752
100.771
100.783
100.779
100.774
99.72
99.5582
99.5698
99.8045
100.202
100.385
100.418
100.474
100.525
100.552
100.563
100.572
100.583
100.598
100.625
100.657
100.687
100.712
100.726
100.735
99.8293
99.6267
99.6024
99.7728
100.042
100.233
100.272
100.296
100.371
100.427
100.464
100.488
100.509
100.525
100.551
100.576
100.601
100.624
100.654
100.652
99.9443
99.7165
99.6764
99.7857
99.9692
100.114
100.201
100.241
100.309
100.384
100.41
100.433
100.452
100.464
100.479
100.496
100.516
100.534
100.571
100.567
100.053
99.8001
99.7891
99.8645
99.9788
100.114
100.187
100.231
100.277
100.327
100.344
100.361
100.378
100.389
100.397
100.409
100.432
100.457
100.502
100.497
100.163
99.8725
99.847
99.9314
99.9954
100.093
100.138
100.184
100.204
100.228
100.236
100.249
100.269
100.295
100.321
100.35
100.379
100.4
100.421
100.455
100.253
99.948
99.895
99.9244
99.9687
100.024
100.051
100.091
100.113
100.139
100.169
100.198
100.245
100.269
100.291
100.312
100.325
100.337
100.347
100.39
100.293
100.058
99.9478
99.9345
99.9551
99.9837
100.015
100.065
100.108
100.146
100.187
100.207
100.237
100.245
100.253
100.259
100.261
100.266
100.273
100.312
100.276
100.133
100.046
99.9755
99.9697
99.9952
100.026
100.086
100.137
100.161
100.187
100.191
100.197
100.194
100.187
100.18
100.171
100.171
100.189
100.248
100.19
100.13
100.097
100.037
100.011
100.03
100.056
100.098
100.133
100.139
100.142
100.138
100.114
100.102
100.085
100.081
100.094
100.137
100.167
100.205
100.092
100.104
100.086
100.049
100.018
100.029
100.041
100.062
100.07
100.07
100.034
100.019
100.002
100.016
100.045
100.074
100.098
100.124
100.139
100.147
100.06
100.089
100.081
100.049
99.9886
99.9712
99.9584
99.945
99.9295
99.9375
99.9337
99.9534
99.9884
100.023
100.048
100.066
100.084
100.088
100.083
100.062
100.04
100.087
100.109
100.079
100.013
99.9316
99.8831
99.8778
99.8872
99.8999
99.9346
99.9621
99.9896
100.013
100.028
100.033
100.034
100.026
100.014
100.013
100.085
100.183
100.267
100.336
100.475
100.528
100.484
100.461
100.553
100.585
100.518
100.423
100.444
100.52
100.527
100.494
100.484
100.504
100.527
100.482
100.469
100.692
100.737
100.801
100.926
101.029
101.048
101.06
101.099
101.098
101.087
101.078
101.108
101.138
101.137
101.123
101.112
101.099
101.084
101.06
101.032
101.021
101.003
100.991
100.972
100.943
100.91
100.884
100.863
100.842
100.822
100.813
100.81
100.797
100.729
100.565
100.335
100.144
100.047
99.9962
100.547
100.636
100.696
100.731
100.774
100.808
100.8
100.787
100.776
100.759
100.747
100.75
100.768
100.768
100.718
100.578
100.371
100.182
100.066
99.9967
100.026
100.062
100.167
100.272
100.417
100.537
100.572
100.603
100.612
100.603
100.604
100.619
100.664
100.698
100.679
100.589
100.438
100.268
100.124
100.01
100.074
100.09
100.096
100.096
100.116
100.23
100.351
100.445
100.465
100.466
100.476
100.503
100.555
100.61
100.61
100.571
100.473
100.335
100.18
100.027
100.129
100.132
100.127
100.136
100.139
100.136
100.156
100.245
100.33
100.374
100.401
100.428
100.481
100.534
100.539
100.525
100.467
100.356
100.212
100.043
100.193
100.178
100.169
100.169
100.17
100.171
100.179
100.174
100.181
100.222
100.297
100.36
100.428
100.473
100.479
100.47
100.433
100.348
100.221
100.053
100.249
100.234
100.2
100.194
100.2
100.201
100.205
100.205
100.194
100.165
100.17
100.256
100.364
100.417
100.428
100.42
100.387
100.319
100.212
100.059
100.306
100.288
100.251
100.23
100.231
100.233
100.23
100.223
100.21
100.187
100.161
100.16
100.253
100.351
100.383
100.373
100.344
100.285
100.196
100.061
100.37
100.344
100.307
100.263
100.26
100.257
100.247
100.234
100.227
100.212
100.184
100.149
100.151
100.256
100.327
100.322
100.303
100.255
100.184
100.062
100.434
100.406
100.367
100.317
100.29
100.277
100.266
100.245
100.235
100.226
100.203
100.173
100.132
100.145
100.224
100.28
100.265
100.226
100.167
100.058
100.53
100.455
100.416
100.379
100.324
100.293
100.281
100.265
100.251
100.243
100.227
100.198
100.159
100.123
100.117
100.16
100.175
100.15
100.109
100.033
100.62
100.536
100.476
100.438
100.401
100.363
100.32
100.281
100.263
100.249
100.229
100.203
100.178
100.145
100.11
100.076
100.033
99.9913
99.9754
99.9749
100.608
100.588
100.539
100.474
100.425
100.39
100.357
100.313
100.281
100.254
100.223
100.206
100.188
100.154
100.11
100.07
100.014
99.943
99.8952
99.9109
100.488
100.547
100.541
100.517
100.467
100.416
100.381
100.349
100.318
100.28
100.235
100.199
100.176
100.146
100.108
100.062
100.008
99.9479
99.8933
99.9025
100.25
100.377
100.446
100.483
100.475
100.447
100.407
100.364
100.32
100.285
100.256
100.216
100.172
100.128
100.087
100.046
100.002
99.9511
99.9129
99.9158
100.043
100.144
100.253
100.336
100.39
100.415
100.405
100.38
100.335
100.294
100.266
100.227
100.182
100.138
100.087
100.042
99.996
99.9408
99.9131
99.9218
100.002
100.015
100.065
100.154
100.234
100.291
100.332
100.347
100.335
100.308
100.271
100.221
100.176
100.139
100.095
100.047
99.999
99.9513
99.9293
99.9359
100
100
100.003
100.025
100.078
100.15
100.21
100.248
100.279
100.278
100.265
100.239
100.199
100.153
100.108
100.063
100.023
99.9898
99.9799
99.9837
100
100
100
100.001
100.006
100.031
100.082
100.139
100.182
100.21
100.218
100.213
100.198
100.172
100.139
100.102
100.065
100.037
100.026
100.023
100
100
100
100
100
100.001
100.008
100.033
100.075
100.12
100.15
100.164
100.161
100.152
100.134
100.113
100.09
100.07
100.056
100.039
100
100
100
100
100
100
100
100.001
100.008
100.026
100.059
100.092
100.111
100.113
100.109
100.1
100.086
100.07
100.056
100.037
100
100
100
100
100
100
100
100
100
100.001
100.005
100.016
100.035
100.052
100.062
100.064
100.06
100.052
100.04
100.021
100
100
100
100
100
100
100
100
100
100
100
100
100.002
100.006
100.011
100.015
100.016
100.015
100.011
100.005
100
100
100
100
100
100
100
100
100
100
100
100
100
100
100
100.001
100.001
100.001
100.001
100
100
100
100
100
100
100
100
100
100
100
100
100
100
100
100
100
100
100
100
100
100.598
100.654
100.61
100.416
100.142
100.017
100.001
100
100
100
100
100
100
100
100
100.671
100.663
100.518
100.217
100.022
100
100
100
100
100
100
100
100
100
100
100.704
100.635
100.373
100.074
100.002
100
100
100
100
100
100
100
100
100
100
100.719
100.518
100.167
100.009
100
100
100
100
100
100
100
100
100
100
100
100.65
100.284
100.024
100
100
100
100
100
100
100
100
100
100
100
100
100.393
100.038
100
100
100
100
100
100
100
100
100
100
100
100
100
100.043
100
100
100
100
100
100
100
100
100
100
100
100
100
100
99.9995
100
100
100
100
100
100
100
100
100
100
100
100
100
100
100
100
100
100
100
100
100
100
100
100
100
100
100
100
100
100
100
100
100
100
100
100
100
100
100
100
100
100
100
100
100
100
100
100
100
100
100
100
100
100
100
100
100
100
100
100
100
100
100
100
100
100
100
100
100
100
100
100
100
100
100
100
100
100
100
100
100
100
100
100
100
100
100
100
100
100
100
100
100
100
100
100
100
100
100
100
100
100
100
100
100
100
100
100
100
100
100
100
100
100
100
100
100
100
100
100
100
100
100
100
100
100
100
100
100
100
100
100
100
100
100
100
100
100
100
100
100
100
100
100
100
100
100
100
100
100
100
100
100
100
100
100
100
100
100
100
100
100
100
100
100
100
100
100
100
100
100
100
100
100
100
100
100
100
100
100
100
100
100
100
100
100
100
100
100
100
100
100
100
100
100
100
100
100
100
100
100
100
100
100
100
100
100
100
100
100
100
100
100
100
100
100
100
100
100
100
100
100
100
100
100
100
100
100
100
100
100
100
100
100
100
100
100
100
100
100
100
100
100
100
100
100
100
100
100
100
100
100
100
100
100
100
100
100
100
100
100
100
100
100
100
100
100
100
100
100
100
100
100
100
100
100
100
100
100
100
100
100
100
100
100
100
100
100
100
100
100
100
100
100
100
100
100
100
100
100
100
100
100
100
100
100
100
100
100
100
100
100
100
100
100
100
100
100
100
100
100
100
100
100
100
100
100
100
100
100
100
100
100
100
100
100
100
100
100
100
100
100
100
100
100
100
100
100
100
100
100
100
100
100
100
100
100
100
100
100
100
100
100
100
100
100
100
100
100
100
100
100
100
100
100
100
100
100
100
100
100
100
100
100
100
100
100
100
100
100
100
100
100
100
100
100
100
100
100
100
100
100
100
100
100
100
100
100
100
100
100
100
100
100
100
100
100
100
100
100
100
100
100
100
100
100
100
100
100
100
100
100
100
100
100
100
100
100
100
100
100
100
100
100
100
100
100
100
100
100
100
100
100
100
100
100
100
100
100
100
100
100
100
100
100
100
100
100
100
100
100
100
100
100
100
100
100
100
100
100
100
100
100
100
100
100
100
100
100
100
100
100
100
100
100
100
100
100
100
100
100
100
100
100
100
100
100
100
100
100
100
100
100
100
100
100
100
100
100
100
100
100
100
100
100
100
100
100
100
100
100
100
100
100
100
100
100
100
100
100
100
100
100
100
100
100
100
100
100
100
100
100
100
100
100
100
100
100
100
100
100
100
100
100
100
100
100
100
100
100
100
100
100
100
100
100
100
100
100
100
100
100
100
100
100
100
100
100
100
100
100
100
100
100
100
100
100
100
100
100
100
100
100
100
100
100
100
100
100
100
100
100
100
100
100
100
100
100
100
100
100
100
100
100
100
100
100
100
100
100
100
100
100
100
100
100
100
100
100
100
100
100
100
100
100
100
100
100
100
100
100
100
100
100
100
100
100
100
100
100
100
100
100
100
100
100
100
100
100
100
100
100
100
100
100
100
100
100
100
100
100
100
100
100
100
100
100
100
100
100
100
100
100
100
100
100
100
100
100
100
100
100
100
100
100
100
100
100
100
100
100
100
100
100
100
100
100
100
100
100
100
100
100
100
100
100
100
100
100
100
100
100
100
100
100
100
100
100
100
100
100
100
100
100
100
100
100
100
100
100
100
100
100
100
100
100
100
100
100
100
100
100
100
100
100
100
100
100
100
100
100
100
100
100
100
100
100
100
100
100
100
100
100
100
100
100
100
100
100
100
100
100
100
100
100
100
100
100
100
100
100
100
100
100
100
100
100
100
100
100
100
100
100
100
100
100
100
100
100
100
100
100
100
100
100
100
100
100
100
100
100
100
100
100
100
100
100
100
100
100
100
100
100
100
100
100
100
100
100
100
100
100
100
100
100
100
100
100
100
100
100
100
100
100
100
100
100
100
100
100
100
100
100
100
99.9995
100
100
100
100
100
100
100
100
100
100
100
100
100
100
100.043
100
100
100
100
100
100
100
100
100
100
100
100
100
100
100.393
100.038
100
100
100
100
100
100
100
100
100
100
100
100
100
100.65
100.284
100.024
100
100
100
100
100
100
100
100
100
100
100
100
100.719
100.518
100.167
100.009
100
100
100
100
100
100
100
100
100
100
100
100.704
100.635
100.373
100.074
100.002
100
100
100
100
100
100
100
100
100
100
100.671
100.663
100.518
100.217
100.022
100
100
100
100
100
100
100
100
100
100
100.598
100.654
100.61
100.416
100.142
100.017
100.001
100
100
100
100
100
100
100
100
100.53
100.62
100.608
100.488
100.25
100.043
100.002
100
100
100
100
100
100
100
100
100.455
100.537
100.588
100.547
100.377
100.144
100.015
100
100
100
100
100
100
100
100
100.415
100.476
100.539
100.541
100.446
100.253
100.065
100.003
100
100
100
100
100
100
100
100.38
100.438
100.474
100.517
100.483
100.336
100.154
100.025
100.001
100
100
100
100
100
100
100.324
100.401
100.425
100.467
100.475
100.39
100.234
100.078
100.006
100
100
100
100
100
100
100.293
100.363
100.39
100.416
100.447
100.415
100.291
100.15
100.031
100.001
100
100
100
100
100
100.281
100.32
100.357
100.381
100.407
100.406
100.332
100.21
100.082
100.008
100
100
100
100
100
100.265
100.282
100.314
100.35
100.364
100.38
100.347
100.248
100.139
100.033
100.001
100
100
100
100
100.251
100.263
100.281
100.318
100.32
100.336
100.335
100.279
100.182
100.075
100.008
100
100
100
100
100.243
100.249
100.254
100.28
100.285
100.294
100.308
100.278
100.21
100.12
100.026
100.001
100
100
100
100.227
100.229
100.223
100.235
100.256
100.266
100.271
100.265
100.218
100.15
100.059
100.005
100
100
100
100.198
100.202
100.206
100.199
100.217
100.227
100.221
100.239
100.213
100.164
100.092
100.016
100
100
100
100.16
100.179
100.188
100.176
100.172
100.182
100.176
100.199
100.198
100.161
100.111
100.035
100.002
100
100
100.124
100.145
100.154
100.146
100.128
100.138
100.139
100.153
100.172
100.152
100.113
100.052
100.006
100
100
100.117
100.111
100.111
100.107
100.086
100.087
100.095
100.108
100.139
100.134
100.109
100.062
100.011
100
100
100.158
100.076
100.07
100.062
100.045
100.042
100.047
100.063
100.102
100.113
100.1
100.064
100.015
100.001
100
100.174
100.033
100.014
100.008
100.001
99.9952
99.9994
100.023
100.065
100.09
100.086
100.06
100.016
100.001
100
100.148
99.9899
99.9443
99.9492
99.9504
99.9399
99.9519
99.9898
100.037
100.07
100.07
100.052
100.015
100.001
100
100.106
99.9741
99.8965
99.8951
99.913
99.9126
99.9295
99.9798
100.026
100.056
100.056
100.04
100.011
100.001
100
100.031
99.9741
99.9113
99.9039
99.9163
99.9217
99.936
99.9836
100.023
100.039
100.037
100.021
100.005
100
100
100.435
100.406
100.367
100.317
100.29
100.277
100.266
100.244
100.234
100.226
100.204
100.174
100.132
100.144
100.226
100.28
100.263
100.224
100.166
100.057
100.37
100.345
100.306
100.263
100.26
100.257
100.247
100.234
100.227
100.213
100.185
100.15
100.15
100.255
100.326
100.321
100.301
100.255
100.185
100.062
100.306
100.288
100.25
100.231
100.231
100.232
100.229
100.223
100.21
100.187
100.162
100.16
100.25
100.35
100.382
100.372
100.346
100.287
100.198
100.062
100.249
100.234
100.2
100.194
100.2
100.201
100.205
100.205
100.193
100.165
100.171
100.256
100.361
100.414
100.427
100.42
100.39
100.323
100.215
100.061
100.193
100.178
100.17
100.169
100.17
100.171
100.178
100.174
100.179
100.221
100.298
100.359
100.425
100.471
100.478
100.47
100.436
100.351
100.224
100.056
100.129
100.132
100.127
100.136
100.139
100.135
100.155
100.244
100.325
100.373
100.401
100.429
100.481
100.533
100.539
100.525
100.467
100.357
100.214
100.045
100.073
100.091
100.096
100.096
100.116
100.23
100.349
100.443
100.464
100.466
100.477
100.504
100.557
100.61
100.61
100.57
100.471
100.333
100.179
100.027
100.026
100.062
100.166
100.272
100.419
100.537
100.569
100.599
100.613
100.606
100.606
100.623
100.667
100.699
100.679
100.588
100.436
100.266
100.122
100.009
100.551
100.636
100.695
100.731
100.775
100.807
100.8
100.785
100.776
100.764
100.755
100.757
100.771
100.769
100.718
100.576
100.37
100.182
100.067
99.996
101.037
101.021
101.003
100.99
100.972
100.944
100.914
100.886
100.866
100.849
100.833
100.823
100.816
100.797
100.728
100.564
100.335
100.145
100.049
99.9965
)
;

boundaryField
{
    inlet
    {
        type            fixedValue;
        value           uniform 100;
    }
    outlet
    {
        type            inletOutlet;
        inletValue      uniform 100;
        value           nonuniform List<scalar> 
50
(
100.033
99.9746
99.9108
99.9025
99.9159
99.9219
99.9361
99.9839
100.023
100.039
100.037
100.021
100.004
100
100
99.9961
99.9965
100.01
100.027
100.042
100.053
100.058
100.06
100.061
100.057
100.057
100.061
100.061
100.06
100.055
100.044
100.026
100.009
99.9959
99.9964
100.03
99.9738
99.9112
99.9038
99.9164
99.9219
99.9362
99.9838
100.023
100.039
100.036
100.021
100.004
100
100
)
;
    }
    airfoil
    {
        type            zeroGradient;
    }
    top
    {
        type            symmetryPlane;
    }
    bottom
    {
        type            symmetryPlane;
    }
    defaultFaces
    {
        type            empty;
    }
}


// ************************************************************************* //
