/*--------------------------------*- C++ -*----------------------------------*\
  =========                 |
  \\      /  F ield         | OpenFOAM: The Open Source CFD Toolbox
   \\    /   O peration     | Website:  https://openfoam.org
    \\  /    A nd           | Version:  7
     \\/     M anipulation  |
\*---------------------------------------------------------------------------*/
FoamFile
{
    version     2.0;
    format      ascii;
    class       volScalarField;
    location    "1";
    object      p;
}
// * * * * * * * * * * * * * * * * * * * * * * * * * * * * * * * * * * * * * //

dimensions      [1 -1 -2 0 0 0 0];

internalField   nonuniform List<scalar> 
3700
(
0.177127
0.242602
0.292893
0.331302
0.35128
0.362954
0.366986
0.375008
0.390012
0.401872
0.418417
0.433169
0.435749
0.442616
0.445924
0.446136
0.453154
0.464515
0.477276
0.479937
0.120477
0.101889
0.107221
0.0987052
0.092724
0.0944529
0.0991424
0.109542
0.125682
0.145492
0.164272
0.167603
0.165555
0.163776
0.158961
0.155905
0.156465
0.159529
0.166705
0.170307
0.117539
0.0882774
0.0751046
0.0548225
0.0475953
0.0493736
0.0512855
0.0613413
0.0728933
0.0843321
0.0957036
0.0925153
0.0900694
0.0879996
0.087329
0.0879171
0.0907412
0.096863
0.105104
0.118621
0.11351
0.0848541
0.0714561
0.0471771
0.0420019
0.0451521
0.0479711
0.0589702
0.0728935
0.0877309
0.107653
0.122534
0.133021
0.136015
0.136839
0.139894
0.138747
0.139725
0.14179
0.15576
0.10511
0.0829726
0.0659307
0.0423728
0.0403426
0.044347
0.0479628
0.0586048
0.069916
0.0840953
0.103766
0.124419
0.146523
0.161894
0.171817
0.184002
0.191159
0.198919
0.200748
0.206446
0.0836144
0.0754252
0.0514469
0.0410087
0.0413846
0.0480034
0.0567902
0.0745105
0.0788904
0.0887605
0.102487
0.119814
0.146631
0.171088
0.191497
0.214283
0.236304
0.257085
0.276874
0.301847
0.0606873
0.0558062
0.0418465
0.0422292
0.0483214
0.0613058
0.0829431
0.109098
0.116519
0.127062
0.132151
0.141802
0.156012
0.179744
0.207074
0.23891
0.269833
0.308414
0.344013
0.405736
0.044386
0.0437463
0.040994
0.0421003
0.0501592
0.0684957
0.0989773
0.129615
0.157732
0.183985
0.200622
0.217459
0.234156
0.259202
0.281469
0.310021
0.337502
0.385248
0.434481
0.536149
0.03124
0.0366112
0.0416223
0.0421226
0.0494266
0.0694504
0.106146
0.133592
0.175739
0.218723
0.253615
0.285341
0.327904
0.367868
0.405593
0.445893
0.482247
0.529711
0.581091
0.714893
0.0221529
0.0288452
0.0399231
0.046452
0.0515327
0.0683013
0.110125
0.130429
0.176454
0.227381
0.280357
0.335148
0.405085
0.461062
0.525601
0.591988
0.657153
0.720354
0.797648
0.926291
0.0165831
0.0222641
0.0377589
0.0518388
0.0592211
0.0852425
0.139067
0.15414
0.199574
0.252988
0.333022
0.415522
0.505376
0.585331
0.67363
0.774602
0.883854
0.979704
1.13324
1.09822
0.013925
0.0189222
0.0349871
0.057207
0.0846326
0.140528
0.195217
0.264987
0.356808
0.458183
0.562664
0.658653
0.75253
0.838771
0.934574
1.0585
1.20763
1.34198
1.54483
1.49093
0.0134093
0.020501
0.0399387
0.0745523
0.130437
0.205138
0.275074
0.401128
0.544933
0.7032
0.834085
0.964365
1.08728
1.20167
1.33551
1.49456
1.67105
1.84639
2.10112
2.08297
0.0157305
0.0279705
0.0562844
0.0961324
0.158187
0.249817
0.347559
0.524255
0.725225
0.95049
1.13242
1.3093
1.48075
1.65375
1.86959
2.10181
2.34028
2.58441
2.79906
3.00226
0.0177542
0.0357862
0.0722113
0.108986
0.167158
0.303593
0.519959
0.766205
1.084
1.3913
1.66283
1.8986
2.1269
2.36412
2.66631
2.95554
3.2477
3.49716
3.65465
3.77715
0.0137898
0.0399744
0.0843639
0.124738
0.304704
0.634796
1.07185
1.49476
1.9458
2.3258
2.61062
2.88375
3.15512
3.44537
3.75947
3.95636
4.08662
4.12517
4.03429
3.90572
0.00608321
0.034098
0.129714
0.345143
0.872427
1.5142
2.05098
2.63302
3.19715
3.57525
3.78725
4.0064
4.21341
4.37833
4.46666
4.3904
4.17417
3.64802
2.79703
1.8897
0.0347734
0.170151
0.497372
1.20653
2.11263
2.92643
3.59162
4.24368
4.74094
4.81044
4.7338
4.73815
4.69554
4.52608
4.01234
3.05387
2.0856
1.33248
1.01922
0.993014
0.304794
0.858257
1.98068
3.19588
4.2241
4.86984
5.43321
5.90437
5.75254
5.28736
4.85081
4.31425
3.39528
2.3234
1.42225
1.02839
0.989366
0.994925
0.997327
0.999442
2.32083
3.64245
4.87682
5.70657
6.22037
6.50507
6.60777
6.27556
4.55386
3.21134
2.37338
1.56559
1.08116
0.987567
0.992949
0.996314
0.999169
0.999974
1.00002
1.00001
6.96096
6.90005
6.84402
6.89477
7.05106
6.88154
6.01371
2.27928
0.647513
1
1
1
1
1
1
1
1
1
1
1
6.93355
6.86842
6.77751
6.69577
6.83431
5.8053
2.57984
1.01241
1
1
1
1
1
1
1
1
1
1
1
1
6.78741
6.86243
6.84046
6.64187
6.28246
3.3584
1.05192
0.99902
1
1
1
1
1
1
1
1
1
1
1
1
6.64193
6.84483
6.84283
6.61757
4.74925
1.41867
0.993613
1.00011
0.999999
1
1
1
1
1
1
1
1
1
1
1
6.49464
6.78712
6.79453
6.08324
2.69962
0.975547
1.00036
0.999994
1
1
1
1
1
1
1
1
1
1
1
1
6.41316
6.74189
6.74329
4.95066
1.47767
1
1
1
1
1
1
1
1
1
1
1
1
1
1
1
6.37416
6.69301
6.71116
3.59313
0.972759
1
1
1
1
1
1
1
1
1
1
1
1
1
1
1
6.52743
6.65052
6.0151
2.05548
1
1
1
1
1
1
1
1
1
1
1
1
1
1
1
1
6.95016
6.70927
4.8896
1.1609
1
1
1
1
1
1
1
1
1
1
1
1
1
1
1
1
7.21535
6.32828
3.47557
0.987879
1
1
1
1
1
1
1
1
1
1
1
1
1
1
1
1
7.4487
6.02279
2.29873
1
1
1
1
1
1
1
1
1
1
1
1
1
1
1
1
1
7.52367
5.38862
1.6402
1
1
1
1
1
1
1
1
1
1
1
1
1
1
1
1
1
7.57647
4.76147
1.16455
1
1
1
1
1
1
1
1
1
1
1
1
1
1
1
1
1
7.39232
3.97779
1.00006
1
1
1
1
1
1
1
1
1
1
1
1
1
1
1
1
1
7.15156
3.26705
1
1
1
1
1
1
1
1
1
1
1
1
1
1
1
1
1
1
7.06039
2.47399
1
1
1
1
1
1
1
1
1
1
1
1
1
1
1
1
1
1
6.62872
1.8258
1
1
1
1
1
1
1
1
1
1
1
1
1
1
1
1
1
1
6.28442
1.34616
1
1
1
1
1
1
1
1
1
1
1
1
1
1
1
1
1
1
5.75992
1.00522
1
1
1
1
1
1
1
1
1
1
1
1
1
1
1
1
1
1
4.64632
1.00017
1
1
1
1
1
1
1
1
1
1
1
1
1
1
1
1
1
1
4.64632
1.00017
1
1
1
1
1
1
1
1
1
1
1
1
1
1
1
1
1
1
5.75992
1.00522
1
1
1
1
1
1
1
1
1
1
1
1
1
1
1
1
1
1
6.28442
1.34616
1
1
1
1
1
1
1
1
1
1
1
1
1
1
1
1
1
1
6.62873
1.8258
1
1
1
1
1
1
1
1
1
1
1
1
1
1
1
1
1
1
7.06039
2.47399
1
1
1
1
1
1
1
1
1
1
1
1
1
1
1
1
1
1
7.15156
3.26705
1
1
1
1
1
1
1
1
1
1
1
1
1
1
1
1
1
1
7.39232
3.97779
1.00006
1
1
1
1
1
1
1
1
1
1
1
1
1
1
1
1
1
7.57647
4.76147
1.16455
1
1
1
1
1
1
1
1
1
1
1
1
1
1
1
1
1
7.52367
5.38862
1.6402
1
1
1
1
1
1
1
1
1
1
1
1
1
1
1
1
1
7.4487
6.02279
2.29873
1
1
1
1
1
1
1
1
1
1
1
1
1
1
1
1
1
7.21535
6.32828
3.47557
0.987879
1
1
1
1
1
1
1
1
1
1
1
1
1
1
1
1
6.95016
6.70927
4.8896
1.1609
1
1
1
1
1
1
1
1
1
1
1
1
1
1
1
1
6.52743
6.65052
6.0151
2.05548
1
1
1
1
1
1
1
1
1
1
1
1
1
1
1
1
6.37416
6.69301
6.71116
3.59313
0.972759
1
1
1
1
1
1
1
1
1
1
1
1
1
1
1
6.41316
6.74189
6.74329
4.95066
1.47767
1
1
1
1
1
1
1
1
1
1
1
1
1
1
1
6.49464
6.78712
6.79453
6.08324
2.69962
0.975547
1.00036
0.999994
1
1
1
1
1
1
1
1
1
1
1
1
6.64193
6.84483
6.84283
6.61757
4.74925
1.41867
0.993613
1.00011
0.999999
1
1
1
1
1
1
1
1
1
1
1
6.78741
6.86243
6.84046
6.64187
6.28246
3.3584
1.05192
0.99902
1
1
1
1
1
1
1
1
1
1
1
1
6.93355
6.86842
6.77751
6.69577
6.83431
5.8053
2.57984
1.01241
1
1
1
1
1
1
1
1
1
1
1
1
6.96096
6.90006
6.84402
6.89477
7.05106
6.88154
6.01371
2.27927
0.647513
1
1
1
1
1
1
1
1
1
1
1
2.32083
3.64246
4.87682
5.70654
6.2204
6.50506
6.60777
6.27556
4.55387
3.21134
2.37338
1.5656
1.08117
0.987567
0.992949
0.996314
0.999169
0.999974
1.00002
1.00001
0.304772
0.858246
1.98071
3.19592
4.22401
4.8698
5.43323
5.90437
5.75255
5.28737
4.85081
4.31425
3.39529
2.3234
1.42225
1.02839
0.989366
0.994925
0.997327
0.999442
0.0347871
0.170158
0.497346
1.20648
2.11277
2.92648
3.59158
4.24379
4.74086
4.81045
4.73382
4.73817
4.69555
4.52608
4.01234
3.05387
2.08559
1.33247
1.01922
0.993014
0.00607723
0.0340889
0.129759
0.345066
0.872314
1.51413
2.05106
2.63296
3.19708
3.57522
3.78731
4.00646
4.2134
4.37831
4.46667
4.39041
4.17418
3.64803
2.79704
1.88971
0.0137806
0.0399839
0.0844528
0.124851
0.304436
0.634664
1.07162
1.49485
1.94601
2.32577
2.61057
2.88371
3.15508
3.44534
3.75945
3.95637
4.08665
4.12518
4.03431
3.90572
0.0177462
0.0357782
0.0722367
0.109125
0.167366
0.303572
0.519755
0.766021
1.08386
1.39141
1.66291
1.89864
2.12688
2.36401
2.66618
2.95546
3.24768
3.49716
3.65467
3.77715
0.0157257
0.0279526
0.0562497
0.0962186
0.158367
0.249876
0.347575
0.523931
0.725154
0.950577
1.13262
1.30946
1.48082
1.65378
1.86962
2.10182
2.3403
2.58439
2.79912
3.00241
0.0134108
0.0204927
0.0399414
0.0746011
0.130528
0.205142
0.275189
0.401134
0.544858
0.703051
0.834058
0.964393
1.08733
1.20175
1.33559
1.49462
1.67113
1.84646
2.10114
2.08291
0.0139308
0.0189321
0.0350101
0.0572395
0.0846645
0.140535
0.195237
0.265116
0.356747
0.458045
0.562434
0.658517
0.752451
0.83871
0.934499
1.05843
1.20761
1.34199
1.54481
1.49095
0.016596
0.0222801
0.037771
0.0518216
0.0592075
0.0854166
0.139009
0.154113
0.199509
0.253155
0.333011
0.415404
0.505232
0.585197
0.673528
0.774534
0.88381
0.979687
1.13322
1.09816
0.0221766
0.0288669
0.0399216
0.0464035
0.0514918
0.0683585
0.109972
0.130405
0.176549
0.227427
0.280458
0.335198
0.405094
0.46105
0.525592
0.591994
0.657162
0.720351
0.797684
0.926273
0.0312856
0.0366202
0.0416187
0.0421173
0.0494262
0.0694297
0.10599
0.133582
0.175815
0.218679
0.25367
0.285412
0.327986
0.367932
0.405651
0.44594
0.482288
0.529697
0.581114
0.714912
0.0444567
0.043771
0.0409782
0.042103
0.0501672
0.0684602
0.0988659
0.129556
0.157776
0.183948
0.200608
0.21745
0.23417
0.259233
0.281495
0.310024
0.337497
0.385212
0.434448
0.536151
0.0607649
0.0558668
0.0418523
0.0422371
0.048328
0.0612741
0.0828583
0.108937
0.116486
0.127085
0.132083
0.141726
0.155927
0.179668
0.207015
0.238861
0.269806
0.308399
0.343983
0.405777
0.0836716
0.0754794
0.0514951
0.0410208
0.0413996
0.0480062
0.0567785
0.0743975
0.0788021
0.0887241
0.102422
0.119731
0.14654
0.171016
0.191453
0.214272
0.236314
0.257113
0.276889
0.301862
0.105147
0.0829767
0.0659532
0.0423976
0.0403674
0.0443687
0.0479887
0.0586324
0.0698935
0.0840825
0.103713
0.124342
0.146454
0.161849
0.171815
0.18405
0.191218
0.198964
0.200762
0.206449
0.113641
0.0848989
0.0714803
0.0471869
0.0420359
0.0451765
0.0480066
0.0590434
0.0728948
0.0876725
0.107643
0.122494
0.132963
0.135996
0.13688
0.139959
0.138762
0.139713
0.141762
0.155742
0.11767
0.0883495
0.0751424
0.0548365
0.0476478
0.049418
0.0513414
0.0614392
0.0729269
0.0842276
0.0956915
0.0925085
0.0900668
0.0880181
0.0873574
0.0879421
0.0907355
0.0968283
0.105075
0.118608
0.120583
0.10199
0.107382
0.0988573
0.0929372
0.0944915
0.0988541
0.109482
0.125867
0.145482
0.163965
0.167269
0.165789
0.164347
0.15914
0.155827
0.156382
0.159667
0.166997
0.170533
0.177247
0.242629
0.293037
0.331463
0.351577
0.363191
0.36651
0.37485
0.390149
0.401898
0.41837
0.433085
0.435842
0.442937
0.446026
0.446088
0.453075
0.464668
0.477412
0.47996
0.485989
0.52106
0.610233
0.657479
0.652144
0.689732
0.759144
0.841575
0.877292
0.853802
0.825682
0.814775
0.822062
0.869709
0.940509
0.986575
0.99893
0.999977
1
1
0.231171
0.306284
0.418182
0.538888
0.623806
0.672639
0.736595
0.815246
0.86846
0.850445
0.822123
0.810448
0.819456
0.869073
0.940232
0.986439
0.998911
0.999976
1
1
0.131481
0.137837
0.161443
0.286876
0.487354
0.590157
0.679732
0.779145
0.856504
0.844225
0.814504
0.801842
0.807815
0.861152
0.93671
0.98562
0.998858
0.999976
1
1
0.178856
0.197746
0.189387
0.174009
0.229772
0.389899
0.536876
0.690561
0.822692
0.825009
0.800712
0.791763
0.808662
0.865834
0.939641
0.986449
0.998945
0.999978
1
1
0.220685
0.243487
0.225371
0.207203
0.207916
0.221366
0.271553
0.390024
0.597685
0.749489
0.774872
0.779177
0.805517
0.863623
0.939068
0.986901
0.999045
0.999981
1
1
0.29437
0.303375
0.278401
0.248071
0.24718
0.255653
0.273019
0.292958
0.376413
0.565971
0.705405
0.756902
0.798811
0.867111
0.942242
0.98804
0.999182
0.999985
1
1
0.385587
0.373647
0.335525
0.289288
0.289109
0.294463
0.303328
0.321504
0.370536
0.479431
0.615727
0.716756
0.795909
0.872638
0.946857
0.989525
0.999329
0.999989
1
1
0.505799
0.468447
0.418704
0.347488
0.323322
0.319591
0.317504
0.328149
0.367983
0.466842
0.602889
0.712392
0.796425
0.877983
0.951595
0.991057
0.999472
0.999992
1
1
0.649222
0.579143
0.511439
0.419717
0.354188
0.344777
0.344205
0.346347
0.383907
0.473966
0.598718
0.710574
0.801933
0.886945
0.957829
0.992823
0.999618
0.999994
1
1
0.825489
0.710765
0.63116
0.537124
0.430385
0.382691
0.369075
0.369292
0.388434
0.465694
0.584564
0.700439
0.800869
0.891279
0.961795
0.994057
0.999719
0.999996
1
1
1.21197
0.846454
0.764505
0.670316
0.517428
0.416435
0.409376
0.419893
0.447679
0.502202
0.601436
0.720511
0.826578
0.914709
0.974536
0.996851
0.999886
0.999999
1
1
1.98748
1.42746
1.05871
0.861931
0.674705
0.55685
0.553412
0.563737
0.596828
0.660305
0.741881
0.826195
0.900654
0.958653
0.990653
0.999208
0.999981
1
1
1
2.33562
2.06219
1.64159
1.29635
1.02937
0.775045
0.709299
0.710571
0.739578
0.810996
0.893062
0.947529
0.976206
0.991379
0.99811
0.999805
0.999991
1
1
1
2.18343
2.11035
1.96447
1.7582
1.52107
1.24541
1.04492
1.00488
1.0179
1.043
1.05443
1.04273
1.01216
1.00048
0.999847
0.999927
0.999987
0.999999
1
1
1.56184
1.88679
1.89606
1.81605
1.69064
1.54161
1.3839
1.27635
1.21266
1.15949
1.09904
1.03988
1.00757
1.00039
0.999988
0.999986
0.999994
0.999999
1
1
1.07601
1.28203
1.50872
1.64379
1.6192
1.53435
1.42393
1.31893
1.22977
1.15086
1.07588
1.02113
1.00224
1.00008
0.999999
0.999999
0.999999
1
1
1
1.00297
1.01935
1.07992
1.19318
1.29149
1.32207
1.29464
1.23349
1.15619
1.08009
1.02566
1.00369
1.00017
1
1
1
1
1
1
1
1.00006
1.00032
1.0023
1.01124
1.03268
1.05584
1.06182
1.05399
1.03406
1.01306
1.00242
1.00016
1
1
1
1
1
1
1
1
1
1
1.00002
1.00013
1.00062
1.00162
1.00226
1.00213
1.00137
1.00045
1.00006
1
1
1
1
1
1
1
1
1
1
1
1
1
1
1.00001
1.00002
1.00002
1.00001
1
1
1
1
1
1
1
1
1
1
1
1
1
1
1
1
1
1
1
1
1
1
1
1
1
1
1
1
1
1
1
1
1
1
1
1
1
1
1
1
1
1
1
1
1
1
1
1
1
1
1
1
1
1
1
1
1
1
1
1
1
1
1
1
1
1
1
1
1
1
1
1
1
1
1
1
1
1
1
1
1
1
1
1
1
1
1
1
1
1
1
1
1
1
1
1
1
1
1
1
1
1
1
1
1
1
1
1
1
1
1
1.57802
2.40355
2.46738
2.00471
1.27901
1.03166
1.00146
1.00003
1
1
1
1
1
1
1
2.3012
2.74677
2.47258
1.50488
1.04225
1.00062
1
1
1
1
1
1
1
1
1
2.89342
2.8137
1.92754
1.13982
1.00475
1.00005
1
1
1
1
1
1
1
1
1
3.22326
2.52362
1.35053
1.01862
1.00019
1
1
1
1
1
1
1
1
1
1
3.30068
1.66629
1.04542
1.00042
1
1
1
1
1
1
1
1
1
1
1
2.06028
1.07181
1.00044
0.999999
1
1
1
1
1
1
1
1
1
1
1
1.10095
1.00056
0.999998
0.999999
1
1
1
1
1
1
1
1
1
1
1
0.998195
0.999872
0.999996
1
1
1
1
1
1
1
1
1
1
1
1
0.999966
1
1
1
1
1
1
1
1
1
1
1
1
1
1
1
1
1
1
1
1
1
1
1
1
1
1
1
1
1
1
1
1
1
1
1
1
1
1
1
1
1
1
1
1
1
1
1
1
1
1
1
1
1
1
1
1
1
1
1
1
1
1
1
1
1
1
1
1
1
1
1
1
1
1
1
1
1
1
1
1
1
1
1
1
1
1
1
1
1
1
1
1
1
1
1
1
1
1
1
1
1
1
1
1
1
1
1
1
1
1
1
1
1
1
1
1
1
1
1
1
1
1
1
1
1
1
1
1
1
1
1
1
1
1
1
1
1
1
1
1
1
1
1
1
1
1
1
1
1
1
1
1
1
1
1
1
1
1
1
1
1
1
1
1
1
1
1
1
1
1
1
1
1
1
1
1
1
1
1
1
1
1
1
1
1
1
1
1
1
1
1
1
1
1
1
1
1
1
1
1
1
1
1
1
1
1
1
1
1
1
1
1
1
1
1
1
1
1
1
1
1
1
1
1
1
1
1
1
1
1
1
1
1
1
1
1
1
1
1
1
1
1
1
1
1
1
1
1
1
1
1
1
1
1
1
1
1
1
1
1
1
1
1
1
1
1
1
1
1
1
1
1
1
1
1
1
1
1
1
1
1
1
1
1
1
1
1
1
1
1
1
1
1
1
1
1
1
1
1
1
1
1
1
1
1
1
1
1
1
1
1
1
1
1
1
1
1
1
1
1
1
1
1
1
1
1
1
1
1
1
1
1
1
1
1
1
1
1
1
1
1
1
1
1
1
1
1
1
1
1
1
1
1
1
1
1
1
1
1
1
1
1
1
1
1
1
1
1
1
1
1
1
1
1
1
1
1
1
1
1
1
1
1
1
1
1
1
1
1
1
1
1
1
1
1
1
1
1
1
1
1
1
1
1
1
1
1
1
1
1
1
1
1
1
1
1
1
1
1
1
1
1
1
1
1
1
1
1
1
1
1
1
1
1
1
1
1
1
1
1
1
1
1
1
1
1
1
1
1
1
1
1
1
1
1
1
1
1
1
1
1
1
1
1
1
1
1
1
1
1
1
1
1
1
1
1
1
1
1
1
1
1
1
1
1
1
1
1
1
1
1
1
1
1
1
1
1
1
1
1
1
1
1
1
1
1
1
1
1
1
1
1
1
1
1
1
1
1
1
1
1
1
1
1
1
1
1
1
1
1
1
1
1
1
1
1
1
1
1
1
1
1
1
1
1
1
1
1
1
1
1
1
1
1
1
1
1
1
1
1
1
1
1
1
1
1
1
1
1
1
1
1
1
1
1
1
1
1
1
1
1
1
1
1
1
1
1
1
1
1
1
1
1
1
1
1
1
1
1
1
1
1
1
1
1
1
1
1
1
1
1
1
1
1
1
1
1
1
1
1
1
1
1
1
1
1
1
1
1
1
1
1
1
1
1
1
1
1
1
1
1
1
1
1
1
1
1
1
1
1
1
1
1
1
1
1
1
1
1
1
1
1
1
1
1
1
1
1
1
1
1
1
1
1
1
1
1
1
1
1
1
1
1
1
1
1
1
1
1
1
1
1
1
1
1
1
1
1
1
1
1
1
1
1
1
1
1
1
1
1
1
1
1
1
1
1
1
1
1
1
1
1
1
1
1
1
1
1
1
1
1
1
1
1
1
1
1
1
1
1
1
1
1
1
1
1
1
1
1
1
1
1
1
1
1
1
1
1
1
1
1
1
1
1
1
1
1
1
1
1
1
1
1
1
1
1
1
1
1
1
1
1
1
1
1
1
1
1
1
1
1
1
1
1
1
1
1
1
1
1
1
1
1
1
1
1
1
1
1
1
1
1
1
1
1
1
1
1
1
1
1
1
1
1
1
1
1
1
1
1
1
1
1
1
1
1
1
1
1
1
1
1
1
1
0.999966
1
1
1
1
1
1
1
1
1
1
1
1
1
1
0.998195
0.999872
0.999996
1
1
1
1
1
1
1
1
1
1
1
1
1.10095
1.00056
0.999998
0.999999
1
1
1
1
1
1
1
1
1
1
1
2.06028
1.07181
1.00044
0.999999
1
1
1
1
1
1
1
1
1
1
1
3.30068
1.6663
1.04541
1.00042
1
1
1
1
1
1
1
1
1
1
1
3.22326
2.52362
1.35054
1.01862
1.00019
1
1
1
1
1
1
1
1
1
1
2.89345
2.81369
1.92751
1.13982
1.00475
1.00005
1
1
1
1
1
1
1
1
1
2.30126
2.74679
2.47257
1.50487
1.04224
1.00062
1
1
1
1
1
1
1
1
1
1.57794
2.40356
2.46737
2.00468
1.27899
1.03166
1.00146
1.00003
1
1
1
1
1
1
1
1.21265
1.98793
2.33559
2.18343
1.56184
1.07601
1.00297
1.00006
1
1
1
1
1
1
1
0.844724
1.42719
2.06251
2.11036
1.88679
1.28203
1.01935
1.00032
1
1
1
1
1
1
1
0.764284
1.06056
1.64063
1.96446
1.89607
1.50872
1.07992
1.0023
1.00002
1
1
1
1
1
1
0.670718
0.859176
1.29738
1.75824
1.81605
1.64379
1.19318
1.01124
1.00013
1
1
1
1
1
1
0.520375
0.670791
1.02909
1.52084
1.69061
1.61919
1.29149
1.03268
1.00062
1
1
1
1
1
1
0.417805
0.559578
0.774738
1.24526
1.54158
1.53435
1.32207
1.05584
1.00162
1.00001
1
1
1
1
1
0.411159
0.556953
0.708029
1.04493
1.3839
1.42393
1.29464
1.06182
1.00226
1.00002
1
1
1
1
1
0.42579
0.56713
0.708518
1.00477
1.27625
1.3189
1.23348
1.05399
1.00213
1.00002
1
1
1
1
1
0.456983
0.601287
0.736233
1.01752
1.21252
1.22971
1.15619
1.03407
1.00137
1.00001
1
1
1
1
1
0.508151
0.666002
0.807523
1.0423
1.15938
1.1508
1.08009
1.01307
1.00045
1
1
1
1
1
1
0.600095
0.744766
0.890952
1.05396
1.09899
1.07586
1.02566
1.00242
1.00006
1
1
1
1
1
1
0.716518
0.825759
0.946716
1.04264
1.03987
1.02112
1.00369
1.00016
1
1
1
1
1
1
1
0.824634
0.90012
0.976079
1.0122
1.00758
1.00224
1.00017
1
1
1
1
1
1
1
1
0.914258
0.958674
0.991438
1.00049
1.00039
1.00008
1
1
1
1
1
1
1
1
1
0.974462
0.990713
0.998138
0.999849
0.999988
0.999999
1
1
1
1
1
1
1
1
1
0.996838
0.999214
0.999807
0.999928
0.999986
0.999999
1
1
1
1
1
1
1
1
1
0.999885
0.999981
0.999991
0.999987
0.999994
0.999999
1
1
1
1
1
1
1
1
1
0.999999
1
1
0.999999
0.999999
1
1
1
1
1
1
1
1
1
1
1
1
1
1
1
1
1
1
1
1
1
1
1
1
1
1
1
1
1
1
1
1
1
1
1
1
1
1
1
1
0.825173
0.710082
0.631519
0.53904
0.433343
0.381025
0.364251
0.362951
0.385021
0.462101
0.580658
0.699994
0.800516
0.890836
0.961514
0.993997
0.999716
0.999996
1
1
0.648768
0.578723
0.512918
0.419531
0.355034
0.341519
0.339711
0.34303
0.380349
0.4685
0.596019
0.711747
0.802807
0.886743
0.957517
0.992755
0.999614
0.999994
1
1
0.505391
0.468629
0.419133
0.348734
0.320803
0.317247
0.31226
0.320073
0.358865
0.459824
0.600444
0.711659
0.797721
0.878102
0.951394
0.991004
0.999468
0.999992
1
1
0.385414
0.373815
0.335105
0.289848
0.288772
0.29262
0.300097
0.316086
0.360214
0.476014
0.623017
0.729377
0.800796
0.873446
0.94699
0.989524
0.999324
0.999988
1
1
0.294419
0.303289
0.277614
0.248358
0.247959
0.25602
0.271141
0.290538
0.375046
0.566356
0.705973
0.753695
0.797844
0.867326
0.942811
0.98808
0.999171
0.999985
1
1
0.220791
0.243401
0.224447
0.207702
0.208633
0.222395
0.271941
0.387772
0.600956
0.755813
0.778101
0.77924
0.804489
0.866567
0.940465
0.986987
0.999038
0.999981
1
1
0.178913
0.1977
0.188787
0.174183
0.230522
0.391593
0.539736
0.695641
0.826038
0.828988
0.802702
0.79364
0.80614
0.86082
0.936578
0.985895
0.998936
0.999979
1
1
0.131505
0.137821
0.161215
0.286967
0.487656
0.591821
0.682336
0.782921
0.86025
0.846698
0.813479
0.802114
0.81137
0.863501
0.93801
0.986209
0.998928
0.999977
1
1
0.231015
0.306417
0.417804
0.539006
0.623914
0.674212
0.739433
0.816855
0.869559
0.84973
0.817574
0.799806
0.808019
0.86039
0.936973
0.985949
0.99888
0.999976
1
1
0.485947
0.521088
0.610141
0.657497
0.652204
0.690123
0.765094
0.838412
0.873979
0.853247
0.824637
0.813063
0.820519
0.868662
0.940181
0.986544
0.998922
0.999976
1
1
)
;

boundaryField
{
    inlet
    {
        type            fixedValue;
        value           uniform 1;
    }
    outlet
    {
        type            zeroGradient;
    }
    airfoil
    {
        type            zeroGradient;
    }
    top
    {
        type            symmetryPlane;
    }
    bottom
    {
        type            symmetryPlane;
    }
    defaultFaces
    {
        type            empty;
    }
}


// ************************************************************************* //
