/*--------------------------------*- C++ -*----------------------------------*\
  =========                 |
  \\      /  F ield         | OpenFOAM: The Open Source CFD Toolbox
   \\    /   O peration     | Website:  https://openfoam.org
    \\  /    A nd           | Version:  7
     \\/     M anipulation  |
\*---------------------------------------------------------------------------*/
FoamFile
{
    version     2.0;
    format      ascii;
    class       volScalarField;
    location    "1";
    object      rho;
}
// * * * * * * * * * * * * * * * * * * * * * * * * * * * * * * * * * * * * * //

dimensions      [1 -3 0 0 0 0 0];

internalField   nonuniform List<scalar> 
3700
(
0.246409
0.337161
0.406741
0.459884
0.487511
0.503588
0.509054
0.519992
0.540429
0.556469
0.579164
0.599469
0.603037
0.612577
0.617248
0.617662
0.627536
0.643446
0.661282
0.665128
0.168184
0.142268
0.14968
0.137827
0.129482
0.131858
0.138329
0.152748
0.17515
0.202644
0.228675
0.233274
0.23043
0.227992
0.221369
0.217204
0.218073
0.222433
0.232488
0.237613
0.163993
0.123314
0.105012
0.0767539
0.0666805
0.0691691
0.0718377
0.0858774
0.102005
0.117981
0.133879
0.12946
0.12608
0.123222
0.122312
0.123142
0.127089
0.135639
0.147151
0.166042
0.158349
0.118528
0.0999321
0.0660913
0.0588783
0.0632881
0.0672277
0.0825893
0.102032
0.122729
0.150553
0.171356
0.186022
0.190235
0.191437
0.19575
0.194193
0.195588
0.198483
0.217984
0.146663
0.115931
0.0922576
0.059397
0.0565681
0.062174
0.0672278
0.0820942
0.097905
0.117698
0.145157
0.173994
0.204859
0.226339
0.240216
0.257263
0.267286
0.278154
0.280746
0.288738
0.116832
0.105477
0.0720643
0.0574971
0.0580319
0.0673044
0.0796008
0.104371
0.110479
0.124242
0.143407
0.167607
0.205049
0.239195
0.267693
0.299511
0.330257
0.359276
0.386915
0.421754
0.0849361
0.0781415
0.0586606
0.0592031
0.0677298
0.0858995
0.11614
0.152681
0.163072
0.177802
0.184902
0.198365
0.218194
0.251334
0.289484
0.333907
0.377052
0.43086
0.480516
0.566556
0.0621975
0.0613049
0.0574695
0.059018
0.0702807
0.0959024
0.138469
0.181256
0.220527
0.25719
0.280431
0.303951
0.327252
0.362204
0.393263
0.433096
0.471435
0.537995
0.606614
0.748238
0.0438267
0.0513289
0.0583355
0.0590382
0.0692408
0.0971882
0.148398
0.186743
0.245577
0.305562
0.354253
0.398526
0.457864
0.513603
0.56619
0.622377
0.673064
0.739195
0.810782
0.99704
0.0311136
0.0404617
0.0559274
0.0650445
0.0721424
0.095519
0.153877
0.182277
0.246518
0.317579
0.391482
0.46789
0.565351
0.643385
0.733304
0.825788
0.916556
1.00455
1.11212
1.29105
0.0233129
0.0312436
0.0528667
0.0725359
0.0828585
0.119153
0.194267
0.215304
0.278681
0.35319
0.464811
0.57982
0.705023
0.816416
0.939372
1.07992
1.23193
1.36527
1.57868
1.53003
0.0195853
0.026556
0.0489819
0.0800375
0.11834
0.196313
0.272635
0.369842
0.497764
0.638893
0.784409
0.918093
1.04886
1.16897
1.30232
1.47471
1.68203
1.86873
2.1504
2.07556
0.018858
0.0287436
0.055921
0.104301
0.182257
0.286435
0.383884
0.559413
0.759578
0.979785
1.16193
1.3432
1.51424
1.67338
1.85945
2.08046
2.32558
2.56901
2.92249
2.89729
0.0220932
0.0392178
0.0788144
0.134474
0.220967
0.348699
0.484794
0.730718
1.01029
1.32358
1.57662
1.82258
2.06093
2.30131
2.60097
2.92323
3.25402
3.59268
3.89053
4.17258
0.0249161
0.050181
0.101103
0.152435
0.233518
0.423556
0.724585
1.06715
1.50893
1.93609
2.31341
2.64093
2.95794
3.28706
3.70609
4.107
4.51201
4.85801
5.07697
5.24743
0.0193587
0.0560283
0.118116
0.174433
0.424981
0.883964
1.49137
2.07881
2.70519
3.23291
3.62835
4.00729
4.38349
4.7856
5.22087
5.49372
5.67469
5.7286
5.60378
5.42763
0.00857403
0.0478351
0.18141
0.48125
1.21392
2.10503
2.85031
3.65797
4.44073
4.96518
5.25901
5.56254
5.84903
6.07774
6.20041
6.09523
5.79796
5.07276
3.89565
2.63825
0.0489101
0.237869
0.693044
1.67799
2.93513
4.06392
4.98635
5.8904
6.57988
6.67593
6.56946
6.57543
6.51641
6.28274
5.57444
4.24914
2.90945
1.86359
1.42683
1.39025
0.426187
1.19534
2.75273
4.43716
5.86165
6.7566
7.53724
8.19053
7.9803
7.33574
6.73104
5.98977
4.71931
3.23767
1.98827
1.43961
1.38516
1.39292
1.39627
1.39923
3.22673
5.05717
6.76588
7.91423
8.62564
9.02086
9.16352
8.70484
6.32196
4.46184
3.30374
2.18674
1.51318
1.38266
1.39016
1.39486
1.39884
1.39997
1.40003
1.40002
9.64912
9.56496
9.48764
9.55831
9.77556
9.54286
8.34571
3.1769
0.907871
1.40001
1.40001
1.40001
1.40001
1.40001
1.40001
1.40001
1.40001
1.40001
1.40001
1.40001
9.61125
9.52125
9.39579
9.28368
9.47732
8.05796
3.59445
1.41723
1.40001
1.40001
1.40001
1.40001
1.40001
1.40001
1.40001
1.40001
1.40001
1.40001
1.40001
1.40001
9.40933
9.51307
9.48292
9.20961
8.71564
4.6723
1.47208
1.39864
1.40001
1.40001
1.40001
1.40001
1.40001
1.40001
1.40001
1.40001
1.40001
1.40001
1.40001
1.40001
9.20824
9.48883
9.48638
9.17685
6.5966
1.98152
1.39111
1.40016
1.4
1.40001
1.40001
1.40001
1.40001
1.40001
1.40001
1.40001
1.40001
1.40001
1.40001
1.40001
9.00455
9.40909
9.41976
8.43887
3.7583
1.36588
1.4005
1.4
1.40001
1.40001
1.40001
1.40001
1.40001
1.40001
1.40001
1.40001
1.40001
1.40001
1.40001
1.40001
8.89178
9.34657
9.34914
6.87363
2.06301
1.40001
1.40001
1.40001
1.40001
1.40001
1.40001
1.40001
1.40001
1.40001
1.40001
1.40001
1.40001
1.40001
1.40001
1.40001
8.83774
9.27905
9.30519
4.99516
1.36197
1.40001
1.40001
1.40001
1.40001
1.40001
1.40001
1.40001
1.40001
1.40001
1.40001
1.40001
1.40001
1.40001
1.40001
1.40001
9.04924
9.22061
8.34472
2.86418
1.4
1.40001
1.40001
1.40001
1.40001
1.40001
1.40001
1.40001
1.40001
1.40001
1.40001
1.40001
1.40001
1.40001
1.40001
1.40001
9.63357
9.30239
6.78993
1.62326
1.40001
1.40001
1.40001
1.40001
1.40001
1.40001
1.40001
1.40001
1.40001
1.40001
1.40001
1.40001
1.40001
1.40001
1.40001
1.40001
10.0001
8.77713
4.83298
1.38308
1.40001
1.40001
1.40001
1.40001
1.40001
1.40001
1.40001
1.40001
1.40001
1.40001
1.40001
1.40001
1.40001
1.40001
1.40001
1.40001
10.3224
8.35604
3.20207
1.40001
1.40001
1.40001
1.40001
1.40001
1.40001
1.40001
1.40001
1.40001
1.40001
1.40001
1.40001
1.40001
1.40001
1.40001
1.40001
1.40001
10.4259
7.48026
2.2887
1.40001
1.40001
1.40001
1.40001
1.40001
1.40001
1.40001
1.40001
1.40001
1.40001
1.40001
1.40001
1.40001
1.40001
1.40001
1.40001
1.40001
10.4987
6.61348
1.62856
1.40001
1.40001
1.40001
1.40001
1.40001
1.40001
1.40001
1.40001
1.40001
1.40001
1.40001
1.40001
1.40001
1.40001
1.40001
1.40001
1.40001
10.2442
5.52848
1.40009
1.40001
1.40001
1.40001
1.40001
1.40001
1.40001
1.40001
1.40001
1.40001
1.40001
1.40001
1.40001
1.40001
1.40001
1.40001
1.40001
1.40001
9.9122
4.54296
1.40001
1.40001
1.40001
1.40001
1.40001
1.40001
1.40001
1.40001
1.40001
1.40001
1.40001
1.40001
1.40001
1.40001
1.40001
1.40001
1.40001
1.40001
9.78797
3.44421
1.40001
1.40001
1.40001
1.40001
1.40001
1.40001
1.40001
1.40001
1.40001
1.40001
1.40001
1.40001
1.40001
1.40001
1.40001
1.40001
1.40001
1.40001
9.19365
2.54564
1.40001
1.40001
1.40001
1.40001
1.40001
1.40001
1.40001
1.40001
1.40001
1.40001
1.40001
1.40001
1.40001
1.40001
1.40001
1.40001
1.40001
1.40001
8.7192
1.8804
1.40001
1.40001
1.40001
1.40001
1.40001
1.40001
1.40001
1.40001
1.40001
1.40001
1.40001
1.40001
1.40001
1.40001
1.40001
1.40001
1.40001
1.40001
7.99431
1.40726
1.40001
1.40001
1.40001
1.40001
1.40001
1.40001
1.40001
1.40001
1.40001
1.40001
1.40001
1.40001
1.40001
1.40001
1.40001
1.40001
1.40001
1.40001
6.45243
1.40024
1.40001
1.40001
1.40001
1.40001
1.40001
1.40001
1.40001
1.40001
1.40001
1.40001
1.40001
1.40001
1.40001
1.40001
1.40001
1.40001
1.40001
1.40001
6.45243
1.40024
1.40001
1.40001
1.40001
1.40001
1.40001
1.40001
1.40001
1.40001
1.40001
1.40001
1.40001
1.40001
1.40001
1.40001
1.40001
1.40001
1.40001
1.40001
7.99431
1.40726
1.40001
1.40001
1.40001
1.40001
1.40001
1.40001
1.40001
1.40001
1.40001
1.40001
1.40001
1.40001
1.40001
1.40001
1.40001
1.40001
1.40001
1.40001
8.7192
1.8804
1.40001
1.40001
1.40001
1.40001
1.40001
1.40001
1.40001
1.40001
1.40001
1.40001
1.40001
1.40001
1.40001
1.40001
1.40001
1.40001
1.40001
1.40001
9.19365
2.54564
1.40001
1.40001
1.40001
1.40001
1.40001
1.40001
1.40001
1.40001
1.40001
1.40001
1.40001
1.40001
1.40001
1.40001
1.40001
1.40001
1.40001
1.40001
9.78797
3.44421
1.40001
1.40001
1.40001
1.40001
1.40001
1.40001
1.40001
1.40001
1.40001
1.40001
1.40001
1.40001
1.40001
1.40001
1.40001
1.40001
1.40001
1.40001
9.9122
4.54296
1.40001
1.40001
1.40001
1.40001
1.40001
1.40001
1.40001
1.40001
1.40001
1.40001
1.40001
1.40001
1.40001
1.40001
1.40001
1.40001
1.40001
1.40001
10.2442
5.52848
1.40009
1.40001
1.40001
1.40001
1.40001
1.40001
1.40001
1.40001
1.40001
1.40001
1.40001
1.40001
1.40001
1.40001
1.40001
1.40001
1.40001
1.40001
10.4987
6.61348
1.62856
1.40001
1.40001
1.40001
1.40001
1.40001
1.40001
1.40001
1.40001
1.40001
1.40001
1.40001
1.40001
1.40001
1.40001
1.40001
1.40001
1.40001
10.4259
7.48026
2.28869
1.40001
1.40001
1.40001
1.40001
1.40001
1.40001
1.40001
1.40001
1.40001
1.40001
1.40001
1.40001
1.40001
1.40001
1.40001
1.40001
1.40001
10.3224
8.35604
3.20207
1.40001
1.40001
1.40001
1.40001
1.40001
1.40001
1.40001
1.40001
1.40001
1.40001
1.40001
1.40001
1.40001
1.40001
1.40001
1.40001
1.40001
10.0001
8.77713
4.83298
1.38308
1.40001
1.40001
1.40001
1.40001
1.40001
1.40001
1.40001
1.40001
1.40001
1.40001
1.40001
1.40001
1.40001
1.40001
1.40001
1.40001
9.63357
9.30239
6.78993
1.62327
1.40001
1.40001
1.40001
1.40001
1.40001
1.40001
1.40001
1.40001
1.40001
1.40001
1.40001
1.40001
1.40001
1.40001
1.40001
1.40001
9.04924
9.22061
8.34472
2.86418
1.4
1.40001
1.40001
1.40001
1.40001
1.40001
1.40001
1.40001
1.40001
1.40001
1.40001
1.40001
1.40001
1.40001
1.40001
1.40001
8.83774
9.27905
9.30519
4.99516
1.36197
1.40001
1.40001
1.40001
1.40001
1.40001
1.40001
1.40001
1.40001
1.40001
1.40001
1.40001
1.40001
1.40001
1.40001
1.40001
8.89178
9.34657
9.34914
6.87363
2.06301
1.40001
1.40001
1.40001
1.40001
1.40001
1.40001
1.40001
1.40001
1.40001
1.40001
1.40001
1.40001
1.40001
1.40001
1.40001
9.00455
9.40909
9.41976
8.43887
3.7583
1.36588
1.4005
1.4
1.40001
1.40001
1.40001
1.40001
1.40001
1.40001
1.40001
1.40001
1.40001
1.40001
1.40001
1.40001
9.20824
9.48883
9.48638
9.17685
6.5966
1.98152
1.39111
1.40016
1.4
1.40001
1.40001
1.40001
1.40001
1.40001
1.40001
1.40001
1.40001
1.40001
1.40001
1.40001
9.40933
9.51307
9.48292
9.20961
8.71564
4.6723
1.47208
1.39864
1.40001
1.40001
1.40001
1.40001
1.40001
1.40001
1.40001
1.40001
1.40001
1.40001
1.40001
1.40001
9.61125
9.52125
9.39579
9.28368
9.47732
8.05796
3.59445
1.41723
1.40001
1.40001
1.40001
1.40001
1.40001
1.40001
1.40001
1.40001
1.40001
1.40001
1.40001
1.40001
9.64912
9.56496
9.48764
9.55831
9.77556
9.54286
8.3457
3.1769
0.907871
1.40001
1.40001
1.40001
1.40001
1.40001
1.40001
1.40001
1.40001
1.40001
1.40001
1.40001
3.22673
5.05719
6.76589
7.91419
8.62568
9.02085
9.16352
8.70484
6.32196
4.46184
3.30375
2.18675
1.51318
1.38266
1.39016
1.39486
1.39884
1.39997
1.40003
1.40002
0.426156
1.19533
2.75276
4.43722
5.86152
6.75655
7.53727
8.19054
7.98031
7.33575
6.73104
5.98977
4.71932
3.23767
1.98826
1.43961
1.38516
1.39292
1.39627
1.39923
0.0489292
0.237877
0.693007
1.67793
2.93531
4.06399
4.98629
5.89054
6.57976
6.67594
6.56949
6.57545
6.51642
6.28274
5.57444
4.24914
2.90944
1.86358
1.42683
1.39025
0.00856563
0.0478223
0.181473
0.481144
1.21376
2.10493
2.85042
3.65789
4.44064
4.96514
5.25909
5.56262
5.84903
6.07772
6.20043
6.09525
5.79797
5.07277
3.89566
2.63826
0.0193458
0.0560414
0.11824
0.174589
0.424609
0.883781
1.49105
2.07893
2.70548
3.23288
3.62827
4.00722
4.38344
4.78556
5.22085
5.49374
5.67473
5.72862
5.6038
5.42764
0.0249049
0.0501698
0.101138
0.152629
0.233808
0.423527
0.724303
1.06689
1.50873
1.93624
2.31353
2.64099
2.95791
3.28691
3.7059
4.10689
4.51198
4.85801
5.077
5.24742
0.0220865
0.0391929
0.0787657
0.134594
0.221217
0.34878
0.484817
0.730268
1.01019
1.3237
1.57691
1.8228
2.06104
2.30134
2.60102
2.92325
3.25405
3.59265
3.8906
4.17279
0.0188601
0.0287322
0.0559247
0.104369
0.182383
0.286441
0.384044
0.559422
0.759474
0.979578
1.1619
1.34324
1.51431
1.6735
1.85955
2.08055
2.32569
2.56912
2.92253
2.8972
0.0195935
0.0265702
0.0490141
0.080083
0.118384
0.196322
0.272662
0.370021
0.497679
0.638702
0.784089
0.917904
1.04875
1.16888
1.30222
1.47461
1.68199
1.86874
2.15037
2.07558
0.0233311
0.0312661
0.052884
0.072512
0.0828393
0.119395
0.194187
0.215267
0.27859
0.353424
0.464795
0.579658
0.704823
0.81623
0.93923
1.07983
1.23187
1.36525
1.57865
1.52996
0.0311468
0.0404922
0.0559257
0.0649771
0.0720854
0.0955987
0.153665
0.182243
0.246651
0.317644
0.391623
0.467958
0.565364
0.643369
0.733292
0.825796
0.916568
1.00455
1.11217
1.29102
0.0438906
0.0513415
0.0583306
0.059031
0.0692405
0.0971596
0.148181
0.186728
0.245682
0.3055
0.354329
0.398625
0.457979
0.513692
0.566272
0.622442
0.673121
0.739176
0.810814
0.997066
0.0622963
0.0613395
0.0574475
0.0590219
0.070292
0.0958532
0.138314
0.181174
0.220588
0.257138
0.280411
0.303938
0.327271
0.362247
0.393299
0.4331
0.471429
0.537946
0.606568
0.748242
0.0850444
0.0782261
0.0586688
0.0592142
0.0677392
0.0858553
0.116021
0.152456
0.163026
0.177833
0.184807
0.198259
0.218076
0.251228
0.289402
0.333839
0.377014
0.430838
0.480475
0.566613
0.116912
0.105552
0.0721316
0.0575139
0.0580528
0.0673083
0.0795845
0.104213
0.110356
0.124191
0.143316
0.167491
0.204923
0.239096
0.267632
0.299496
0.330271
0.359314
0.386935
0.421775
0.146715
0.115937
0.0922891
0.0594316
0.0566029
0.0622044
0.067264
0.0821328
0.0978736
0.11768
0.145083
0.173887
0.204763
0.226276
0.240213
0.25733
0.267368
0.278216
0.280765
0.288741
0.158532
0.11859
0.099966
0.0661051
0.0589259
0.0633224
0.0672773
0.0826917
0.102034
0.122648
0.150539
0.171301
0.18594
0.190209
0.191494
0.195841
0.194214
0.195571
0.198444
0.217958
0.164176
0.123415
0.105065
0.0767736
0.0667539
0.0692312
0.0719158
0.0860142
0.102052
0.117836
0.133863
0.129451
0.126077
0.123248
0.122352
0.123177
0.127081
0.135591
0.14711
0.166023
0.16833
0.14241
0.149904
0.138039
0.129778
0.131912
0.137933
0.152666
0.175404
0.202628
0.228253
0.232816
0.230756
0.228782
0.221613
0.217095
0.217961
0.222623
0.23289
0.237924
0.246577
0.337201
0.406941
0.460107
0.487921
0.503915
0.508402
0.519777
0.540615
0.556502
0.579104
0.599357
0.603166
0.613019
0.617386
0.617595
0.627427
0.643658
0.661467
0.665157
0.673727
0.722664
0.846305
0.911972
0.905476
0.959563
1.05871
1.17603
1.22754
1.19554
1.15642
1.14121
1.15141
1.21802
1.31693
1.38126
1.39851
1.39997
1.4
1.40001
0.322107
0.426554
0.581894
0.748875
0.866854
0.935747
1.0268
1.13871
1.21491
1.19081
1.15148
1.13519
1.14779
1.21713
1.31654
1.38107
1.39848
1.39997
1.4
1.40001
0.184034
0.192957
0.225874
0.400416
0.678529
0.821667
0.947245
1.0877
1.19775
1.18199
1.14089
1.12323
1.13157
1.20608
1.31162
1.37992
1.39841
1.39997
1.4
1.40001
0.250217
0.27663
0.265023
0.243591
0.321227
0.543903
0.74895
0.964149
1.15024
1.15493
1.12163
1.10921
1.13281
1.21265
1.31571
1.38108
1.39853
1.39997
1.4
1.40001
0.30861
0.340458
0.315241
0.289947
0.290942
0.309705
0.3798
0.545591
0.836397
1.0494
1.08548
1.09167
1.12848
1.20958
1.31491
1.38171
1.39867
1.39998
1.4
1.40001
0.411391
0.423996
0.389255
0.346966
0.345712
0.357558
0.381945
0.410318
0.5276
0.793061
0.988417
1.06057
1.11914
1.21446
1.31934
1.3833
1.39886
1.39998
1.4
1.40001
0.538539
0.521967
0.468932
0.404444
0.404166
0.41167
0.424242
0.450191
0.519448
0.672113
0.863067
1.00449
1.11509
1.22219
1.32579
1.38538
1.39907
1.39999
1.4
1.40001
0.706019
0.65405
0.584831
0.485568
0.451841
0.44671
0.444042
0.459487
0.515886
0.6545
0.845098
0.998372
1.11582
1.22966
1.33241
1.38752
1.39927
1.39999
1.4
1.40001
0.905696
0.808158
0.713947
0.586205
0.494861
0.481843
0.481307
0.484902
0.538122
0.664445
0.839244
0.99582
1.12351
1.24218
1.34112
1.38998
1.39947
1.4
1.4
1.40001
1.15087
0.991282
0.880596
0.749778
0.601112
0.534731
0.516025
0.516914
0.544418
0.652869
0.819444
0.981643
1.122
1.24823
1.34666
1.39171
1.39961
1.4
1.40001
1.40001
1.688
1.18014
1.06631
0.93543
0.722588
0.581888
0.572341
0.587524
0.62714
0.703936
0.843009
1.00969
1.15791
1.28094
1.36445
1.39561
1.39985
1.4
1.40001
1.40001
2.76577
1.98808
1.47583
1.20242
0.941925
0.777798
0.773421
0.78849
0.835632
0.925043
1.03934
1.15733
1.26135
1.34229
1.38696
1.3989
1.39998
1.4
1.40001
1.40001
3.25085
2.87104
2.28682
1.80726
1.43616
1.08222
0.991137
0.993753
1.03518
1.13567
1.25059
1.32677
1.36681
1.38797
1.39737
1.39973
1.39999
1.4
1.40001
1.40001
3.04283
2.94026
2.73744
2.45096
2.12146
1.73816
1.45958
1.40479
1.42398
1.45971
1.47595
1.45969
1.417
1.40067
1.39979
1.3999
1.39999
1.4
1.40001
1.40001
2.1818
2.63357
2.64537
2.5339
2.35942
2.15233
1.93331
1.78428
1.69623
1.62247
1.53826
1.45569
1.41058
1.40055
1.39999
1.39999
1.4
1.4
1.4
1.40001
1.50597
1.79312
2.10879
2.29677
2.2625
2.14434
1.99068
1.8446
1.7205
1.61053
1.50593
1.4295
1.40313
1.40011
1.4
1.4
1.4
1.4
1.40001
1.40001
1.40415
1.427
1.5115
1.66947
1.80661
1.84937
1.81114
1.72586
1.61803
1.51181
1.43583
1.40515
1.40025
1.40001
1.4
1.4
1.4
1.40001
1.40001
1.40001
1.40008
1.40045
1.40321
1.41569
1.44561
1.47795
1.4863
1.47537
1.44756
1.41824
1.40338
1.40023
1.40001
1.40001
1.40001
1.40001
1.40001
1.40001
1.40001
1.40001
1.40001
1.40001
1.40003
1.40019
1.40087
1.40227
1.40315
1.40298
1.40192
1.40063
1.40009
1.40001
1.40001
1.40001
1.40001
1.40001
1.40001
1.40001
1.40001
1.40001
1.40001
1.40001
1.40001
1.40001
1.40001
1.40002
1.40003
1.40003
1.40002
1.40001
1.40001
1.40001
1.40001
1.40001
1.40001
1.40001
1.40001
1.40001
1.40001
1.40001
1.40001
1.40001
1.40001
1.40001
1.40001
1.40001
1.40001
1.40001
1.40001
1.40001
1.40001
1.40001
1.40001
1.40001
1.40001
1.40001
1.40001
1.40001
1.40001
1.40001
1.40001
1.40001
1.40001
1.40001
1.40001
1.40001
1.40001
1.40001
1.40001
1.40001
1.40001
1.40001
1.40001
1.40001
1.40001
1.40001
1.40001
1.40001
1.40001
1.40001
1.40001
1.40001
1.40001
1.40001
1.40001
1.40001
1.40001
1.40001
1.40001
1.40001
1.40001
1.40001
1.40001
1.40001
1.40001
1.40001
1.40001
1.40001
1.40001
1.40001
1.40001
1.40001
1.40001
1.40001
1.40001
1.40001
1.40001
1.40001
1.40001
1.40001
1.40001
1.40001
1.40001
1.40001
1.40001
1.40001
1.40001
1.40001
1.40001
1.40001
1.40001
1.40001
1.40001
1.40001
1.40001
1.40001
1.40001
1.40001
1.40001
1.40001
1.40001
1.40001
1.40001
1.40001
1.40001
1.40001
1.40001
1.40001
1.40001
1.40001
2.19628
3.3435
3.43403
2.79562
1.78832
1.44413
1.40205
1.40005
1.40001
1.40001
1.40001
1.40001
1.40001
1.40001
1.40001
3.2004
3.82055
3.44429
2.10253
1.45887
1.40087
1.4
1.4
1.40001
1.40001
1.40001
1.40001
1.40001
1.40001
1.40001
4.02265
3.91457
2.68882
1.59467
1.40663
1.40008
1.40001
1.40001
1.40001
1.40001
1.40001
1.40001
1.40001
1.40001
1.40001
4.48053
3.51511
1.8877
1.42595
1.40027
1.40001
1.40001
1.40001
1.40001
1.40001
1.40001
1.40001
1.40001
1.40001
1.40001
4.59116
2.32628
1.46324
1.40059
1.40001
1.40001
1.40001
1.40001
1.40001
1.40001
1.40001
1.40001
1.40001
1.40001
1.40001
2.87312
1.49998
1.40061
1.4
1.40001
1.40001
1.40001
1.40001
1.40001
1.40001
1.40001
1.40001
1.40001
1.40001
1.40001
1.54069
1.40079
1.4
1.4
1.4
1.40001
1.40001
1.40001
1.40001
1.40001
1.40001
1.40001
1.40001
1.40001
1.40001
1.39749
1.39983
1.4
1.40001
1.40001
1.40001
1.40001
1.40001
1.40001
1.40001
1.40001
1.40001
1.40001
1.40001
1.40001
1.39996
1.40001
1.40001
1.40001
1.40001
1.40001
1.40001
1.40001
1.40001
1.40001
1.40001
1.40001
1.40001
1.40001
1.40001
1.40001
1.40001
1.40001
1.40001
1.40001
1.40001
1.40001
1.40001
1.40001
1.40001
1.40001
1.40001
1.40001
1.40001
1.40001
1.40001
1.40001
1.40001
1.40001
1.40001
1.40001
1.40001
1.40001
1.40001
1.40001
1.40001
1.40001
1.40001
1.40001
1.40001
1.40001
1.40001
1.40001
1.40001
1.40001
1.40001
1.40001
1.40001
1.40001
1.40001
1.40001
1.40001
1.40001
1.40001
1.40001
1.40001
1.40001
1.40001
1.40001
1.40001
1.40001
1.40001
1.40001
1.40001
1.40001
1.40001
1.40001
1.40001
1.40001
1.40001
1.40001
1.40001
1.40001
1.40001
1.40001
1.40001
1.40001
1.40001
1.40001
1.40001
1.40001
1.40001
1.40001
1.40001
1.40001
1.40001
1.40001
1.40001
1.40001
1.40001
1.40001
1.40001
1.40001
1.40001
1.40001
1.40001
1.40001
1.40001
1.40001
1.40001
1.40001
1.40001
1.40001
1.40001
1.40001
1.40001
1.40001
1.40001
1.40001
1.40001
1.40001
1.40001
1.40001
1.40001
1.40001
1.40001
1.40001
1.40001
1.40001
1.40001
1.40001
1.40001
1.40001
1.40001
1.40001
1.40001
1.40001
1.40001
1.40001
1.40001
1.40001
1.40001
1.40001
1.40001
1.40001
1.40001
1.40001
1.40001
1.40001
1.40001
1.40001
1.40001
1.40001
1.40001
1.40001
1.40001
1.40001
1.40001
1.40001
1.40001
1.40001
1.40001
1.40001
1.40001
1.40001
1.40001
1.40001
1.40001
1.40001
1.40001
1.40001
1.40001
1.40001
1.40001
1.40001
1.40001
1.40001
1.40001
1.40001
1.40001
1.40001
1.40001
1.40001
1.40001
1.40001
1.40001
1.40001
1.40001
1.40001
1.40001
1.40001
1.40001
1.40001
1.40001
1.40001
1.40001
1.40001
1.40001
1.40001
1.40001
1.40001
1.40001
1.40001
1.40001
1.40001
1.40001
1.40001
1.40001
1.40001
1.40001
1.40001
1.40001
1.40001
1.40001
1.40001
1.40001
1.40001
1.40001
1.40001
1.40001
1.40001
1.40001
1.40001
1.40001
1.40001
1.40001
1.40001
1.40001
1.40001
1.40001
1.40001
1.40001
1.40001
1.40001
1.40001
1.40001
1.40001
1.40001
1.40001
1.40001
1.40001
1.40001
1.40001
1.40001
1.40001
1.40001
1.40001
1.40001
1.40001
1.40001
1.40001
1.40001
1.40001
1.40001
1.40001
1.40001
1.40001
1.40001
1.40001
1.40001
1.40001
1.40001
1.40001
1.40001
1.40001
1.40001
1.40001
1.40001
1.40001
1.40001
1.40001
1.40001
1.40001
1.40001
1.40001
1.40001
1.40001
1.40001
1.40001
1.40001
1.40001
1.40001
1.40001
1.40001
1.40001
1.40001
1.40001
1.40001
1.40001
1.40001
1.40001
1.40001
1.40001
1.40001
1.40001
1.40001
1.40001
1.40001
1.40001
1.40001
1.40001
1.40001
1.40001
1.40001
1.40001
1.40001
1.40001
1.40001
1.40001
1.40001
1.40001
1.40001
1.40001
1.40001
1.40001
1.40001
1.40001
1.40001
1.40001
1.40001
1.40001
1.40001
1.40001
1.40001
1.40001
1.40001
1.40001
1.40001
1.40001
1.40001
1.40001
1.40001
1.40001
1.40001
1.40001
1.40001
1.40001
1.40001
1.40001
1.40001
1.40001
1.40001
1.40001
1.40001
1.40001
1.40001
1.40001
1.40001
1.40001
1.40001
1.40001
1.40001
1.40001
1.40001
1.40001
1.40001
1.40001
1.40001
1.40001
1.40001
1.40001
1.40001
1.40001
1.40001
1.40001
1.40001
1.40001
1.40001
1.40001
1.40001
1.40001
1.40001
1.40001
1.40001
1.40001
1.40001
1.40001
1.40001
1.40001
1.40001
1.40001
1.40001
1.40001
1.40001
1.40001
1.40001
1.40001
1.40001
1.40001
1.40001
1.40001
1.40001
1.40001
1.40001
1.40001
1.40001
1.40001
1.40001
1.40001
1.40001
1.40001
1.40001
1.40001
1.40001
1.40001
1.40001
1.40001
1.40001
1.40001
1.40001
1.40001
1.40001
1.40001
1.40001
1.40001
1.40001
1.40001
1.40001
1.40001
1.40001
1.40001
1.40001
1.40001
1.40001
1.40001
1.40001
1.40001
1.40001
1.40001
1.40001
1.40001
1.40001
1.40001
1.40001
1.40001
1.40001
1.40001
1.40001
1.40001
1.40001
1.40001
1.40001
1.40001
1.40001
1.40001
1.40001
1.40001
1.40001
1.40001
1.40001
1.40001
1.40001
1.40001
1.40001
1.40001
1.40001
1.40001
1.40001
1.40001
1.40001
1.40001
1.40001
1.40001
1.40001
1.40001
1.40001
1.40001
1.40001
1.40001
1.40001
1.40001
1.40001
1.40001
1.40001
1.40001
1.40001
1.40001
1.40001
1.40001
1.40001
1.40001
1.40001
1.40001
1.40001
1.40001
1.40001
1.40001
1.40001
1.40001
1.40001
1.40001
1.40001
1.40001
1.40001
1.40001
1.40001
1.40001
1.40001
1.40001
1.40001
1.40001
1.40001
1.40001
1.40001
1.40001
1.40001
1.40001
1.40001
1.40001
1.40001
1.40001
1.40001
1.40001
1.40001
1.40001
1.40001
1.40001
1.40001
1.40001
1.40001
1.40001
1.40001
1.40001
1.40001
1.40001
1.40001
1.40001
1.40001
1.40001
1.40001
1.40001
1.40001
1.40001
1.40001
1.40001
1.40001
1.40001
1.40001
1.40001
1.40001
1.40001
1.40001
1.40001
1.40001
1.40001
1.40001
1.40001
1.40001
1.40001
1.40001
1.40001
1.40001
1.40001
1.40001
1.40001
1.40001
1.40001
1.40001
1.40001
1.40001
1.40001
1.40001
1.40001
1.40001
1.40001
1.40001
1.40001
1.40001
1.40001
1.40001
1.40001
1.40001
1.40001
1.40001
1.40001
1.40001
1.40001
1.40001
1.40001
1.40001
1.40001
1.40001
1.40001
1.40001
1.40001
1.40001
1.40001
1.40001
1.40001
1.40001
1.40001
1.40001
1.40001
1.40001
1.40001
1.40001
1.40001
1.40001
1.40001
1.40001
1.40001
1.40001
1.40001
1.40001
1.40001
1.40001
1.40001
1.40001
1.40001
1.40001
1.40001
1.40001
1.40001
1.40001
1.40001
1.40001
1.40001
1.40001
1.40001
1.40001
1.40001
1.40001
1.40001
1.40001
1.40001
1.40001
1.40001
1.40001
1.40001
1.40001
1.40001
1.40001
1.40001
1.40001
1.40001
1.40001
1.40001
1.40001
1.40001
1.40001
1.40001
1.40001
1.40001
1.40001
1.40001
1.40001
1.40001
1.40001
1.40001
1.40001
1.40001
1.40001
1.40001
1.40001
1.40001
1.40001
1.40001
1.40001
1.40001
1.40001
1.40001
1.40001
1.40001
1.40001
1.40001
1.40001
1.40001
1.40001
1.40001
1.40001
1.40001
1.40001
1.40001
1.40001
1.40001
1.40001
1.40001
1.40001
1.40001
1.40001
1.40001
1.40001
1.40001
1.40001
1.40001
1.40001
1.40001
1.40001
1.40001
1.40001
1.40001
1.40001
1.40001
1.40001
1.40001
1.40001
1.40001
1.40001
1.40001
1.40001
1.40001
1.40001
1.40001
1.40001
1.40001
1.40001
1.40001
1.40001
1.40001
1.40001
1.40001
1.40001
1.40001
1.40001
1.40001
1.40001
1.40001
1.40001
1.40001
1.40001
1.40001
1.40001
1.40001
1.40001
1.40001
1.40001
1.40001
1.40001
1.40001
1.40001
1.40001
1.40001
1.40001
1.40001
1.40001
1.40001
1.40001
1.40001
1.40001
1.40001
1.40001
1.40001
1.40001
1.40001
1.40001
1.40001
1.40001
1.40001
1.40001
1.40001
1.40001
1.40001
1.40001
1.40001
1.40001
1.40001
1.40001
1.40001
1.40001
1.40001
1.40001
1.40001
1.40001
1.40001
1.40001
1.40001
1.40001
1.40001
1.40001
1.40001
1.40001
1.40001
1.40001
1.40001
1.40001
1.40001
1.40001
1.40001
1.40001
1.40001
1.40001
1.40001
1.40001
1.40001
1.40001
1.40001
1.40001
1.40001
1.40001
1.40001
1.40001
1.40001
1.40001
1.40001
1.40001
1.40001
1.40001
1.40001
1.40001
1.40001
1.40001
1.40001
1.40001
1.40001
1.40001
1.40001
1.40001
1.40001
1.40001
1.40001
1.40001
1.40001
1.40001
1.40001
1.40001
1.40001
1.40001
1.40001
1.40001
1.40001
1.40001
1.40001
1.40001
1.40001
1.40001
1.40001
1.40001
1.40001
1.40001
1.40001
1.40001
1.40001
1.40001
1.40001
1.40001
1.40001
1.40001
1.40001
1.40001
1.40001
1.40001
1.40001
1.40001
1.40001
1.40001
1.40001
1.40001
1.40001
1.40001
1.40001
1.39996
1.40001
1.40001
1.40001
1.40001
1.40001
1.40001
1.40001
1.40001
1.40001
1.40001
1.40001
1.40001
1.40001
1.40001
1.39749
1.39983
1.4
1.40001
1.40001
1.40001
1.40001
1.40001
1.40001
1.40001
1.40001
1.40001
1.40001
1.40001
1.40001
1.54069
1.40079
1.4
1.4
1.4
1.40001
1.40001
1.40001
1.40001
1.40001
1.40001
1.40001
1.40001
1.40001
1.40001
2.87311
1.49998
1.40061
1.4
1.40001
1.40001
1.40001
1.40001
1.40001
1.40001
1.40001
1.40001
1.40001
1.40001
1.40001
4.59117
2.32629
1.46323
1.40059
1.40001
1.40001
1.40001
1.40001
1.40001
1.40001
1.40001
1.40001
1.40001
1.40001
1.40001
4.48052
3.51511
1.88771
1.42595
1.40027
1.40001
1.40001
1.40001
1.40001
1.40001
1.40001
1.40001
1.40001
1.40001
1.40001
4.0227
3.91455
2.68878
1.59466
1.40663
1.40008
1.40001
1.40001
1.40001
1.40001
1.40001
1.40001
1.40001
1.40001
1.40001
3.20048
3.82057
3.44427
2.10251
1.45887
1.40087
1.4
1.4
1.40001
1.40001
1.40001
1.40001
1.40001
1.40001
1.40001
2.19616
3.34352
3.43402
2.79557
1.7883
1.44412
1.40205
1.40005
1.40001
1.40001
1.40001
1.40001
1.40001
1.40001
1.40001
1.68894
2.7664
3.2508
3.04284
2.1818
1.50596
1.40415
1.40008
1.40001
1.40001
1.40001
1.40001
1.40001
1.40001
1.40001
1.17773
1.9877
2.87149
2.94027
2.63357
1.79312
1.427
1.40045
1.40001
1.40001
1.40001
1.40001
1.40001
1.40001
1.40001
1.066
1.47841
2.2855
2.73742
2.64537
2.1088
1.5115
1.40321
1.40003
1.40001
1.40001
1.40001
1.40001
1.40001
1.40001
0.935998
1.19859
1.80869
2.45103
2.5339
2.29677
1.66947
1.41569
1.40019
1.40001
1.40001
1.40001
1.40001
1.40001
1.40001
0.726697
0.93647
1.43577
2.12114
2.35938
2.26249
1.80662
1.44562
1.40087
1.40001
1.40001
1.40001
1.40001
1.40001
1.40001
0.583794
0.781604
1.08179
1.73795
2.15228
2.14435
1.84937
1.47795
1.40227
1.40002
1.40001
1.40001
1.40001
1.40001
1.40001
0.574826
0.778363
0.989367
1.45959
1.93332
1.99069
1.81114
1.4863
1.40315
1.40003
1.40001
1.40001
1.40001
1.40001
1.40001
0.595747
0.793232
0.990893
1.40464
1.78414
1.84457
1.72585
1.47537
1.40298
1.40003
1.40001
1.40001
1.40001
1.40001
1.40001
0.640124
0.841864
1.03052
1.42345
1.69603
1.72042
1.61802
1.44756
1.40192
1.40002
1.40001
1.40001
1.40001
1.40001
1.40001
0.712258
0.933012
1.13081
1.45874
1.62232
1.61046
1.51181
1.41825
1.40063
1.40001
1.40001
1.40001
1.40001
1.40001
1.40001
0.841127
1.04337
1.24764
1.47529
1.53819
1.5059
1.43583
1.40338
1.40009
1.40001
1.40001
1.40001
1.40001
1.40001
1.40001
1.00411
1.15672
1.32564
1.45957
1.45568
1.42949
1.40515
1.40023
1.40001
1.40001
1.40001
1.40001
1.40001
1.40001
1.40001
1.1552
1.2606
1.36663
1.41706
1.41059
1.40313
1.40025
1.40001
1.40001
1.40001
1.40001
1.40001
1.40001
1.40001
1.40001
1.28031
1.34232
1.38806
1.40069
1.40055
1.40011
1.40001
1.40001
1.40001
1.40001
1.40001
1.40001
1.40001
1.40001
1.40001
1.36435
1.38704
1.39741
1.39979
1.39999
1.4
1.4
1.40001
1.40001
1.40001
1.40001
1.40001
1.40001
1.40001
1.40001
1.39559
1.39891
1.39974
1.3999
1.39999
1.4
1.4
1.40001
1.40001
1.40001
1.40001
1.40001
1.40001
1.40001
1.40001
1.39985
1.39998
1.39999
1.39999
1.4
1.4
1.4
1.40001
1.40001
1.40001
1.40001
1.40001
1.40001
1.40001
1.40001
1.4
1.4
1.4
1.4
1.4
1.4
1.40001
1.40001
1.40001
1.40001
1.40001
1.40001
1.40001
1.40001
1.40001
1.40001
1.40001
1.40001
1.40001
1.4
1.40001
1.40001
1.40001
1.40001
1.40001
1.40001
1.40001
1.40001
1.40001
1.40001
1.40001
1.40001
1.40001
1.40001
1.40001
1.40001
1.40001
1.40001
1.40001
1.40001
1.40001
1.40001
1.40001
1.40001
1.40001
1.15043
0.990332
0.881095
0.752449
0.605243
0.532403
0.509286
0.508054
0.539633
0.647847
0.813989
0.981027
1.12151
1.24761
1.34627
1.39162
1.39961
1.4
1.40001
1.40001
0.905064
0.807574
0.716006
0.585945
0.496052
0.477298
0.47503
0.480266
0.533141
0.656804
0.835479
0.99746
1.12472
1.2419
1.34069
1.38989
1.39947
1.4
1.4
1.40001
0.705451
0.654303
0.58543
0.487303
0.448333
0.443445
0.436723
0.448209
0.50313
0.644685
0.841687
0.997348
1.11762
1.22983
1.33213
1.38744
1.39926
1.39999
1.4
1.40001
0.538298
0.522201
0.468347
0.405224
0.4037
0.409102
0.419735
0.44263
0.505012
0.667336
0.873252
1.02212
1.12191
1.22331
1.32598
1.38537
1.39906
1.39999
1.4
1.40001
0.411458
0.423876
0.388158
0.347366
0.346801
0.358073
0.379323
0.406943
0.525686
0.793598
0.989205
1.05608
1.11779
1.21476
1.32014
1.38336
1.39885
1.39998
1.4
1.40001
0.308757
0.340338
0.313952
0.290644
0.291943
0.311142
0.380346
0.542455