/*--------------------------------*- C++ -*----------------------------------*\
  =========                 |
  \\      /  F ield         | OpenFOAM: The Open Source CFD Toolbox
   \\    /   O peration     | Website:  https://openfoam.org
    \\  /    A nd           | Version:  7
     \\/     M anipulation  |
\*---------------------------------------------------------------------------*/
FoamFile
{
    version     2.0;
    format      ascii;
    class       volScalarField;
    location    "1";
    object      T;
}
// * * * * * * * * * * * * * * * * * * * * * * * * * * * * * * * * * * * * * //

dimensions      [0 0 0 1 0 0 0];

internalField   nonuniform List<scalar> 
3700
(
100.637
100.736
100.814
100.857
100.878
100.903
100.929
100.966
101.034
101.106
101.143
101.163
101.163
101.157
101.142
101.122
101.097
101.069
101.044
101.02
100.289
100.264
100.288
100.262
100.256
100.286
100.34
100.4
100.46
100.516
100.571
100.587
100.585
100.568
100.532
100.49
100.449
100.409
100.387
100.344
100.343
100.222
100.129
99.9972
99.9297
99.9337
99.9475
100.001
100.045
100.071
100.079
100.047
100.014
99.9819
99.9582
99.9531
99.9599
99.9773
99.997
100.017
100.357
100.226
100.107
99.9347
99.8719
99.8814
99.899
99.9628
100.019
100.077
100.107
100.112
100.112
100.098
100.072
100.052
100.028
100.014
100.012
100.037
100.335
100.199
100.05
99.8741
99.8438
99.8585
99.8816
99.9426
99.9774
100.031
100.08
100.111
100.134
100.138
100.137
100.133
100.126
100.12
100.108
100.1
100.195
100.113
99.9468
99.8528
99.8393
99.8522
99.8816
99.9462
99.9706
100.019
100.053
100.079
100.114
100.137
100.151
100.162
100.173
100.179
100.184
100.198
100.031
99.984
99.8717
99.8615
99.8824
99.9173
99.9838
100.037
100.034
100.048
100.059
100.08
100.103
100.123
100.145
100.17
100.19
100.214
100.23
100.261
99.9085
99.9023
99.8648
99.8688
99.918
99.9915
100.072
100.113
100.135
100.152
100.157
100.162
100.173
100.188
100.202
100.216
100.227
100.252
100.274
100.317
99.7934
99.8579
99.8901
99.8875
99.9374
100.044
100.14
100.154
100.187
100.213
100.229
100.239
100.263
100.275
100.29
100.301
100.31
100.325
100.339
100.383
99.6805
99.8064
99.9377
99.9825
100.005
100.108
100.194
100.178
100.21
100.238
100.26
100.282
100.313
100.327
100.346
100.363
100.378
100.393
100.413
100.446
99.586
99.7641
99.9923
100.053
100.062
100.157
100.22
100.229
100.26
100.281
100.306
100.33
100.355
100.374
100.395
100.419
100.444
100.463
100.498
100.488
99.5393
99.7555
100
100.066
100.124
100.218
100.246
100.309
100.355
100.402
100.424
100.438
100.447
100.455
100.467
100.488
100.515
100.538
100.575
100.566
99.5499
99.8533
99.9883
100.07
100.196
100.265
100.318
100.388
100.439
100.48
100.498
100.515
100.525
100.536
100.553
100.573
100.598
100.62
100.653
100.652
99.6814
99.8495
99.9798
100.083
100.224
100.3
100.369
100.444
100.497
100.537
100.556
100.573
100.588
100.606
100.633
100.661
100.688
100.71
100.724
100.733
99.7587
99.8403
99.9936
100.096
100.216
100.348
100.464
100.519
100.575
100.606
100.629
100.648
100.667
100.691
100.722
100.749
100.771
100.783
100.779
100.774
99.7268
99.886
99.9948
100.116
100.378
100.538
100.618
100.667
100.7
100.718
100.731
100.748
100.769
100.793
100.812
100.823
100.821
100.815
100.79
100.744
99.3293
99.7957
100.105
100.406
100.617
100.706
100.739
100.773
100.795
100.809
100.821
100.835
100.851
100.855
100.854
100.842
100.792
100.68
100.519
100.278
99.5357
100.145
100.473
100.665
100.769
100.814
100.841
100.862
100.873
100.879
100.881
100.882
100.88
100.856
100.769
100.619
100.357
100.101
100.006
99.9979
100.124
100.52
100.735
100.836
100.889
100.906
100.919
100.923
100.918
100.908
100.893
100.838
100.723
100.466
100.145
100.01
99.9966
99.9985
99.9992
99.9998
100.696
100.836
100.912
100.948
100.961
100.956
100.954
100.93
100.846
100.763
100.575
100.233
100.03
99.9958
99.9978
99.9989
99.9998
100
100
100
100.998
100.995
100.991
100.988
100.982
100.957
100.881
100.444
99.8514
100
100
100
100
100
100
100
100
100
100
100
100.996
100.993
100.987
100.974
100.958
100.862
100.482
100.011
100
100
100
100
100
100
100
100
100
100
100
100
100.989
100.992
100.989
100.967
100.916
100.631
100.042
99.9993
100
100
100
100
100
100
100
100
100
100
100
100
100.983
100.99
100.987
100.957
100.794
100.234
99.9964
100
100
100
100
100
100
100
100
100
100
100
100
100
100.977
100.987
100.983
100.921
100.564
99.9922
100
100
100
100
100
100
100
100
100
100
100
100
100
100
100.975
100.985
100.979
100.834
100.278
100
100
100
100
100
100
100
100
100
100
100
100
100
100
100
100.974
100.983
100.972
100.705
99.9925
100
100
100
100
100
100
100
100
100
100
100
100
100
100
100
100.986
100.978
100.916
100.471
100
100
100
100
100
100
100
100
100
100
100
100
100
100
100
100
101.004
100.974
100.818
100.123
100
100
100
100
100
100
100
100
100
100
100
100
100
100
100
100
101.015
100.94
100.68
99.9965
100
100
100
100
100
100
100
100
100
100
100
100
100
100
100
100
101.025
100.908
100.505
100
100
100
100
100
100
100
100
100
100
100
100
100
100
100
100
100
101.029
100.853
100.332
100
100
100
100
100
100
100
100
100
100
100
100
100
100
100
100
100
101.032
100.795
100.112
100
100
100
100
100
100
100
100
100
100
100
100
100
100
100
100
100
101.025
100.732
100
100
100
100
100
100
100
100
100
100
100
100
100
100
100
100
100
100
101.009
100.681
100
100
100
100
100
100
100
100
100
100
100
100
100
100
100
100
100
100
100.987
100.563
100
100
100
100
100
100
100
100
100
100
100
100
100
100
100
100
100
100
100.942
100.412
100
100
100
100
100
100
100
100
100
100
100
100
100
100
100
100
100
100
100.906
100.225
100
100
100
100
100
100
100
100
100
100
100
100
100
100
100
100
100
100
100.871
100.004
100
100
100
100
100
100
100
100
100
100
100
100
100
100
100
100
100
100
100.813
100
100
100
100
100
100
100
100
100
100
100
100
100
100
100
100
100
100
100
100.813
100
100
100
100
100
100
100
100
100
100
100
100
100
100
100
100
100
100
100
100.871
100.004
100
100
100
100
100
100
100
100
100
100
100
100
100
100
100
100
100
100
100.906
100.225
100
100
100
100
100
100
100
100
100
100
100
100
100
100
100
100
100
100
100.942
100.412
100
100
100
100
100
100
100
100
100
100
100
100
100
100
100
100
100
100
100.987
100.563
100
100
100
100
100
100
100
100
100
100
100
100
100
100
100
100
100
100
101.009
100.681
100
100
100
100
100
100
100
100
100
100
100
100
100
100
100
100
100
100
101.025
100.732
100
100
100
100
100
100
100
100
100
100
100
100
100
100
100
100
100
100
101.032
100.795
100.112
100
100
100
100
100
100
100
100
100
100
100
100
100
100
100
100
100
101.029
100.853
100.332
100
100
100
100
100
100
100
100
100
100
100
100
100
100
100
100
100
101.025
100.908
100.505
100
100
100
100
100
100
100
100
100
100
100
100
100
100
100
100
100
101.015
100.94
100.68
99.9965
100
100
100
100
100
100
100
100
100
100
100
100
100
100
100
100
101.004
100.974
100.818
100.123
100
100
100
100
100
100
100
100
100
100
100
100
100
100
100
100
100.986
100.978
100.916
100.471
100
100
100
100
100
100
100
100
100
100
100
100
100
100
100
100
100.974
100.983
100.972
100.705
99.9925
100
100
100
100
100
100
100
100
100
100
100
100
100
100
100
100.975
100.985
100.979
100.834
100.278
100
100
100
100
100
100
100
100
100
100
100
100
100
100
100
100.977
100.987
100.983
100.921
100.564
99.9922
100
100
100
100
100
100
100
100
100
100
100
100
100
100
100.983
100.99
100.987
100.957
100.794
100.234
99.9964
100
100
100
100
100
100
100
100
100
100
100
100
100
100.989
100.992
100.989
100.967
100.916
100.631
100.042
99.9993
100
100
100
100
100
100
100
100
100
100
100
100
100.996
100.993
100.987
100.974
100.958
100.862
100.482
100.011
100
100
100
100
100
100
100
100
100
100
100
100
100.998
100.995
100.991
100.988
100.982
100.957
100.881
100.444
99.8514
100
100
100
100
100
100
100
100
100
100
100
100.696
100.836
100.912
100.948
100.961
100.956
100.954
100.93
100.846
100.763
100.575
100.233
100.03
99.9958
99.9978
99.9989
99.9998
100
100
100
100.124
100.52
100.735
100.836
100.889
100.906
100.919
100.923
100.918
100.908
100.893
100.838
100.723
100.466
100.145
100.01
99.9966
99.9985
99.9992
99.9998
99.5358
100.145
100.473
100.665
100.769
100.814
100.841
100.862
100.873
100.879
100.881
100.882
100.88
100.856
100.769
100.619
100.357
100.101
100.006
99.9979
99.329
99.7957
100.105
100.405
100.617
100.706
100.739
100.773
100.795
100.809
100.821
100.835
100.851
100.855
100.854
100.842
100.792
100.68
100.519
100.278
99.7267
99.8861
99.9952
100.116
100.378
100.538
100.618
100.667
100.7
100.718
100.731
100.748
100.769
100.793
100.812
100.823
100.821
100.815
100.79
100.744
99.7585
99.8403
99.9937
100.096
100.216
100.348
100.463
100.519
100.575
100.606
100.629
100.648
100.667
100.691
100.722
100.749
100.771
100.783
100.779
100.774
99.681
99.8493
99.9798
100.084
100.225
100.3
100.369
100.443
100.497
100.537
100.556
100.573
100.588
100.606
100.633
100.661
100.688
100.71
100.724
100.733
99.5496
99.8529
99.9883
100.07
100.196
100.265
100.318
100.388
100.438
100.479
100.498
100.515
100.525
100.536
100.553
100.573
100.598
100.62
100.653
100.651
99.5392
99.755
100
100.066
100.124
100.218
100.246
100.309
100.355
100.401
100.424
100.438
100.447
100.455
100.467
100.488
100.515
100.538
100.575
100.566
99.586
99.7637
99.9916
100.053
100.062
100.158
100.219
100.229
100.26
100.281
100.306
100.33
100.355
100.374
100.395
100.419
100.444
100.463
100.498
100.488
99.6806
99.8062
99.937
99.9817
100.005
100.108
100.193
100.178
100.21
100.238
100.26
100.282
100.313
100.327
100.346
100.363
100.378
100.393
100.413
100.446
99.7937
99.8577
99.8898
99.8872
99.9372
100.044
100.139
100.154
100.187
100.213
100.229
100.239
100.263
100.275
100.29
100.301
100.31
100.325
100.339
100.383
99.9089
99.9024
99.8646
99.8687
99.9179
99.9911
100.072
100.113
100.135
100.152
100.157
100.162
100.173
100.188
100.202
100.216
100.227
100.252
100.274
100.317
100.031
99.9843
99.8717
99.8614
99.8823
99.917
99.9835
100.036
100.034
100.048
100.059
100.08
100.102
100.123
100.145
100.17
100.19
100.214
100.23
100.261
100.196
100.113
99.947
99.8528
99.8394
99.8522
99.8815
99.9458
99.9704
100.019
100.053
100.079
100.114
100.137
100.151
100.162
100.173
100.179
100.184
100.198
100.335
100.199
100.05
99.8742
99.844
99.8586
99.8816
99.9425
99.9771
100.03
100.079
100.111
100.134
100.138
100.137
100.133
100.126
100.12
100.108
100.1
100.357
100.226
100.107
99.9347
99.8722
99.8816
99.8991
99.963
100.019
100.077
100.107
100.111
100.112
100.098
100.072
100.053
100.028
100.014
100.012
100.037
100.343
100.222
100.129
99.9972
99.93
99.9339
99.9478
100.001
100.045
100.071
100.079
100.047
100.014
99.9819
99.9583
99.9532
99.9599
99.9772
99.9969
100.017
100.289
100.265
100.288
100.262
100.258
100.286
100.336
100.399
100.462
100.517
100.569
100.585
100.585
100.57
100.534
100.49
100.447
100.41
100.389
100.346
100.636
100.736
100.814
100.857
100.879
100.904
100.927
100.965
101.035
101.106
101.142
101.162
101.163
101.157
101.142
101.122
101.097
101.069
101.045
101.021
100.989
100.944
100.948
100.932
100.831
100.632
100.387
100.185
100.055
99.9825
99.9605
99.9541
99.9546
99.9654
99.9838
99.9963
99.9997
100
100
100
100.476
100.526
100.612
100.744
100.747
100.636
100.432
100.232
100.077
99.9845
99.9566
99.9508
99.9524
99.9649
99.984
99.9964
99.9997
100
100
100
100.022
100.007
100.065
100.303
100.556
100.554
100.463
100.286
100.114
99.9942
99.9496
99.9428
99.9445
99.9612
99.9833
99.9963
99.9997
100
100
100
100.073
100.078
100.045
100.009
100.142
100.36
100.358
100.274
100.133
100.007
99.9436
99.9336
99.9396
99.9609
99.9844
99.9967
99.9997
100
100
100
100.114
100.125
100.089
100.048
100.049
100.067
100.099
100.081
100.044
99.9898
99.9394
99.9253
99.9338
99.9584
99.9843
99.9969
99.9998
100
100
100
100.177
100.172
100.13
100.097
100.098
100.1
100.074
99.9575
99.8825
99.9119
99.9143
99.9145
99.9286
99.9589
99.985
99.9972
99.9998
100
100
100
100.238
100.219
100.172
100.139
100.145
100.141
100.099
99.9812
99.866
99.865
99.8787
99.898
99.9273
99.9601
99.9858
99.9975
99.9998
100
100
100
100.298
100.272
100.232
100.189
100.18
100.161
100.105
99.9834
99.8626
99.8597
99.8758
99.8978
99.9268
99.9608
99.9867
99.9978
99.9999
100
100
100
100.355
100.327
100.29
100.239
100.203
100.176
100.121
99.9969
99.8791
99.8659
99.8766
99.8983
99.9292
99.9635
99.9883
99.9982
99.9999
100
100
100
100.419
100.383
100.344
100.293
100.238
100.194
100.132
100.019
99.8882
99.8629
99.8717
99.8956
99.9303
99.9654
99.9893
99.9985
99.9999
100
100
100
100.519
100.416
100.375
100.322
100.251
100.193
100.138
100.056
99.9384
99.8792
99.882
99.9042
99.9398
99.9731
99.9928
99.9992
100
100
100
100
100.604
100.522
100.431
100.357
100.283
100.231
100.176
100.094
99.9917
99.9338
99.9323
99.9435
99.9661
99.987
99.9974
99.9998
100
100
100
100
100.585
100.558
100.499
100.423
100.346
100.263
100.19
100.106
100.022
99.9765
99.9765
99.9829
99.9916
99.9972
99.9995
100
100
100
100
100
100.459
100.484
100.469
100.429
100.379
100.311
100.228
100.145
100.076
100.034
100.018
100.009
100.002
100
100
100
100
100
100
100
100.219
100.302
100.345
100.339
100.317
100.276
100.215
100.147
100.089
100.05
100.026
100.01
100.002
100
100
100
100
100
100
100
100.03
100.096
100.162
100.198
100.194
100.175
100.142
100.103
100.068
100.042
100.021
100.006
100.001
100
100
100
100
100
100
100
100.001
100.006
100.026
100.059
100.082
100.083
100.076
100.059
100.04
100.021
100.007
100.001
100
100
100
100
100
100
100
100
100
100
100.001
100.003
100.01
100.016
100.017
100.015
100.009
100.004
100.001
100
100
100
100
100
100
100
100
100
100
100
100
100
100
100
100.001
100.001
100
100
100
100
100
100
100
100
100
100
100
100
100
100
100
100
100
100
100
100
100
100
100
100
100
100
100
100
100
100
100
100
100
100
100
100
100
100
100
100
100
100
100
100
100
100
100
100
100
100
100
100
100
100
100
100
100
100
100
100
100
100
100
100
100
100
100
100
100
100
100
100
100
100
100
100
100
100
100
100
100
100
100
100
100
100
100
100
100
100
100
100
100
100
100
100
100
100
100
100
100
100
100
100
100
100
100
100
100
100
100
100
100
100
100
100
100
100
100
100
100
100
100
100
100
100
100
100
100
100
100
100
100.59
100.642
100.591
100.393
100.128
100.015
100.001
100
100
100
100
100
100
100
100
100.665
100.653
100.503
100.205
100.019
100
100
100
100
100
100
100
100
100
100
100.7
100.629
100.362
100.068
100.002
100
100
100
100
100
100
100
100
100
100
100.716
100.511
100.161
100.009
100
100
100
100
100
100
100
100
100
100
100
100.649
100.281
100.024
100
100
100
100
100
100
100
100
100
100
100
100
100.393
100.037
100
100
100
100
100
100
100
100
100
100
100
100
100
100.042
100
100
100
100
100
100
100
100
100
100
100
100
100
100
99.9995
100
100
100
100
100
100
100
100
100
100
100
100
100
100
100
100
100
100
100
100
100
100
100
100
100
100
100
100
100
100
100
100
100
100
100
100
100
100
100
100
100
100
100
100
100
100
100
100
100
100
100
100
100
100
100
100
100
100
100
100
100
100
100
100
100
100
100
100
100
100
100
100
100
100
100
100
100
100
100
100
100
100
100
100
100
100
100
100
100
100
100
100
100
100
100
100
100
100
100
100
100
100
100
100
100
100
100
100
100
100
100
100
100
100
100
100
100
100
100
100
100
100
100
100
100
100
100
100
100
100
100
100
100
100
100
100
100
100
100
100
100
100
100
100
100
100
100
100
100
100
100
100
100
100
100
100
100
100
100
100
100
100
100
100
100
100
100
100
100
100
100
100
100
100
100
100
100
100
100
100
100
100
100
100
100
100
100
100
100
100
100
100
100
100
100
100
100
100
100
100
100
100
100
100
100
100
100
100
100
100
100
100
100
100
100
100
100
100
100
100
100
100
100
100
100
100
100
100
100
100
100
100
100
100
100
100
100
100
100
100
100
100
100
100
100
100
100
100
100
100
100
100
100
100
100
100
100
100
100
100
100
100
100
100
100
100
100
100
100
100
100
100
100
100
100
100
100
100
100
100
100
100
100
100
100
100
100
100
100
100
100
100
100
100
100
100
100
100
100
100
100
100
100
100
100
100
100
100
100
100
100
100
100
100
100
100
100
100
100
100
100
100
100
100
100
100
100
100
100
100
100
100
100
100
100
100
100
100
100
100
100
100
100
100
100
100
100
100
100
100
100
100
100
100
100
100
100
100
100
100
100
100
100
100
100
100
100
100
100
100
100
100
100
100
100
100
100
100
100
100
100
100
100
100
100
100
100
100
100
100
100
100
100
100
100
100
100
100
100
100
100
100
100
100
100
100
100
100
100
100
100
100
100
100
100
100
100
100
100
100
100
100
100
100
100
100
100
100
100
100
100
100
100
100
100
100
100
100
100
100
100
100
100
100
100
100
100
100
100
100
100
100
100
100
100
100
100
100
100
100
100
100
100
100
100
100
100
100
100
100
100
100
100
100
100
100
100
100
100
100
100
100
100
100
100
100
100
100
100
100
100
100
100
100
100
100
100
100
100
100
100
100
100
100
100
100
100
100
100
100
100
100
100
100
100
100
100
100
100
100
100
100
100
100
100
100
100
100
100
100
100
100
100
100
100
100
100
100
100
100
100
100
100
100
100
100
100
100
100
100
100
100
100
100
100
100
100
100
100
100
100
100
100
100
100
100
100
100
100
100
100
100
100
100
100
100
100
100
100
100
100
100
100
100
100
100
100
100
100
100
100
100
100
100
100
100
100
100
100
100
100
100
100
100
100
100
100
100
100
100
100
100
100
100
100
100
100
100
100
100
100
100
100
100
100
100
100
100
100
100
100
100
100
100
100
100
100
100
100
100
100
100
100
100
100
100
100
100
100
100
100
100
100
100
100
100
100
100
100
100
100
100
100
100
100
100
100
100
100
100
100
100
100
100
100
100
100
100
100
100
100
100
100
100
100
100
100
100
100
100
100
100
100
100
100
100
100
100
100
100
100
100
100
100
100
100
100
100
100
100
100
100
100
100
100
100
100
100
100
100
100
100
100
100
100
100
100
100
100
100
100
100
100
100
100
100
100
100
100
100
100
100
100
100
100
100
100
100
100
100
100
100
100
100
100
100
100
100
100
100
100
100
100
100
100
100
100
100
100
100
100
100
100
100
100
100
100
100
100
100
100
100
100
100
100
100
100
100
100
100
100
100
100
100
100
100
100
100
100
100
100
100
100
100
100
100
100
100
100
100
100
100
100
100
100
100
100
100
100
100
100
100
100
100
100
100
100
100
100
100
100
100
100
100
100
100
100
100
100
100
100
100
100
100
100
100
100
100
100
100
100
100
100
100
100
100
100
100
100
100
100
100
100
100
100
100
100
100
100
100
100
100
100
100
99.9995
100
100
100
100
100
100
100
100
100
100
100
100
100
100
100.042
100
100
100
100
100
100
100
100
100
100
100
100
100
100
100.393
100.037
100
100
100
100
100
100
100
100
100
100
100
100
100
100.649
100.281
100.024
100
100
100
100
100
100
100
100
100
100
100
100
100.716
100.511
100.161
100.009
100
100
100
100
100
100
100
100
100
100
100
100.7
100.629
100.362
100.068
100.002
100
100
100
100
100
100
100
100
100
100
100.665
100.653
100.503
100.205
100.019
100
100
100
100
100
100
100
100
100
100
100.59
100.642
100.591
100.393
100.128
100.015
100.001
100
100
100
100
100
100
100
100
100.52
100.604
100.585
100.459
100.219
100.03
100.001
100
100
100
100
100
100
100
100
100.415
100.522
100.558
100.484
100.302
100.096
100.006
100
100
100
100
100
100
100
100
100.375
100.432
100.499
100.469
100.345
100.162
100.026
100.001
100
100
100
100
100
100
100
100.322
100.356
100.423
100.429
100.339
100.198
100.059
100.003
100
100
100
100
100
100
100
100.252
100.282
100.346
100.379
100.317
100.194
100.082
100.01
100
100
100
100
100
100
100
100.194
100.231
100.263
100.311
100.276
100.175
100.083
100.016
100
100
100
100
100
100
100
100.139
100.177
100.19
100.228
100.215
100.142
100.076
100.017
100.001
100
100
100
100
100
100
100.061
100.095
100.105
100.145
100.147
100.103
100.059
100.015
100.001
100
100
100
100
100
100
99.946
99.993
100.021
100.076
100.089
100.068
100.04
100.009
100
100
100
100
100
100
100
99.8816
99.9351
99.9754
100.034
100.05
100.042
100.021
100.004
100
100
100
100
100
100
100
99.8822
99.9332
99.9758
100.017
100.026
100.021
100.007
100.001
100
100
100
100
100
100
100
99.9028
99.9435
99.9827
100.009
100.01
100.006
100.001
100
100
100
100
100
100
100
100
99.9391
99.966
99.9916
100.002
100.002
100.001
100
100
100
100
100
100
100
100
100
99.9729
99.987
99.9972
100
100
100
100
100
100
100
100
100
100
100
100
99.9928
99.9974
99.9995
100
100
100
100
100
100
100
100
100
100
100
100
99.9992
99.9998
100
100
100
100
100
100
100
100
100
100
100
100
100
100
100
100
100
100
100
100
100
100
100
100
100
100
100
100
100
100
100
100
100
100
100
100
100
100
100
100
100
100
100
100
100
100
100
100
100
100
100
100
100
100
100
100
100
100
100
100
100
100
100
100
100
100
100
100
100
100
100
100
100
100.419
100.382
100.344
100.294
100.238
100.194
100.131
100.016
99.8886
99.8605
99.8692
99.8949
99.9302
99.9653
99.9892
99.9984
99.9999
100
100
100
100.355
100.327
100.291
100.239
100.201
100.174
100.119
99.9954
99.8779
99.8627
99.8745
99.8986
99.9298
99.9635
99.9882
99.9982
99.9999
100
100
100
100.298
100.272
100.232
100.19
100.177
100.158
100.101
99.9765
99.8576
99.856
99.8738
99.8976
99.9276
99.9609
99.9867
99.9978
99.9999
100
100
100
100.238
100.219
100.171
100.139
100.144
100.139
100.096
99.9757
99.8592
99.8631
99.8826
99.9036
99.9293
99.9603
99.9858
99.9975
99.9998
100
100
100
100.177
100.172
100.13
100.097
100.099
100.1
100.073
99.9538
99.8823
99.9122
99.9152
99.9142
99.9283
99.9588
99.9851
99.9972
99.9998
100
100
100
100.114
100.125
100.088
100.048
100.049
100.068
100.098
100.079
100.044
99.9919
99.9409
99.9254
99.9337
99.9596
99.9847
99.997
99.9998
100
100
100
100.073
100.078
100.044
100.009
100.142
100.361
100.359
100.276
100.135
100.009
99.9441
99.9343
99.9391
99.9595
99.9836
99.9966
99.9997
100
100
100
100.022
100.007
100.064
100.303
100.556
100.555
100.464
100.287
100.116
99.9954
99.9488
99.9424
99.9453
99.9618
99.9837
99.9965
99.9997
100
100
100
100.475
100.526
100.612
100.744
100.747
100.637
100.434
100.232
100.078
99.9844
99.9545
99.9466
99.948
99.9619
99.983
99.9962
99.9997
100
100
100
100.989
100.944
100.948
100.932
100.831
100.632
100.389
100.184
100.054
99.9823
99.9598
99.9537
99.9542
99.9651
99.9837
99.9963
99.9997
100
100
100
)
;

boundaryField
{
    inlet
    {
        type            fixedValue;
        value           uniform 100;
    }
    outlet
    {
        type            inletOutlet;
        inletValue      uniform 100;
        value           nonuniform List<scalar> 
50
(
100
100
100
100
100
100
100
100
100
100
100
100
100
100
100
100
100
100
100
100
100
100
100
100
100
100
100
100
100
100
100
100
100
100
100
100
100
100
100
100
100
100
100
100
100
100
100
100
100
100
)
;
    }
    airfoil
    {
        type            zeroGradient;
    }
    top
    {
        type            symmetryPlane;
    }
    bottom
    {
        type            symmetryPlane;
    }
    defaultFaces
    {
        type            empty;
    }
}


// ************************************************************************* //
