/*--------------------------------*- C++ -*----------------------------------*\
  =========                 |
  \\      /  F ield         | OpenFOAM: The Open Source CFD Toolbox
   \\    /   O peration     | Website:  https://openfoam.org
    \\  /    A nd           | Version:  7
     \\/     M anipulation  |
\*---------------------------------------------------------------------------*/
FoamFile
{
    version     2.0;
    format      ascii;
    class       volVectorField;
    location    "1";
    object      U;
}
// * * * * * * * * * * * * * * * * * * * * * * * * * * * * * * * * * * * * * //

dimensions      [0 1 -1 0 0 0 0];

internalField   nonuniform List<vector> 
3700
(
(1.42747 -0.497966 0)
(1.29897 -0.573839 0)
(1.31523 -0.485539 0)
(1.3421 -0.469504 0)
(1.39829 -0.441694 0)
(1.47212 -0.414004 0)
(1.53394 -0.367488 0)
(1.57248 -0.338631 0)
(1.58763 -0.313417 0)
(1.59137 -0.265583 0)
(1.59151 -0.206378 0)
(1.59612 -0.176165 0)
(1.62778 -0.155981 0)
(1.6421 -0.158545 0)
(1.67272 -0.181575 0)
(1.72735 -0.196161 0)
(1.78758 -0.220394 0)
(1.85503 -0.242739 0)
(1.95921 -0.247655 0)
(2.0206 -0.272915 0)
(1.6246 -1.38968 0)
(1.80194 -1.41921 0)
(1.99225 -1.73236 0)
(2.01799 -2.08111 0)
(1.97319 -2.20574 0)
(1.96544 -2.16738 0)
(1.96259 -1.99167 0)
(1.91351 -1.8126 0)
(1.87216 -1.67211 0)
(1.87066 -1.48963 0)
(1.88334 -1.29382 0)
(1.92504 -1.17972 0)
(1.99994 -1.13552 0)
(2.04584 -1.11155 0)
(2.11613 -1.14849 0)
(2.1843 -1.16634 0)
(2.22219 -1.22218 0)
(2.27245 -1.26836 0)
(2.3314 -1.28249 0)
(2.39885 -1.33368 0)
(1.66375 -1.36456 0)
(1.95063 -1.30634 0)
(2.24149 -1.82644 0)
(2.23317 -2.20733 0)
(2.09291 -2.36218 0)
(2.11806 -2.41907 0)
(2.18842 -2.30069 0)
(2.14513 -2.25855 0)
(2.09917 -2.18538 0)
(2.11713 -2.05331 0)
(2.17031 -1.99783 0)
(2.21034 -1.94559 0)
(2.30432 -1.9232 0)
(2.39085 -1.86197 0)
(2.48324 -1.82038 0)
(2.57834 -1.73463 0)
(2.61125 -1.70942 0)
(2.63092 -1.6844 0)
(2.62038 -1.6524 0)
(2.59597 -1.60927 0)
(1.73103 -1.39924 0)
(2.04783 -1.30189 0)
(2.26736 -1.83969 0)
(2.16672 -2.21134 0)
(2.13875 -2.31138 0)
(2.174 -2.39166 0)
(2.29432 -2.20019 0)
(2.26693 -2.17384 0)
(2.19348 -2.15059 0)
(2.24443 -1.96753 0)
(2.23268 -1.95716 0)
(2.30151 -1.85038 0)
(2.34405 -1.81832 0)
(2.41018 -1.73322 0)
(2.51903 -1.65629 0)
(2.62724 -1.52448 0)
(2.69261 -1.35698 0)
(2.7947 -1.29375 0)
(2.83347 -1.24659 0)
(2.78632 -1.27112 0)
(1.84889 -1.47217 0)
(2.08246 -1.35996 0)
(2.08465 -1.9636 0)
(1.9229 -2.2635 0)
(2.05455 -2.2775 0)
(2.14809 -2.37797 0)
(2.28476 -2.17098 0)
(2.27892 -2.14142 0)
(2.26558 -2.13136 0)
(2.36413 -1.8504 0)
(2.38191 -1.81962 0)
(2.45839 -1.74729 0)
(2.45591 -1.73807 0)
(2.49177 -1.66867 0)
(2.53458 -1.5688 0)
(2.5783 -1.49163 0)
(2.61759 -1.34158 0)
(2.74102 -1.25702 0)
(2.78352 -1.08513 0)
(2.8507 -0.893346 0)
(1.83895 -1.49096 0)
(1.92842 -1.56781 0)
(1.79053 -2.06125 0)
(1.75257 -2.25351 0)
(1.96309 -2.18141 0)
(1.98774 -2.20752 0)
(2.14212 -1.91003 0)
(2.20379 -1.94884 0)
(2.36884 -1.93164 0)
(2.4653 -1.79646 0)
(2.47647 -1.73103 0)
(2.58161 -1.54364 0)
(2.63811 -1.50611 0)
(2.66842 -1.47908 0)
(2.68794 -1.35048 0)
(2.67471 -1.30377 0)
(2.67228 -1.18871 0)
(2.69392 -1.15426 0)
(2.73314 -1.09358 0)
(2.78839 -0.862937 0)
(1.67274 -1.39322 0)
(1.62042 -1.65582 0)
(1.55083 -2.01265 0)
(1.66473 -2.22585 0)
(1.83505 -2.06646 0)
(1.86869 -2.07529 0)
(2.03239 -1.85368 0)
(2.09294 -1.84823 0)
(2.28335 -1.66686 0)
(2.43923 -1.6413 0)
(2.57125 -1.4755 0)
(2.68078 -1.32525 0)
(2.7244 -1.18871 0)
(2.76105 -1.13659 0)
(2.79126 -0.971319 0)
(2.78515 -0.978681 0)
(2.77853 -0.864701 0)
(2.76416 -0.808395 0)
(2.75555 -0.873328 0)
(2.75452 -0.710116 0)
(1.48594 -1.26743 0)
(1.41574 -1.53578 0)
(1.42806 -1.9601 0)
(1.63157 -2.18391 0)
(1.82926 -2.0341 0)
(1.84713 -2.03457 0)
(1.96651 -1.88232 0)
(2.05082 -1.80693 0)
(2.18718 -1.58302 0)
(2.29451 -1.55546 0)
(2.43769 -1.38351 0)
(2.57147 -1.28485 0)
(2.63704 -1.00307 0)
(2.72027 -0.940561 0)
(2.74113 -0.702213 0)
(2.77357 -0.645351 0)
(2.78315 -0.525716 0)
(2.78358 -0.411611 0)
(2.76018 -0.510136 0)
(2.74006 -0.425121 0)
(1.34069 -1.10887 0)
(1.24933 -1.41655 0)
(1.35212 -1.90221 0)
(1.65917 -2.15037 0)
(1.86092 -2.00222 0)
(2.00369 -1.94106 0)
(2.07481 -1.8965 0)
(2.18059 -1.73216 0)
(2.2423 -1.53257 0)
(2.31592 -1.47126 0)
(2.42119 -1.31664 0)
(2.50587 -1.20659 0)
(2.56405 -1.00734 0)
(2.64772 -0.92792 0)
(2.66687 -0.694433 0)
(2.71528 -0.583679 0)
(2.73219 -0.428995 0)
(2.7342 -0.258577 0)
(2.71987 -0.232323 0)
(2.68857 -0.159882 0)
(1.23554 -0.951454 0)
(1.18171 -1.26022 0)
(1.4019 -1.86817 0)
(1.77296 -2.13442 0)
(2.06965 -2.03374 0)
(2.29759 -1.77903 0)
(2.5258 -1.81411 0)
(2.44332 -1.37133 0)
(2.45201 -1.31574 0)
(2.52821 -1.21163 0)
(2.58718 -1.07794 0)
(2.63206 -0.909874 0)
(2.64352 -0.802078 0)
(2.67518 -0.674962 0)
(2.67001 -0.520959 0)
(2.67415 -0.430854 0)
(2.67909 -0.326192 0)
(2.67127 -0.190715 0)
(2.65001 -0.0554832 0)
(2.6254 0.0209212 0)
(1.15384 -0.852108 0)
(1.15709 -1.15362 0)
(1.5107 -1.92414 0)
(2.05667 -2.20124 0)
(2.45937 -2.17247 0)
(2.81302 -1.65741 0)
(2.81608 -1.63615 0)
(2.78118 -1.06213 0)
(2.7476 -0.965693 0)
(2.73154 -0.677346 0)
(2.73696 -0.582053 0)
(2.72691 -0.401058 0)
(2.73771 -0.333863 0)
(2.72378 -0.211442 0)
(2.69684 -0.126029 0)
(2.66247 -0.0751258 0)
(2.63414 -0.0441217 0)
(2.62108 -0.0168335 0)
(2.56185 0.135158 0)
(2.58096 0.117826 0)
(1.02999 -0.833755 0)
(1.21186 -1.17305 0)
(1.70603 -2.02375 0)
(2.27383 -2.15866 0)
(2.42317 -1.94795 0)
(2.55815 -1.57073 0)
(2.53344 -1.4516 0)
(2.61294 -0.992122 0)
(2.63764 -0.913511 0)
(2.65098 -0.596484 0)
(2.67422 -0.460518 0)
(2.66262 -0.237304 0)
(2.68112 -0.099422 0)
(2.65235 0.0661531 0)
(2.61565 0.190291 0)
(2.58211 0.244215 0)
(2.53931 0.294184 0)
(2.5296 0.24777 0)
(2.45963 0.342321 0)
(2.4825 0.296456 0)
(0.939955 -0.848133 0)
(1.50262 -1.60143 0)
(2.17785 -2.1088 0)
(2.16462 -1.97405 0)
(2.22836 -1.65863 0)
(2.34467 -1.51309 0)
(2.4171 -1.11623 0)
(2.44671 -0.934342 0)
(2.47273 -0.74644 0)
(2.52289 -0.55908 0)
(2.55481 -0.337679 0)
(2.55538 -0.130088 0)
(2.56921 0.0149056 0)
(2.53662 0.181913 0)
(2.49037 0.334072 0)
(2.46823 0.401599 0)
(2.40209 0.517071 0)
(2.37243 0.525629 0)
(2.3227 0.576881 0)
(2.32654 0.53907 0)
(0.892327 -1.05134 0)
(1.68557 -2.15905 0)
(2.03762 -1.9925 0)
(1.96944 -1.82551 0)
(2.20264 -1.39795 0)
(2.35915 -1.33945 0)
(2.46591 -0.63865 0)
(2.5032 -0.588249 0)
(2.4985 -0.286787 0)
(2.5324 -0.18711 0)
(2.50752 0.0462311 0)
(2.47936 0.211425 0)
(2.45163 0.332285 0)
(2.4026 0.443401 0)
(2.3463 0.536573 0)
(2.31662 0.57867 0)
(2.25455 0.65689 0)
(2.21381 0.715107 0)
(2.17146 0.779265 0)
(2.14265 0.798978 0)
(0.866934 -1.16948 0)
(1.48447 -2.03442 0)
(1.85952 -1.85366 0)
(2.05726 -1.50651 0)
(2.27108 -0.760636 0)
(2.51873 -0.572411 0)
(2.55396 -0.186266 0)
(2.51434 0.104745 0)
(2.47854 0.226953 0)
(2.44649 0.37086 0)
(2.40475 0.489916 0)
(2.32774 0.624819 0)
(2.27922 0.696203 0)
(2.21355 0.773691 0)
(2.16479 0.802582 0)
(2.12104 0.828053 0)
(2.07613 0.870684 0)
(2.06705 0.888384 0)
(2.03761 0.933367 0)
(2.06384 0.957675 0)
(0.836339 -1.0489 0)
(1.60398 -1.68406 0)
(2.02277 -1.57973 0)
(2.30677 -0.316671 0)
(2.44382 -0.324904 0)
(2.45312 0.16689 0)
(2.4804 0.0738933 0)
(2.39219 0.339582 0)
(2.35067 0.438405 0)
(2.31385 0.599462 0)
(2.20847 0.759401 0)
(2.12774 0.866558 0)
(2.07404 0.921245 0)
(2.01808 0.973823 0)
(1.9802 0.97942 0)
(1.95431 0.993534 0)
(1.9513 1.01668 0)
(1.97131 0.997307 0)
(1.9979 0.996669 0)
(2.07541 0.979197 0)
(1.19732 -0.408131 0)
(2.00065 -0.631988 0)
(2.43436 -0.620372 0)
(2.37686 0.292122 0)
(2.33256 0.187364 0)
(2.37962 0.231887 0)
(2.27587 0.531263 0)
(2.19944 0.660354 0)
(2.13542 0.758189 0)
(2.09518 0.881265 0)
(1.97995 0.986932 0)
(1.91903 1.05091 0)
(1.88636 1.0757 0)
(1.86975 1.08667 0)
(1.87154 1.05568 0)
(1.89612 1.04817 0)
(1.96052 1.02132 0)
(2.16212 0.904003 0)
(2.38189 0.790795 0)
(2.78206 0.439475 0)
(1.19365 -0.0460857 0)
(1.95244 -0.420097 0)
(2.19507 0.490997 0)
(2.2465 0.437237 0)
(2.17862 0.663979 0)
(2.15231 0.748537 0)
(2.04408 0.879947 0)
(1.95475 0.96791 0)
(1.90666 1.03686 0)
(1.84419 1.12837 0)
(1.78709 1.15821 0)
(1.79076 1.15011 0)
(1.81128 1.12897 0)
(1.85224 1.08525 0)
(2.04376 0.946352 0)
(2.26005 0.824002 0)
(2.66165 0.501492 0)
(3.03353 0.0931962 0)
(3.05461 -0.0229172 0)
(3.00394 -0.00461167 0)
(1.00366 0.0225359 0)
(1.89212 0.873885 0)
(2.13044 0.785675 0)
(1.97798 0.981962 0)
(1.97007 0.969018 0)
(1.87217 1.07413 0)
(1.78356 1.13794 0)
(1.75436 1.14666 0)
(1.75212 1.16371 0)
(1.73069 1.20639 0)
(1.71788 1.19684 0)
(1.86704 1.06839 0)
(2.09973 0.883783 0)
(2.50532 0.574564 0)
(2.98838 0.133723 0)
(3.07359 -0.02992 0)
(3.00817 -0.00770579 0)
(3.00294 -0.00386032 0)
(3.00122 -0.00219944 0)
(3.00008 -0.000487819 0)
(1.16592 0.76318 0)
(1.83231 1.14274 0)
(1.83401 1.15645 0)
(1.74021 1.19519 0)
(1.71017 1.20041 0)
(1.66693 1.23995 0)
(1.65595 1.21574 0)
(1.72414 1.16598 0)
(1.75407 1.23558 0)
(1.78506 1.14861 0)
(2.26965 0.746386 0)
(2.85677 0.212102 0)
(3.09675 -0.027157 0)
(3.02068 -0.012319 0)
(3.00451 -0.00538307 0)
(3.00184 -0.00299015 0)
(3.00006 -0.000582059 0)
(2.99998 -2.29753e-05 0)
(2.99999 1.42682e-05 0)
(3 5.85573e-06 0)
(1.57589 1.25684 0)
(1.58196 1.2644 0)
(1.58791 1.27206 0)
(1.59916 1.26823 0)
(1.61505 1.25348 0)
(1.61059 1.26193 0)
(1.89322 1.1736 0)
(2.9974 0.364698 0)
(3.33634 -0.603525 0)
(3 2.60787e-11 0)
(3 1.99479e-11 0)
(3 -1.76422e-13 0)
(3 -4.95748e-14 0)
(3 -5.89804e-14 0)
(3 9.85591e-15 0)
(3 -1.70311e-14 0)
(3 -8.12511e-14 0)
(3 -1.4131e-15 0)
(3 3.37917e-14 0)
(3 1.05997e-15 0)
(1.5778 1.24609 0)
(1.58952 1.25998 0)
(1.59824 1.27454 0)
(1.60265 1.28332 0)
(1.6697 1.2642 0)
(1.78427 1.19984 0)
(2.30731 0.720585 0)
(3.00223 0.00787781 0)
(3 6.81905e-08 0)
(3 -7.35039e-10 0)
(3 -4.93239e-12 0)
(3 -1.43391e-15 0)
(3 -3.6386e-15 0)
(3 -3.85009e-15 0)
(3 -4.76555e-15 0)
(3 -5.31232e-15 0)
(3 -4.69805e-15 0)
(3 -1.71935e-15 0)
(3 -2.00857e-15 0)
(3 -2.6272e-15 0)
(1.58213 1.2525 0)
(1.60126 1.25731 0)
(1.61246 1.26477 0)
(1.59402 1.29258 0)
(1.69393 1.21995 0)
(2.15165 0.816831 0)
(2.98775 0.00324944 0)
(3.00031 -0.000614706 0)
(3 4.51286e-07 0)
(3 -2.03396e-09 0)
(3 3.83672e-13 0)
(3 -7.32607e-15 0)
(3 -3.5349e-15 0)
(3 -3.04261e-15 0)
(3 -4.34078e-15 0)
(3 -5.07155e-15 0)
(3 -2.41777e-15 0)
(3 -3.54519e-16 0)
(3 -1.14935e-15 0)
(3 -1.92689e-15 0)
(1.58738 1.25913 0)
(1.60749 1.26309 0)
(1.62749 1.25959 0)
(1.62045 1.28002 0)
(1.88297 1.06496 0)
(2.76367 0.206089 0)
(3.00468 -0.00179175 0)
(2.99992 7.11796e-05 0)
(3 -6.93762e-07 0)
(3 3.62528e-09 0)
(3 -3.23941e-12 0)
(3 7.50015e-15 0)
(3 -2.40621e-15 0)
(3 -3.33502e-15 0)
(3 -2.64e-15 0)
(3 -1.29617e-15 0)
(3 2.63196e-16 0)
(3 -6.40175e-18 0)
(3 -1.30756e-15 0)
(3 -1.65911e-15 0)
(1.58972 1.27213 0)
(1.60303 1.27289 0)
(1.63692 1.25485 0)
(1.68867 1.22268 0)
(2.34216 0.63722 0)
(3.02062 -0.0179094 0)
(2.99974 0.000158733 0)
(3 -4.06522e-06 0)
(3 8.08033e-08 0)
(3 -1.22169e-09 0)
(3 2.6185e-12 0)
(3 -5.68717e-15 0)
(3 -2.61646e-15 0)
(3 -3.23723e-15 0)
(3 -1.37118e-15 0)
(3 -4.16037e-16 0)
(3 4.60983e-16 0)
(3 -4.55608e-17 0)
(3 -5.99744e-16 0)
(3 -1.32005e-15 0)
(1.58812 1.28553 0)
(1.58826 1.27984 0)
(1.64228 1.25163 0)
(1.76237 1.15563 0)
(2.67614 0.270153 0)
(3 -6.08866e-10 0)
(3 1.38817e-08 0)
(3 -1.24716e-08 0)
(3 5.3153e-10 0)
(3 -1.76619e-12 0)
(3 -1.19447e-13 0)
(3 -1.77412e-15 0)
(3 -2.2234e-15 0)
(3 -1.70557e-15 0)
(3 -2.98264e-16 0)
(3 9.43867e-16 0)
(3 1.45922e-15 0)
(3 7.85507e-16 0)
(3 4.5634e-16 0)
(3 -7.21386e-16 0)
(1.58829 1.29902 0)
(1.55736 1.30081 0)
(1.67575 1.23235 0)
(2.19223 0.827736 0)
(3.02351 -0.0226138 0)
(3 -1.99562e-11 0)
(3 1.80701e-11 0)
(3 -4.476e-12 0)
(3 -1.10354e-12 0)
(3 1.83112e-14 0)
(3 -1.02862e-15 0)
(3 -2.10718e-15 0)
(3 -1.96448e-15 0)
(3 -1.40168e-15 0)
(3 -1.25681e-16 0)
(3 8.80384e-16 0)
(3 1.38301e-15 0)
(3 1.78098e-15 0)
(3 1.41823e-15 0)
(3 4.83317e-16 0)
(1.58864 1.3243 0)
(1.50541 1.32299 0)
(1.72944 1.19435 0)
(2.38259 0.564261 0)
(3 -1.00889e-08 0)
(3 5.73223e-11 0)
(3 -1.08734e-12 0)
(3 -2.58986e-14 0)
(3 1.09991e-14 0)
(3 -1.63127e-16 0)
(3 -3.46754e-16 0)
(3 -1.04159e-15 0)
(3 -2.15632e-15 0)
(3 -1.8374e-15 0)
(3 -4.95883e-16 0)
(3 6.97449e-16 0)
(3 2.12431e-15 0)
(3 2.2206e-15 0)
(3 2.14771e-15 0)
(3 1.3837e-15 0)
(1.59218 1.30466 0)
(1.48299 1.33426 0)
(2.00874 1.02496 0)
(2.89999 0.103881 0)
(3 -2.21909e-10 0)
(3 -3.17653e-13 0)
(3 1.07448e-14 0)
(3 5.94073e-16 0)
(3 2.31963e-16 0)
(3 5.40402e-16 0)
(3 1.68697e-16 0)
(3 -7.96162e-16 0)
(3 -1.74882e-15 0)
(3 -1.82309e-15 0)
(3 -6.87516e-16 0)
(3 5.15138e-16 0)
(3 1.48747e-15 0)
(3 2.03168e-15 0)
(3 2.36397e-15 0)
(3 2.58095e-15 0)
(1.6049 1.2948 0)
(1.48793 1.39274 0)
(2.12404 0.852172 0)
(3.01094 -0.00876883 0)
(3 1.83001e-09 0)
(3 -2.3952e-12 0)
(3 2.5069e-15 0)
(3 1.43623e-15 0)
(3 1.22835e-15 0)
(3 1.53206e-15 0)
(3 7.74085e-16 0)
(3 3.77283e-16 0)
(3 -1.25682e-15 0)
(3 -1.85869e-15 0)
(3 -1.16757e-15 0)
(3 5.31048e-16 0)
(3 6.75014e-16 0)
(3 6.50544e-16 0)
(3 2.0299e-15 0)
(3 2.93249e-15 0)
(1.61789 1.27737 0)
(1.57548 1.3101 0)
(2.43649 0.530246 0)
(3 1.7168e-13 0)
(3 -2.01271e-12 0)
(3 2.39971e-14 0)
(3 1.16797e-15 0)
(3 2.04524e-15 0)
(3 1.50678e-15 0)
(3 1.44775e-15 0)
(3 9.89729e-16 0)
(3 8.78946e-16 0)
(3 -1.94443e-16 0)
(3 -7.90536e-16 0)
(3 -4.99604e-16 0)
(3 7.20454e-16 0)
(3 6.18907e-16 0)
(3 3.12718e-16 0)
(3 8.73258e-16 0)
(3 2.78007e-15 0)
(1.63321 1.26248 0)
(1.6055 1.2611 0)
(2.62828 0.312328 0)
(3 5.565e-14 0)
(3 1.8299e-15 0)
(3 -1.05975e-15 0)
(3 1.43252e-15 0)
(3 2.24653e-15 0)
(3 1.60798e-15 0)
(3 5.37269e-16 0)
(3 3.29954e-16 0)
(3 3.23461e-17 0)
(3 -1.25497e-16 0)
(3 -3.98972e-16 0)
(3 7.26716e-17 0)
(3 9.43768e-16 0)
(3 8.38426e-16 0)
(3 6.11186e-16 0)
(3 5.33018e-16 0)
(3 6.00299e-16 0)
(1.65524 1.24185 0)
(1.82567 1.09889 0)
(2.87503 0.088541 0)
(3 -2.56134e-13 0)
(3 -3.89543e-15 0)
(3 -2.69868e-15 0)
(3 -9.28257e-16 0)
(3 -1.09323e-16 0)
(3 -4.06296e-17 0)
(3 -2.07635e-16 0)
(3 -4.02904e-16 0)
(3 -4.02249e-16 0)
(3 -4.0196e-17 0)
(3 1.46296e-16 0)
(3 -3.46128e-17 0)
(3 4.83331e-16 0)
(3 5.89325e-16 0)
(3 4.49065e-16 0)
(3 2.387e-16 0)
(3 8.7579e-17 0)
(1.68349 1.19413 0)
(1.90923 0.97266 0)
(2.99995 1.14839e-05 0)
(3 -4.10133e-15 0)
(3 -4.84519e-15 0)
(3 -3.55844e-15 0)
(3 -1.79834e-15 0)
(3 -1.48549e-15 0)
(3 -1.62499e-15 0)
(3 -7.17822e-16 0)
(3 -3.79039e-16 0)
(3 9.10921e-17 0)
(3 -1.47686e-16 0)
(3 2.42577e-16 0)
(3 9.9858e-16 0)
(3 1.2916e-15 0)
(3 7.61775e-16 0)
(3 7.64084e-16 0)
(3 3.93731e-16 0)
(3 4.93653e-17 0)
(1.69166 1.17752 0)
(2.03347 0.833742 0)
(3 -4.98184e-15 0)
(3 -5.91998e-15 0)
(3 -5.98419e-15 0)
(3 -5.61697e-15 0)
(3 -3.61744e-15 0)
(3 -2.76398e-15 0)
(3 -3.10741e-15 0)
(3 -1.78581e-15 0)
(3 -1.20604e-15 0)
(3 -1.51758e-15 0)
(3 -1.89034e-15 0)
(3 -2.2925e-15 0)
(3 2.85216e-16 0)
(3 1.18318e-15 0)
(3 9.35283e-16 0)
(3 3.43096e-16 0)
(3 2.89636e-17 0)
(3 2.62619e-16 0)
(1.77841 1.10806 0)
(2.24403 0.641545 0)
(3 -4.96362e-15 0)
(3 -6.03608e-15 0)
(3 -8.03362e-15 0)
(3 -8.73362e-15 0)
(3 -7.7802e-15 0)
(3 -5.58379e-15 0)
(3 -3.99413e-15 0)
(3 -1.90426e-15 0)
(3 -1.48562e-15 0)
(3 -3.83813e-16 0)
(3 -7.26922e-16 0)
(3 -1.40959e-15 0)
(3 -6.38171e-16 0)
(3 -1.14635e-16 0)
(3 -4.32863e-16 0)
(3 -9.43939e-16 0)
(3 -1.25935e-15 0)
(3 -1.31273e-15 0)
(1.85196 1.00495 0)
(2.47808 0.428578 0)
(3 -7.0918e-15 0)
(3 -7.94431e-15 0)
(3 -7.67026e-15 0)
(3 -7.57328e-15 0)
(3 -7.22587e-15 0)
(3 -5.74428e-15 0)
(3 -4.34306e-15 0)
(3 -2.95449e-15 0)
(3 -1.56396e-15 0)
(3 1.8402e-15 0)
(3 1.36002e-15 0)
(3 -6.61687e-18 0)
(3 -4.60516e-16 0)
(3 6.67968e-16 0)
(3 1.16868e-15 0)
(3 1.01323e-15 0)
(3 4.53863e-16 0)
(3 8.80239e-17 0)
(1.93061 0.86437 0)
(2.72128 0.200064 0)
(3 -1.67341e-15 0)
(3 -2.07125e-15 0)
(3 -2.67649e-15 0)
(3 -3.42897e-15 0)
(3 -4.4099e-15 0)
(3 -4.20022e-15 0)
(3 -2.73235e-15 0)
(3 -1.65757e-15 0)
(3 -1.33084e-15 0)
(3 -1.46526e-15 0)
(3 -1.22907e-15 0)
(3 -1.03542e-15 0)
(3 -1.03271e-15 0)
(3 4.31625e-17 0)
(3 6.97286e-16 0)
(3 1.2631e-15 0)
(3 1.6923e-15 0)
(3 1.84495e-15 0)
(2.08118 0.660083 0)
(2.99163 1.201e-05 0)
(3 -8.94845e-16 0)
(3 -1.40033e-15 0)
(3 -2.35865e-15 0)
(3 -4.32886e-15 0)
(3 -8.10815e-15 0)
(3 -1.01328e-14 0)
(3 -9.00788e-15 0)
(3 -7.52601e-15 0)
(3 -6.47354e-15 0)
(3 -6.31423e-15 0)
(3 -6.27544e-15 0)
(3 -5.75577e-15 0)
(3 -4.66526e-15 0)
(3 -4.16951e-15 0)
(3 -3.36247e-15 0)
(3 -2.08945e-15 0)
(3 -1.6324e-15 0)
(3 -9.71104e-16 0)
(1.992 0.373585 0)
(2.9998 1.24949e-06 0)
(3 9.32469e-16 0)
(3 -9.60342e-17 0)
(3 -1.40359e-15 0)
(3 -6.66231e-15 0)
(3 -1.01698e-14 0)
(3 -1.07908e-14 0)
(3 -9.67626e-15 0)
(3 -8.56503e-15 0)
(3 -7.42409e-15 0)
(3 -6.08948e-15 0)
(3 -4.80386e-15 0)
(3 -4.34923e-15 0)
(3 -4.03484e-15 0)
(3 -3.37131e-15 0)
(3 -2.46175e-15 0)
(3 -1.26879e-15 0)
(3 -6.25377e-16 0)
(3 3.77362e-16 0)
(1.992 -0.373585 0)
(2.9998 -1.24922e-06 0)
(3 2.87217e-15 0)
(3 2.57786e-15 0)
(3 1.57231e-15 0)
(3 -2.31709e-16 0)
(3 -2.28024e-15 0)
(3 -3.9158e-15 0)
(3 -4.14397e-15 0)
(3 -3.3173e-15 0)
(3 -2.41529e-15 0)
(3 -2.32406e-15 0)
(3 -2.41062e-15 0)
(3 -2.34847e-15 0)
(3 -1.90578e-15 0)
(3 -1.03837e-15 0)
(3 -6.0429e-16 0)
(3 -1.83149e-16 0)
(3 -5.50378e-17 0)
(3 -2.90764e-16 0)
(2.08118 -0.660083 0)
(2.99163 -1.20107e-05 0)
(3 5.33716e-15 0)
(3 5.42452e-15 0)
(3 3.61892e-15 0)
(3 2.16398e-15 0)
(3 1.46435e-15 0)
(3 1.49963e-15 0)
(3 1.42889e-15 0)
(3 1.1805e-15 0)
(3 9.63691e-16 0)
(3 1.14816e-15 0)
(3 6.82659e-16 0)
(3 1.47987e-16 0)
(3 1.87539e-16 0)
(3 5.31773e-16 0)
(3 5.2631e-16 0)
(3 -9.84468e-17 0)
(3 -9.87658e-16 0)
(3 -1.03572e-15 0)
(1.93061 -0.86437 0)
(2.72128 -0.200064 0)
(3 5.82689e-15 0)
(3 4.85075e-15 0)
(3 4.23949e-15 0)
(3 4.53272e-15 0)
(3 4.33552e-15 0)
(3 3.97941e-15 0)
(3 3.7714e-15 0)
(3 3.74147e-15 0)
(3 4.19946e-15 0)
(3 4.23896e-15 0)
(3 3.16434e-15 0)
(3 1.48843e-15 0)
(3 1.16443e-15 0)
(3 6.61332e-16 0)
(3 -1.15268e-16 0)
(3 -3.16485e-16 0)
(3 -3.28231e-16 0)
(3 -4.13212e-16 0)
(1.85196 -1.00495 0)
(2.47808 -0.428578 0)
(3 4.13927e-15 0)
(3 3.94149e-15 0)
(3 3.71634e-15 0)
(3 4.02927e-15 0)
(3 3.58862e-15 0)
(3 2.98665e-15 0)
(3 3.12751e-15 0)
(3 3.32171e-15 0)
(3 3.26468e-15 0)
(3 2.84899e-15 0)
(3 2.38222e-15 0)
(3 2.14135e-15 0)
(3 1.72255e-15 0)
(3 1.53029e-15 0)
(3 6.19556e-16 0)
(3 6.21488e-16 0)
(3 6.94284e-16 0)
(3 2.64043e-16 0)
(1.77841 -1.10806 0)
(2.24403 -0.641546 0)
(3 1.6786e-15 0)
(3 2.39084e-15 0)
(3 2.2104e-15 0)
(3 2.21412e-15 0)
(3 2.64798e-15 0)
(3 3.62208e-15 0)
(3 3.63793e-15 0)
(3 3.49918e-15 0)
(3 4.10785e-15 0)
(3 3.9504e-15 0)
(3 3.53139e-15 0)
(3 3.43486e-15 0)
(3 3.53991e-15 0)
(3 3.62138e-15 0)
(3 3.16418e-15 0)
(3 2.775e-15 0)
(3 8.8718e-16 0)
(3 2.53679e-16 0)
(1.69166 -1.17752 0)
(2.03347 -0.833742 0)
(3 1.83688e-15 0)
(3 1.27264e-15 0)
(3 1.08277e-15 0)
(3 1.20885e-15 0)
(3 2.04224e-15 0)
(3 2.63585e-15 0)
(3 3.10032e-15 0)
(3 3.73691e-15 0)
(3 3.56481e-15 0)
(3 2.98799e-15 0)
(3 2.75717e-15 0)
(3 2.78459e-15 0)
(3 2.02452e-15 0)
(3 1.32315e-15 0)
(3 8.52447e-16 0)
(3 -2.79488e-16 0)
(3 -1.07162e-15 0)
(3 -1.30504e-15 0)
(1.68349 -1.19413 0)
(1.90923 -0.97266 0)
(2.99995 -1.14841e-05 0)
(3 5.13395e-16 0)
(3 4.66596e-16 0)
(3 9.21542e-16 0)
(3 1.77381e-15 0)
(3 1.50891e-15 0)
(3 1.52237e-15 0)
(3 1.81528e-15 0)
(3 2.82172e-15 0)
(3 2.37891e-15 0)
(3 2.61012e-15 0)
(3 1.83853e-15 0)
(3 1.07123e-15 0)
(3 5.95071e-18 0)
(3 -7.46493e-16 0)
(3 -1.52484e-15 0)
(3 -1.55742e-15 0)
(3 -3.68058e-16 0)
(1.65524 -1.24185 0)
(1.82567 -1.09889 0)
(2.87503 -0.0885409 0)
(3 2.52086e-13 0)
(3 8.38066e-17 0)
(3 3.6234e-16 0)
(3 3.10849e-16 0)
(3 -3.90333e-16 0)
(3 -1.56763e-16 0)
(3 -3.88788e-17 0)
(3 -1.78332e-16 0)
(3 -5.59091e-17 0)
(3 1.63678e-15 0)
(3 1.42027e-15 0)
(3 1.801e-16 0)
(3 -4.86252e-16 0)
(3 -3.42786e-16 0)
(3 -3.77087e-16 0)
(3 2.51082e-16 0)
(3 3.81669e-16 0)
(1.63321 -1.26248 0)
(1.6055 -1.2611 0)
(2.62828 -0.312328 0)
(3 -5.86759e-14 0)
(3 -4.52966e-15 0)
(3 1.8213e-16 0)
(3 -5.66939e-16 0)
(3 -3.03224e-16 0)
(3 -1.01712e-16 0)
(3 2.25762e-16 0)
(3 1.999e-16 0)
(3 1.23929e-17 0)
(3 5.69747e-16 0)
(3 9.57353e-16 0)
(3 -9.67145e-16 0)
(3 -1.60385e-15 0)
(3 -1.52024e-15 0)
(3 -1.25075e-15 0)
(3 -6.74245e-16 0)
(3 -2.59378e-18 0)
(1.61789 -1.27737 0)
(1.57548 -1.3101 0)
(2.43649 -0.530246 0)
(3 -1.73179e-13 0)
(3 2.00528e-12 0)
(3 -2.39174e-14 0)
(3 -2.22822e-16 0)
(3 1.10676e-16 0)
(3 3.06066e-16 0)
(3 5.66672e-16 0)
(3 3.75914e-16 0)
(3 3.71522e-17 0)
(3 8.7335e-16 0)
(3 1.30205e-15 0)
(3 -1.34262e-15 0)
(3 -2.94297e-15 0)
(3 -2.39164e-15 0)
(3 -1.18786e-15 0)
(3 -9.50871e-16 0)
(3 -1.90949e-15 0)
(1.6049 -1.2948 0)
(1.48793 -1.39274 0)
(2.12404 -0.852172 0)
(3.01094 0.00876883 0)
(3 -1.82999e-09 0)
(3 2.39861e-12 0)
(3 -4.33719e-16 0)
(3 9.85317e-16 0)
(3 7.21567e-16 0)
(3 6.51363e-16 0)
(3 7.16946e-16 0)
(3 9.12686e-17 0)
(3 7.01869e-16 0)
(3 6.58397e-16 0)
(3 -8.76018e-16 0)
(3 -3.05783e-15 0)
(3 -2.67998e-15 0)
(3 -8.19529e-16 0)
(3 -2.21703e-15 0)
(3 -2.2861e-15 0)
(1.59218 -1.30466 0)
(1.48299 -1.33426 0)
(2.00874 -1.02496 0)
(2.89999 -0.103881 0)
(3 2.21907e-10 0)
(3 3.19756e-13 0)
(3 -6.44336e-15 0)
(3 1.54063e-15 0)
(3 1.4804e-15 0)
(3 1.27654e-15 0)
(3 1.39443e-15 0)
(3 4.5459e-16 0)
(3 -1.7e-16 0)
(3 -2.62503e-16 0)
(3 -2.94193e-16 0)
(3 -2.38398e-15 0)
(3 -2.25308e-15 0)
(3 -2.1596e-15 0)
(3 -2.41705e-15 0)
(3 -2.55212e-15 0)
(1.58864 -1.3243 0)
(1.50541 -1.32299 0)
(1.72944 -1.19435 0)
(2.38259 -0.564261 0)
(3 1.0089e-08 0)
(3 -5.73236e-11 0)
(3 1.0917e-12 0)
(3 2.71784e-14 0)
(3 -8.71269e-15 0)
(3 2.48284e-15 0)
(3 2.17354e-15 0)
(3 1.78363e-15 0)
(3 -1.25256e-15 0)
(3 -1.20834e-15 0)
(3 -3.90091e-17 0)
(3 -4.92564e-16 0)
(3 -1.3585e-15 0)
(3 -1.98067e-15 0)
(3 -1.74681e-15 0)
(3 -5.44895e-16 0)
(1.58829 -1.29902 0)
(1.55736 -1.30081 0)
(1.67575 -1.23235 0)
(2.19223 -0.827736 0)
(3.02351 0.0226138 0)
(3 1.99583e-11 0)
(3 -1.80695e-11 0)
(3 4.47825e-12 0)
(3 1.1049e-12 0)
(3 -1.70372e-14 0)
(3 2.8444e-15 0)
(3 2.8293e-15 0)
(3 -6.99158e-16 0)
(3 -1.4926e-15 0)
(3 -4.31071e-16 0)
(3 -1.3861e-15 0)
(3 -1.28976e-15 0)
(3 -1.85821e-15 0)
(3 -7.32994e-16 0)
(3 4.27969e-17 0)
(1.58812 -1.28553 0)
(1.58826 -1.27984 0)
(1.64228 -1.25163 0)
(1.76237 -1.15563 0)
(2.67614 -0.270154 0)
(3 6.08869e-10 0)
(3 -1.38817e-08 0)
(3 1.24716e-08 0)
(3 -5.31528e-10 0)
(3 1.76582e-12 0)
(3 1.20445e-13 0)
(3 3.26484e-16 0)
(3 7.16457e-16 0)
(3 -1.27447e-15 0)
(3 -1.57282e-15 0)
(3 -2.09477e-15 0)
(3 -1.67761e-15 0)
(3 -9.03085e-16 0)
(3 -3.4017e-16 0)
(3 -2.45908e-16 0)
(1.58972 -1.27213 0)
(1.60303 -1.27289 0)
(1.63692 -1.25485 0)
(1.68867 -1.22268 0)
(2.34216 -0.63722 0)
(3.02062 0.0179095 0)
(2.99974 -0.000158732 0)
(3 4.06522e-06 0)
(3 -8.08033e-08 0)
(3 1.22169e-09 0)
(3 -2.62993e-12 0)
(3 8.89145e-15 0)
(3 1.52056e-15 0)
(3 1.67891e-16 0)
(3 -1.49541e-15 0)
(3 -1.90433e-15 0)
(3 -1.6985e-15 0)
(3 -4.81443e-17 0)
(3 -7.92142e-16 0)
(3 -9.75585e-16 0)
(1.58738 -1.25913 0)
(1.60749 -1.26309 0)
(1.62749 -1.25959 0)
(1.62045 -1.28002 0)
(1.88297 -1.06496 0)
(2.76367 -0.206089 0)
(3.00468 0.00179174 0)
(2.99992 -7.11795e-05 0)
(3 6.93762e-07 0)
(3 -3.62525e-09 0)
(3 3.28328e-12 0)
(3 -8.25944e-15 0)
(3 1.21168e-15 0)
(3 1.62212e-16 0)
(3 -1.2064e-15 0)
(3 -2.54692e-15 0)
(3 -2.08983e-15 0)
(3 3.55138e-17 0)
(3 -1.4764e-15 0)
(3 -1.02205e-15 0)
(1.58213 -1.2525 0)
(1.60126 -1.25731 0)
(1.61246 -1.26477 0)
(1.59402 -1.29258 0)
(1.69393 -1.21995 0)
(2.15165 -0.816831 0)
(2.98775 -0.00324934 0)
(3.00031 0.000614704 0)
(3 -4.51286e-07 0)
(3 2.03392e-09 0)
(3 -4.29805e-13 0)
(3 4.93763e-15 0)
(3 -3.37064e-16 0)
(3 5.30537e-16 0)
(3 -6.50981e-17 0)
(3 -2.09799e-15 0)
(3 -3.45981e-15 0)
(3 -7.41077e-16 0)
(3 -1.42219e-15 0)
(3 -1.3296e-15 0)
(1.5778 -1.24609 0)
(1.58952 -1.25998 0)
(1.59824 -1.27454 0)
(1.60265 -1.28332 0)
(1.6697 -1.2642 0)
(1.78427 -1.19984 0)
(2.30731 -0.720585 0)
(3.00223 -0.0078779 0)
(3 -6.81906e-08 0)
(3 7.35042e-10 0)
(3 4.92626e-12 0)
(3 -2.83206e-15 0)
(3 -1.2514e-15 0)
(3 -1.20555e-16 0)
(3 7.23932e-16 0)
(3 -7.86818e-16 0)
(3 -2.37895e-15 0)
(3 -2.59359e-16 0)
(3 -2.58696e-16 0)
(3 1.16055e-15 0)
(1.57589 -1.25684 0)
(1.58196 -1.2644 0)
(1.58791 -1.27206 0)
(1.59916 -1.26823 0)
(1.61505 -1.25348 0)
(1.61059 -1.26193 0)
(1.89322 -1.17361 0)
(2.9974 -0.364698 0)
(3.33633 0.603525 0)
(3 -2.60831e-11 0)
(3 -1.99429e-11 0)
(3 1.72558e-13 0)
(3 4.43819e-14 0)
(3 5.42725e-14 0)
(3 -1.34396e-14 0)
(3 1.39619e-14 0)
(3 7.3658e-14 0)
(3 -1.83981e-15 0)
(3 -3.85097e-14 0)
(3 -4.8945e-15 0)
(1.16589 -0.76321 0)
(1.83229 -1.14276 0)
(1.83404 -1.15642 0)
(1.74019 -1.19521 0)
(1.71018 -1.20041 0)
(1.66694 -1.23995 0)
(1.65595 -1.21573 0)
(1.72414 -1.16598 0)
(1.75407 -1.23558 0)
(1.78506 -1.14861 0)
(2.26964 -0.74639 0)
(2.85677 -0.212106 0)
(3.09675 0.0271565 0)
(3.02068 0.0123191 0)
(3.00451 0.00538306 0)
(3.00184 0.00299013 0)
(3.00006 0.000582068 0)
(2.99998 2.29739e-05 0)
(2.99999 -1.42685e-05 0)
(3 -5.85581e-06 0)
(1.0036 -0.0226338 0)
(1.89217 -0.873771 0)
(2.13035 -0.785825 0)
(1.97807 -0.981797 0)
(1.97001 -0.969079 0)
(1.8722 -1.07414 0)
(1.78358 -1.13794 0)
(1.75436 -1.14666 0)
(1.75212 -1.16372 0)
(1.73069 -1.20639 0)
(1.71788 -1.19684 0)
(1.86705 -1.06839 0)
(2.09973 -0.883783 0)
(2.50532 -0.574563 0)
(2.98837 -0.13372 0)
(3.07359 0.029919 0)
(3.00817 0.00770551 0)
(3.00294 0.00386028 0)
(3.00122 0.00219945 0)
(3.00008 0.000487826 0)
(1.19363 0.0464536 0)
(1.9522 0.419898 0)
(2.19512 -0.490496 0)
(2.2464 -0.437662 0)
(2.17871 -0.663706 0)
(2.15234 -0.748447 0)
(2.04406 -0.87999 0)
(1.9548 -0.967849 0)
(1.90671 -1.03685 0)
(1.84418 -1.12837 0)
(1.78707 -1.15822 0)
(1.79075 -1.15012 0)
(1.81127 -1.12898 0)
(1.85224 -1.08526 0)
(2.04375 -0.946361 0)
(2.26005 -0.824006 0)
(2.66166 -0.501484 0)
(3.03353 -0.0931867 0)
(3.05461 0.0229191 0)
(3.00394 0.00461179 0)
(1.19744 0.407635 0)
(2.0006 0.631269 0)
(2.43423 0.620747 0)
(2.37654 -0.292313 0)
(2.33259 -0.187488 0)
(2.37954 -0.232221 0)
(2.27606 -0.530957 0)
(2.19939 -0.660502 0)
(2.13545 -0.758267 0)
(2.09517 -0.881311 0)
(1.97997 -0.986928 0)
(1.91903 -1.05089 0)
(1.88636 -1.07569 0)
(1.86975 -1.08667 0)
(1.87155 -1.05568 0)
(1.89612 -1.04817 0)
(1.96052 -1.02132 0)
(2.16211 -0.904004 0)
(2.38189 -0.790801 0)
(2.78206 -0.439483 0)
(0.836021 1.0485 0)
(1.60307 1.68405 0)
(2.0217 1.58003 0)
(2.30608 0.319937 0)
(2.4433 0.32227 0)
(2.45324 -0.166069 0)
(2.48038 -0.0745924 0)
(2.39235 -0.339394 0)
(2.35076 -0.438215 0)
(2.31394 -0.599392 0)
(2.20852 -0.759376 0)
(2.12767 -0.866629 0)
(2.07399 -0.921296 0)
(2.01808 -0.973829 0)
(1.98021 -0.979411 0)
(1.95431 -0.99353 0)
(1.95129 -1.01669 0)
(1.97131 -0.997312 0)
(1.99789 -0.996674 0)
(2.07541 -0.979199 0)
(0.866426 1.16901 0)
(1.48432 2.03426 0)
(1.85901 1.85349 0)
(2.05636 1.50691 0)
(2.27074 0.763463 0)
(2.51819 0.572121 0)
(2.5539 0.186587 0)
(2.51452 -0.104564 0)
(2.47848 -0.227448 0)
(2.44673 -0.370657 0)
(2.40474 -0.490003 0)
(2.32771 -0.624868 0)
(2.27922 -0.696201 0)
(2.21354 -0.773719 0)
(2.16479 -0.802598 0)
(2.12102 -0.828062 0)
(2.07613 -0.870674 0)
(2.06703 -0.888399 0)
(2.03761 -0.933358 0)
(2.06384 -0.957677 0)
(0.89167 1.05073 0)
(1.68529 2.15859 0)
(2.03769 1.99261 0)
(1.96959 1.82495 0)
(2.20158 1.39916 0)
(2.35852 1.33873 0)
(2.4656 0.640371 0)
(2.50346 0.587186 0)
(2.4988 0.286999 0)
(2.53243 0.187034 0)
(2.50768 -0.0459439 0)
(2.47939 -0.21125 0)
(2.45159 -0.332237 0)
(2.4026 -0.443338 0)
(2.34633 -0.53645 0)
(2.31665 -0.578568 0)
(2.25453 -0.656878 0)
(2.21384 -0.71507 0)
(2.17141 -0.779327 0)
(2.14269 -0.798895 0)
(0.939549 0.847967 0)
(1.50116 1.59996 0)
(2.17634 2.10871 0)
(2.16408 1.97411 0)
(2.22811 1.65872 0)
(2.34405 1.51287 0)
(2.41697 1.11621 0)
(2.44665 0.93452 0)
(2.47277 0.746672 0)
(2.52296 0.559065 0)
(2.55495 0.337856 0)
(2.55543 0.130026 0)
(2.56918 -0.0150403 0)
(2.53668 -0.181865 0)
(2.4904 -0.334019 0)
(2.46824 -0.40161 0)
(2.40208 -0.51712 0)
(2.37246 -0.525627 0)
(2.3227 -0.576909 0)
(2.32645 -0.539233 0)
(1.02978 0.83367 0)
(1.21096 1.17273 0)
(1.70378 2.02255 0)
(2.27213 2.15871 0)
(2.42293 1.94778 0)
(2.55792 1.57042 0)
(2.53323 1.45122 0)
(2.61207 0.994311 0)
(2.63784 0.912875 0)
(2.65145 0.596811 0)
(2.67457 0.459792 0)
(2.6628 0.236763 0)
(2.68122 0.0992796 0)
(2.65248 -0.0661515 0)
(2.61572 -0.190436 0)
(2.58214 -0.244382 0)
(2.53932 -0.294326 0)
(2.52964 -0.247809 0)
(2.45964 -0.342358 0)
(2.48258 -0.2963 0)
(1.15366 0.85205 0)
(1.15641 1.15329 0)
(1.50855 1.92254 0)
(2.05371 2.20024 0)
(2.45856 2.17039 0)
(2.81096 1.65895 0)
(2.81384 1.63873 0)
(2.77968 1.0634 0)
(2.74839 0.965233 0)
(2.73215 0.677717 0)
(2.73729 0.581967 0)
(2.72713 0.40108 0)
(2.7379 0.333923 0)
(2.72388 0.211318 0)
(2.6969 0.125897 0)
(2.66252 0.0750711 0)
(2.63414 0.044052 0)
(2.62109 0.0168635 0)
(2.56185 -0.135127 0)
(2.58094 -0.117899 0)
(1.23541 0.951437 0)
(1.18132 1.25985 0)
(1.40045 1.86668 0)
(1.76983 2.13305 0)
(2.0672 2.03208 0)
(2.29744 1.7794 0)
(2.52311 1.81444 0)
(2.44206 1.37121 0)
(2.45176 1.3175 0)
(2.52856 1.21131 0)
(2.58739 1.07888 0)
(2.63219 0.910124 0)
(2.64362 0.802224 0)
(2.67521 0.674973 0)
(2.67 0.520973 0)
(2.67411 0.430878 0)
(2.67905 0.326284 0)
(2.67124 0.190806 0)
(2.64999 0.055565 0)
(2.62542 -0.0206479 0)
(1.34058 1.10902 0)
(1.24924 1.41617 0)
(1.35123 1.90141 0)
(1.6578 2.14955 0)
(1.85967 2.00131 0)
(2.00227 1.94009 0)
(2.07336 1.8954 0)
(2.17977 1.73133 0)
(2.24131 1.53395 0)
(2.31616 1.47118 0)
(2.42134 1.3172 0)
(2.50598 1.20664 0)
(2.56407 1.00753 0)
(2.6477 0.92803 0)
(2.66684 0.694603 0)
(2.71526 0.583857 0)
(2.7322 0.42916 0)
(2.73422 0.258725 0)
(2.71988 0.23211 0)
(2.68851 0.160295 0)
(1.48589 1.26778 0)
(1.41553 1.53597 0)
(1.42757 1.95947 0)
(1.63043 2.1831 0)
(1.82829 2.03351 0)
(1.84661 2.03387 0)
(1.9662 1.88098 0)
(2.04988 1.80621 0)
(2.18668 1.58355 0)
(2.29467 1.55603 0)
(2.43785 1.38365 0)
(2.57168 1.28511 0)
(2.63733 1.0033 0)
(2.72061 0.940811 0)
(2.74137 0.702297 0)
(2.77376 0.645294 0)
(2.78332 0.52547 0)
(2.78369 0.411559 0)
(2.76023 0.50967 0)
(2.73996 0.425531 0)
(1.6728 1.39336 0)
(1.62049 1.65602 0)
(1.55045 2.0125 0)
(1.66394 2.22538 0)
(1.83398 2.06616 0)
(1.86815 2.07484 0)
(2.03213 1.85292 0)
(2.09221 1.84813 0)
(2.2832 1.66555 0)
(2.43939 1.64262 0)
(2.57152 1.47478 0)
(2.6816 1.32531 0)