/*--------------------------------*- C++ -*----------------------------------*\
  =========                 |
  \\      /  F ield         | OpenFOAM: The Open Source CFD Toolbox
   \\    /   O peration     | Website:  https://openfoam.org
    \\  /    A nd           | Version:  7
     \\/     M anipulation  |
\*---------------------------------------------------------------------------*/
FoamFile
{
    version     2.0;
    format      ascii;
    class       volScalarField;
    location    "8.5";
    object      p;
}
// * * * * * * * * * * * * * * * * * * * * * * * * * * * * * * * * * * * * * //

dimensions      [1 -1 -2 0 0 0 0];

internalField   nonuniform List<scalar> 
3700
(
0.11828
0.201548
0.245953
0.290159
0.329016
0.36471
0.380105
0.390978
0.409058
0.421307
0.444304
0.44808
0.436498
0.444043
0.467324
0.481478
0.498976
0.513867
0.528709
0.531188
0.0712534
0.087286
0.110344
0.12612
0.122957
0.109036
0.0955379
0.086885
0.0944752
0.11005
0.129088
0.136555
0.140526
0.149516
0.161132
0.167538
0.172542
0.182483
0.206018
0.205221
0.0613826
0.0705861
0.0812282
0.0784599
0.0659618
0.0535237
0.0492714
0.049681
0.0540856
0.0604377
0.0715076
0.0806443
0.0921173
0.103371
0.109173
0.112018
0.113288
0.113688
0.115008
0.122201
0.0584628
0.0711769
0.0756426
0.0687267
0.0541581
0.0508479
0.0515462
0.0518335
0.0552468
0.0627381
0.0733293
0.0845265
0.0991421
0.118719
0.135704
0.151275
0.161988
0.164977
0.16309
0.16664
0.0575014
0.0668709
0.0645633
0.0585773
0.055388
0.061162
0.0663515
0.072176
0.0798538
0.0956127
0.0898068
0.0929387
0.100445
0.120457
0.14405
0.16787
0.190224
0.208446
0.222031
0.228419
0.0576335
0.0656334
0.0620604
0.0570382
0.0602529
0.0701604
0.0758978
0.0892648
0.11085
0.133043
0.132854
0.140635
0.136037
0.141029
0.152085
0.17611
0.208668
0.245141
0.276456
0.318519
0.0607323
0.0647272
0.0607342
0.056307
0.0582285
0.0726823
0.0765244
0.0940376
0.128946
0.154871
0.177406
0.194623
0.203577
0.216433
0.218166
0.227734
0.243195
0.280566
0.328346
0.410926
0.0716205
0.0601701
0.0541089
0.0513727
0.054466
0.0711723
0.0755812
0.0919327
0.130353
0.166855
0.205011
0.232411
0.26857
0.297558
0.32189
0.344877
0.364536
0.387959
0.424792
0.533495
0.0766235
0.0513291
0.0454231
0.0498636
0.0600045
0.0791143
0.0850546
0.10139
0.129364
0.167622
0.218922
0.259811
0.318396
0.365951
0.415475
0.463849
0.508362
0.551415
0.592228
0.723982
0.0716087
0.0418364
0.0443342
0.0602321
0.0842914
0.102956
0.122929
0.15989
0.189857
0.215509
0.25465
0.304954
0.372985
0.437914
0.509072
0.590537
0.673052
0.751829
0.828012
0.952936
0.066424
0.03815
0.0486535
0.0710222
0.0971004
0.121875
0.167864
0.229315
0.284746
0.349865
0.40835
0.46931
0.530762
0.595428
0.660635
0.750649
0.872725
0.988396
1.17281
1.14269
0.0616778
0.0358383
0.0458883
0.067719
0.0917326
0.121802
0.191725
0.263159
0.35216
0.474232
0.570555
0.669378
0.765999
0.858236
0.944916
1.05101
1.18104
1.31533
1.55016
1.5187
0.0503617
0.0286616
0.0296219
0.0492959
0.0737538
0.115119
0.196228
0.276226
0.401872
0.583112
0.740399
0.893148
1.04181
1.17577
1.33092
1.49916
1.66438
1.82968
2.08705
2.07999
0.033919
0.0200392
0.0206513
0.0427546
0.0695036
0.14256
0.276017
0.440507
0.672223
0.889284
1.09263
1.27324
1.45658
1.63284
1.86338
2.10774
2.34887
2.58726
2.79395
3.00033
0.0211275
0.015986
0.0183344
0.0430626
0.113486
0.37483
0.639525
0.927223
1.25361
1.54159
1.76498
1.9684
2.18083
2.40549
2.7001
2.98745
3.26564
3.50106
3.64544
3.7745
0.0138039
0.0155722
0.0228102
0.126111
0.395755
0.776679
1.13575
1.53838
1.97372
2.34957
2.61531
2.87478
3.14345
3.44027
3.7698
3.99332
4.11087
4.13725
4.04106
3.90841
0.00911968
0.020823
0.130389
0.435199
0.96179
1.45827
1.96422
2.52763
3.14165
3.52516
3.74986
3.98536
4.1927
4.36626
4.47456
4.40238
4.18697
3.65511
2.79713
1.89191
0.0234607
0.140343
0.547861
1.21893
2.07651
2.86935
3.55138
4.24144
4.77992
4.84958
4.74477
4.73501
4.69383
4.53211
4.02738
3.07129
2.09488
1.33407
1.01876
0.992902
0.312573
0.887059
1.98082
3.19972
4.22722
4.84929
5.40863
5.89021
5.75681
5.30742
4.86738
4.32035
3.398
2.32609
1.42468
1.02892
0.989346
0.994907
0.997309
0.999437
2.31
3.63364
4.87033
5.71202
6.26993
6.44225
6.57641
6.23149
4.53625
3.20531
2.3701
1.56757
1.08404
0.98762
0.993097
0.9964
0.999179
0.999973
1.00002
1.00001
6.94385
6.89743
6.83714
6.93236
7.07021
6.7845
5.98035
2.22996
0.66692
1
1
1
1
1
1
1
1
1
1
1
6.9072
6.86512
6.74789
6.70305
6.85779
5.77758
2.657
1.02057
1
1
1
1
1
1
1
1
1
1
1
1
6.81131
6.85536
6.81017
6.63888
6.24182
3.47343
1.0642
0.998659
1
1
1
1
1
1
1
1
1
1
1
1
6.65909
6.82555
6.836
6.66563
4.71736
1.43243
0.992861
1.00014
0.999999
1
1
1
1
1
1
1
1
1
1
1
6.51166
6.75656
6.79481
6.16538
2.62497
0.976425
1.00036
0.999994
1
1
1
1
1
1
1
1
1
1
1
1
6.44063
6.71793
6.69675
4.90713
1.46874
1
1
1
1
1
1
1
1
1
1
1
1
1
1
1
6.41086
6.76605
6.69408
3.59373
0.986609
1
1
1
1
1
1
1
1
1
1
1
1
1
1
1
6.53821
6.72458
6.09952
2.00808
0.999979
1
1
1
1
1
1
1
1
1
1
1
1
1
1
1
6.95556
6.60038
4.85168
1.22469
1
1
1
1
1
1
1
1
1
1
1
1
1
1
1
1
7.27843
6.40311
3.44667
0.987576
1
1
1
1
1
1
1
1
1
1
1
1
1
1
1
1
7.45894
5.99905
2.27961
1
1
1
1
1
1
1
1
1
1
1
1
1
1
1
1
1
7.51887
5.35488
1.59871
1
1
1
1
1
1
1
1
1
1
1
1
1
1
1
1
1
7.55165
4.7414
1.15886
1
1
1
1
1
1
1
1
1
1
1
1
1
1
1
1
1
7.34296
4.02043
1.00844
1
1
1
1
1
1
1
1
1
1
1
1
1
1
1
1
1
7.15253
3.28751
1
1
1
1
1
1
1
1
1
1
1
1
1
1
1
1
1
1
7.05966
2.48968
1
1
1
1
1
1
1
1
1
1
1
1
1
1
1
1
1
1
6.63096
1.84074
1
1
1
1
1
1
1
1
1
1
1
1
1
1
1
1
1
1
6.30266
1.35514
1
1
1
1
1
1
1
1
1
1
1
1
1
1
1
1
1
1
5.75562
1.00552
1
1
1
1
1
1
1
1
1
1
1
1
1
1
1
1
1
1
4.64124
1.0001
1
1
1
1
1
1
1
1
1
1
1
1
1
1
1
1
1
1
4.6343
1.00009
1
1
1
1
1
1
1
1
1
1
1
1
1
1
1
1
1
1
5.756
1.00591
1
1
1
1
1
1
1
1
1
1
1
1
1
1
1
1
1
1
6.31572
1.36508
1
1
1
1
1
1
1
1
1
1
1
1
1
1
1
1
1
1
6.61342
1.84842
1
1
1
1
1
1
1
1
1
1
1
1
1
1
1
1
1
1
7.04695
2.47855
1
1
1
1
1
1
1
1
1
1
1
1
1
1
1
1
1
1
7.16822
3.26903
1
1
1
1
1
1
1
1
1
1
1
1
1
1
1
1
1
1
7.34087
4.0294
1.01379
1
1
1
1
1
1
1
1
1
1
1
1
1
1
1
1
1
7.54503
4.74981
1.16359
1
1
1
1
1
1
1
1
1
1
1
1
1
1
1
1
1
7.51444
5.36052
1.59958
1
1
1
1
1
1
1
1
1
1
1
1
1
1
1
1
1
7.45634
5.98528
2.28374
1
1
1
1
1
1
1
1
1
1
1
1
1
1
1
1
1
7.2858
6.41493
3.43397
0.987647
1
1
1
1
1
1
1
1
1
1
1
1
1
1
1
1
6.95735
6.59695
4.85422
1.22733
1
1
1
1
1
1
1
1
1
1
1
1
1
1
1
1
6.52713
6.69382
6.0654
2.00882
0.999984
1
1
1
1
1
1
1
1
1
1
1
1
1
1
1
6.42328
6.79628
6.72951
3.58315
0.978606
1
1
1
1
1
1
1
1
1
1
1
1
1
1
1
6.45461
6.73688
6.71355
4.91933
1.48752
1
1
1
1
1
1
1
1
1
1
1
1
1
1
1
6.52036
6.74883
6.78008
6.12892
2.63235
0.976517
1.00035
0.999994
1
1
1
1
1
1
1
1
1
1
1
1
6.65621
6.80753
6.8264
6.67343
4.712
1.41703
0.993147
1.00013
0.999999
1
1
1
1
1
1
1
1
1
1
1
6.8138
6.85322
6.8226
6.66325
6.23709
3.45556
1.05919
0.998702
1
1
1
1
1
1
1
1
1
1
1
1
6.92359
6.86781
6.75701
6.71615
6.82169
5.77605
2.67866
1.02452
1
1
1
1
1
1
1
1
1
1
1
1
6.93861
6.89296
6.83696
6.93098
7.06733
6.78397
5.9819
2.24471
0.665808
1
1
1
1
1
1
1
1
1
1
1
2.30677
3.63276
4.87253
5.70978
6.27233
6.44187
6.57448
6.22772
4.53113
3.20167
2.36743
1.56529
1.08319
0.987527
0.993067
0.996405
0.999188
0.999974
1.00002
1.00001
0.310899
0.874998
1.95911
3.19036
4.23377
4.85836
5.4111
5.88491
5.75261
5.30778
4.87098
4.32475
3.40103
2.32788
1.4258
1.02929
0.989381
0.994918
0.997312
0.999437
0.0248216
0.149633
0.553985
1.20899
2.0682
2.86745
3.55149
4.24038
4.78433
4.8543
4.7546
4.73192
4.69098
4.52944
4.02473
3.06918
2.09391
1.33394
1.01877
0.992901
0.00843769
0.0210411
0.132073
0.432949
0.96331
1.45549
1.96328
2.52922
3.14447
3.52849
3.75293
3.98647
4.19236
4.36189
4.47209
4.40088
4.18646
3.65547
2.79809
1.89265
0.0129045
0.0169118
0.0216659
0.135235
0.397309
0.780889
1.13621
1.53543
1.97077
2.35041
2.61902
2.87797
3.14413
3.4385
3.76752
3.99212
4.11154
4.13834
4.04233
3.90968
0.0212374
0.0166942
0.0195532
0.0454525
0.116194
0.374399
0.637525
0.926083
1.25405
1.54087
1.76373
1.96739
2.17981
2.405
2.69911
2.98579
3.26492
3.50153
3.64652
3.77543
0.0314215
0.0203461
0.0222457
0.0413209
0.0705954
0.143544
0.279192
0.444044
0.674128
0.889118
1.091
1.27132
1.45506
1.63161
1.86156
2.10475
2.34581
2.58558
2.79431
3.00141
0.0457817
0.0276065
0.0299588
0.0481226
0.0757579
0.116908
0.200937
0.279239
0.405021
0.587083
0.743934
0.895279
1.04294
1.17597
1.32999
1.4972
1.66291
1.83015
2.08916
2.08205
0.0577258
0.0340057
0.0452796
0.0681022
0.0946699
0.123058
0.19252
0.264634
0.354467
0.475874
0.5722
0.671025
0.767278
0.858982
0.944712
1.05069
1.18233
1.318
1.55226
1.51977
0.063638
0.0357883
0.0464273
0.0709121
0.0984731
0.121473
0.166788
0.229502
0.284179
0.348384
0.406799
0.468623
0.530299
0.594726
0.65972
0.750264
0.8733
0.989172
1.17348
1.14294
0.0693426
0.0382517
0.0417345
0.0591516
0.0839112
0.10135
0.121469
0.159288
0.186933
0.214093
0.254177
0.304544
0.371726
0.435864
0.507113
0.589242
0.672309
0.751375
0.827543
0.953167
0.0755961
0.0469125
0.0427959
0.0493329
0.0593985
0.0780507
0.0860609
0.103053
0.130051
0.167976
0.219061
0.259303
0.317212
0.364593
0.414498
0.463448
0.508394
0.551554
0.592423
0.724016
0.0752752
0.0585397
0.0514327
0.0508873
0.055563
0.0728031
0.0766326
0.0933055
0.131731
0.167184
0.204997
0.231978
0.267998
0.297196
0.322263
0.346044
0.366334
0.389306
0.425432
0.533452
0.0646299
0.0639289
0.0589904
0.0561775
0.0601109
0.074152
0.0771615
0.0948237
0.130152
0.155015
0.1774
0.194322
0.203781
0.217475
0.21997
0.230025
0.244809
0.280159
0.326854
0.410376
0.0589444
0.0651765
0.0620482
0.0581921
0.0617449
0.0708553
0.0760939
0.0896275
0.111646
0.132939
0.133072
0.140841
0.136051
0.141311
0.15243
0.17548
0.207025
0.243661
0.275535
0.318444
0.0592708
0.0671057
0.0652842
0.0595416
0.0563072
0.0615771
0.0684971
0.0717245
0.0779641
0.0942971
0.088855
0.0919284
0.0996829
0.119919
0.142909
0.166393
0.18861
0.207582
0.221932
0.228441
0.0599551
0.0715813
0.0775624
0.0706625
0.0573166
0.0518153
0.053178
0.0525235
0.0541679
0.0611812
0.0709899
0.0832121
0.0986011
0.11802
0.134302
0.149539
0.16152
0.166094
0.164321
0.167848
0.0632077
0.0704149
0.0806572
0.0793543
0.0695208
0.0553568
0.0510167
0.0508285
0.0536947
0.0591198
0.0708245
0.080346
0.0918009
0.102618
0.108464
0.111516
0.11383
0.114996
0.116216
0.123082
0.077116
0.0936172
0.118759
0.136598
0.158244
0.171225
0.173723
0.171363
0.158548
0.139624
0.146526
0.164711
0.195201
0.224544
0.241089
0.244096
0.235574
0.216163
0.197841
0.190567
0.128508
0.215254
0.259624
0.30364
0.35311
0.412661
0.433073
0.447793
0.459235
0.446894
0.464558
0.477758
0.480882
0.48931
0.496692
0.500131
0.511892
0.510513
0.50875
0.521535
0.564264
0.638463
0.712061
0.805086
0.818138
0.856882
0.863441
0.888126
0.900716
0.905938
0.90764
0.91641
0.940559
0.963625
0.960621
0.946025
0.942249
0.946463
0.955462
0.958686
0.289902
0.413902
0.546741
0.691327
0.760533
0.825177
0.848295
0.876853
0.893061
0.911058
0.920318
0.926628
0.932264
0.942774
0.950034
0.955304
0.959223
0.961496
0.959055
0.955553
0.138264
0.159832
0.232291
0.347223
0.536672
0.693343
0.76566
0.840524
0.892304
0.92206
0.933807
0.936658
0.93395
0.933601
0.941476
0.956953
0.967286
0.969297
0.963749
0.955805
0.187023
0.213775
0.234687
0.241043
0.263434
0.337883
0.531316
0.715571
0.825469
0.895863
0.94401
0.941412
0.93158
0.923741
0.933623
0.951518
0.965681
0.966909
0.960369
0.954589
0.231923
0.25957
0.275718
0.299653
0.301476
0.288945
0.307111
0.389996
0.591266
0.792862
0.901107
0.927403
0.934883
0.926086
0.92905
0.946436
0.962172
0.96061
0.954301
0.956124
0.30974
0.318446
0.326834
0.343765
0.338314
0.327843
0.332426
0.328028
0.353349
0.490299
0.71182
0.88732
0.928915
0.934342
0.927829
0.944734
0.959854
0.955732
0.951443
0.959988
0.409088
0.392594
0.383344
0.392342
0.394689
0.37994
0.375689
0.3687
0.357691
0.366867
0.450181
0.656739
0.865037
0.937891
0.926766
0.941336
0.944683
0.935125
0.944968
0.963707
0.532305
0.497224
0.435415
0.42839
0.435653
0.428887
0.420004
0.40695
0.390818
0.379626
0.384109
0.436607
0.62373
0.869036
0.922731
0.949145
0.934305
0.928498
0.949058
0.966415
0.688734
0.617712
0.505948
0.47301
0.487006
0.492627
0.479229
0.459512
0.436301
0.415208
0.403705
0.40609
0.442614
0.629718
0.859851
0.939545
0.913109
0.924028
0.960787
0.966615
0.875696
0.777408
0.627616
0.543844
0.537504
0.544763
0.530786
0.506562
0.478884
0.437945
0.43611
0.426858
0.431953
0.465487
0.628077
0.849002
0.88016
0.928453
0.96799
0.961846
1.2363
1.01212
0.82197
0.656237
0.592844
0.592109
0.6044
0.595252
0.562415
0.509328
0.479714
0.468372
0.464303
0.462493
0.482173
0.575416
0.756016
0.884742
0.934772
0.952584
2.01979
1.48546
1.20498
0.995596
0.819462
0.723001
0.705677
0.683373
0.62894
0.575067
0.539429
0.526067
0.522131
0.513733
0.493353
0.493547
0.53246
0.648098
0.789067
0.909648
2.50809
2.15176
1.72469
1.36338
1.11799
0.921166
0.790654
0.75223
0.71447
0.689134
0.668172
0.638017
0.604396
0.575975
0.54416
0.521002
0.529747
0.542817
0.580844
0.743629
2.36747
2.34812
2.2351
1.92066
1.57186
1.29769
1.05038
0.933455
0.889265
0.838425
0.779406
0.715946
0.652337
0.613673
0.590957
0.577348
0.56896
0.559418
0.545264
0.577656
1.68106
2.14891
2.22347
2.19357
2.05155
1.79406
1.49967
1.23485
1.07539
0.943398
0.864009
0.804474
0.748317
0.715822
0.692128
0.666989
0.649046
0.620625
0.569003
0.569974
1.10817
1.43951
1.84926
2.11287
2.11128
2.07382
1.93538
1.69162
1.44273
1.21487
1.06783
0.989215
0.91993
0.863849
0.803727
0.735246
0.69107
0.662088
0.634036
0.608569
1.00451
1.04421
1.20782
1.54825
1.86268
2.01914
2.01432
1.97039
1.83403
1.62757
1.3943
1.21629
1.07713
0.972657
0.896919
0.819361
0.748332
0.740163
0.738297
0.701599
1.00009
1.00109
1.0109
1.07769
1.26626
1.57124
1.82615
1.93537
1.92832
1.88734
1.76554
1.58062
1.38747
1.20771
1.09316
1.01617
0.925885
0.871763
0.833142
0.7649
1
1.00001
1.00016
1.0024
1.01871
1.10013
1.29303
1.55407
1.77177
1.85865
1.85215
1.81529
1.71931
1.55218
1.37294
1.22995
1.10458
0.994836
0.919672
0.832767
1
1
1
1.00003
1.00033
1.00383
1.02496
1.1092
1.28581
1.51772
1.7037
1.79075
1.7862
1.75784
1.6773
1.53717
1.38486
1.23256
1.12222
0.99685
1
1
1
1
1
1.00005
1.0005
1.00483
1.02548
1.10667
1.2645
1.47672
1.6324
1.72664
1.72477
1.70541
1.64727
1.53157
1.39769
1.1963
1
1
1
1
1
1
1
1.00006
1.00053
1.00514
1.02455
1.09534
1.233
1.42808
1.57087
1.66115
1.66435
1.65352
1.61795
1.4656
1
1
1
1
1
1
1
1
1
1.00007
1.00054
1.00438
1.02247
1.07842
1.19899
1.36948
1.51788
1.59749
1.61045
1.58915
1
1
1
1
1
1
1
1
1
1
1.00001
1.00006
1.00052
1.00323
1.01845
1.06398
1.16293
1.31499
1.44555
1.5495
1
1
1
1
1
1
1
1
1
1
1
1
1.00001
1.00004
1.00043
1.00256
1.01406
1.05158
1.13657
1.38841
1.62261
2.46664
2.58403
2.08458
1.30966
1.03691
1.00187
1.00005
1
1
1
1
1
1
1
2.34377
2.81607
2.52812
1.54162
1.04839
1.00081
1
1
1
1
1
1
1
1
1
2.92938
2.87109
1.98333
1.15324
1.00526
1.00005
1
1
1
1
1
1
1
1
1
3.25285
2.55853
1.36513
1.01905
1.00017
1
1
1
1
1
1
1
1
1
1
3.31761
1.68464
1.04773
1.00055
1
1
1
1
1
1
1
1
1
1
1
2.06535
1.07323
1.00048
0.999998
0.999999
1
1
1
1
1
1
1
1
1
1
1.1018
1.00054
0.999997
1
1
1
1
1
1
1
1
1
1
1
1
0.998145
0.999864
0.999996
1
1
1
1
1
1
1
1
1
1
1
1
0.999966
1
1
1
1
1
1
1
1
1
1
1
1
1
1
1
1
1
1
1
1
1
1
1
1
1
1
1
1
1
1
1
1
1
1
1
1
1
1
1
1
1
1
1
1
1
1
1
1
1
1
1
1
1
1
1
1
1
1
1
1
1
1
1
1
1
1
1
1
1
1
1
1
1
1
1
1
1
1
1
1
1
1
1
1
1
1
1
1
1
1
1
1
1
1
1
1
1
1
1
1
1
1
1
1
1
1
1
1
1
1
1
1
1
1
1
1
1
1
1
1
1
1
1
1
1
1
1
1
1
1
1
1
1
1
1
1
1
1
1
1
1
1
1
1
1
1
1
1
1
1
1
1
1
1
1
1
1
1
1
1
1
1
1
1
1
1
1
1
1
1
1
1
1
1
1
1
1
1
1
1
1
1
1
1
1
1
1
1
1
1
1
1
1
1
1
1
1
1
1
1
1
1
1
1
1
1
1
1
1
1
1
1
1
1
1
1
1
1
1
1
1
1
1
1
1
1
1
1
1
1
1
1
1
1
1
1
1
1
1
1
1
1
1
1
1
1
1
1
1
1
1
1
1
1
1
1
1
1
1
1
1
1
1
1
1
1
1
1
1
1
1
1
1
1
1
1
1
1
1
1
1
1
1
1
1
1
1
1
1
1
1
1
1
1
1
1
1
1
1
1
1
1
1
1
1
1
1
1
1
1
1
1
1
1
1
1
1
1
1
1
1
1
1
1
1
1
1
1
1
1
1
1
1
1
1
1
1
1
1
1
1
1
1
1
1
1
1
1
1
1
1
1
1
1
1
1
1
1
1
1
1
1
1
1
1
1
1
1
1
1
1
1
1
1
1
1
1
1
1
1
1
1
1
1
1
1
1
1
1
1
1
1
1
1
1
1
1
1
1
1
1
1
1
1
1
1
1
1
1
1
1
1
1
1
1
1
1
1
1
1
1
1
1
1
1
1
1
1
1
1
1
1
1
1
1
1
1
1
1
1
1
1
1
1
1
1
1
1
1
1
1
1
1
1
1
1
1
1
1
1
1
1
1
1
1
1
1
1
1
1
1
1
1
1
1
1
1
1
1
1
1
1
1
1
1
1
1
1
1
1
1
1
1
1
1
1
1
1
1
1
1
1
1
1
1
1
1
1
1
1
1
1
1
1
1
1
1
1
1
1
1
1
1
1
1
1
1
1
1
1
1
1
1
1
1
1
1
1
1
1
1
1
1
1
1
1
1
1
1
1
1
1
1
1
1
1
1
1
1
1
1
1
1
1
1
1
1
1
1
1
1
1
1
1
1
1
1
1
1
1
1
1
1
1
1
1
1
1
1
1
1
1
1
1
1
1
1
1
1
1
1
1
1
1
1
1
1
1
1
1
1
1
1
1
1
1
1
1
1
1
1
1
1
1
1
1
1
1
1
1
1
1
1
1
1
1
1
1
1
1
1
1
1
1
1
1
1
1
1
1
1
1
1
1
1
1
1
1
1
1
1
1
1
1
1
1
1
1
1
1
1
1
1
1
1
1
1
1
1
1
1
1
1
1
1
1
1
1
1
1
1
1
1
1
1
1
1
1
1
1
1
1
1
1
1
1
1
1
1
1
1
1
1
1
1
1
1
1
1
1
1
1
1
1
1
1
1
1
1
1
1
1
1
1
1
1
1
1
1
1
1
1
1
1
1
1
1
1
1
1
1
1
1
1
1
1
1
1
1
1
1
1
1
1
1
1
1
1
1
1
1
1
1
1
1
1
1
1
1
1
1
1
1
1
1
1
1
1
1
1
1
1
1
1
1
1
1
1
1
1
1
1
1
1
1
1
1
1
1
1
1
1
1
1
1
1
1
1
1
1
1
1
1
1
1
1
1
1
1
1
1
1
1
1
1
1
1
1
1
1
1
1
1
1
0.999966
1
1
1
1
1
1
1
1
1
1
1
1
1
1
0.998147
0.999865
0.999996
1
1
1
1
1
1
1
1
1
1
1
1
1.10186
1.00054
0.999997
1
1
1
1
1
1
1
1
1
1
1
1
2.06516
1.0731
1.00047
0.999998
0.999999
1
1
1
1
1
1
1
1
1
1
3.31779
1.68429
1.04768
1.00054
1
1
1
1
1
1
1
1
1
1
1
3.25312
2.55832
1.36498
1.01906
1.00018
1
1
1
1
1
1
1
1
1
1
2.92974
2.87132
1.98341
1.15323
1.00526
1.00005
1
1
1
1
1
1
1
1
1
2.34455
2.81641
2.5285
1.54175
1.04839
1.00081
1
1
1
1
1
1
1
1
1
1.6216
2.46641
2.58432
2.08502
1.3098
1.03691
1.00187
1.00005
1
1
1
1
1
1
1
1.24513
2.02568
2.50688
2.36687
1.68058
1.1084
1.00452
1.00009
1
1
1
1
1
1
1
1.00028
1.47527
2.15855
2.34922
2.14998
1.43943
1.04419
1.00109
1.00001
1
1
1
1
1
1
0.823608
1.20921
1.72019
2.23428
2.22322
1.84923
1.20772
1.01088
1.00015
1
1
1
1
1
1
0.654492
0.996638
1.36489
1.91869
2.1932
2.11297
1.54886
1.07786
1.00241
1.00003
1
1
1
1
1
0.592633
0.809063
1.12106
1.58209
2.05057
2.11169
1.8631
1.26697
1.0188
1.00033
1
1
1
1
1
0.605614
0.726746
0.901909
1.29164
1.80197
2.07547
2.01941
1.57122
1.10016
1.00384
1.00005
1
1
1
1
0.618783
0.717196
0.7899
1.02514
1.49206
1.93773
2.01502
1.82703
1.29301
1.02485
1.0005
1
1
1
1
0.603447
0.689813
0.763182
0.940227
1.23304
1.68841
1.9692
1.93486
1.55466
1.10939
1.00483
1.00006
1
1
1
0.556586
0.623301
0.725223
0.899111
1.07758
1.44083
1.83468
1.92793
1.77087
1.28601
1.02567
1.00054
1
1
1
0.506993
0.568292
0.688322
0.837257
0.946772
1.22525
1.62655
1.88666
1.85863
1.51844
1.10643
1.00509
1.00007
1
1
0.485576
0.538834
0.671573
0.780636
0.860617
1.06616
1.39472
1.7664
1.85248
1.70406
1.26478
1.02454
1.00054
1.00001
1
0.4735
0.52825
0.645715
0.719691
0.792086
0.9797
1.21494
1.58084
1.81578
1.79028
1.476
1.09557
1.00441
1.00006
1
0.46347
0.518696
0.606578
0.660489
0.744537
0.913481
1.07563
1.3843
1.71882
1.78584
1.6331
1.23266
1.02237
1.00052
1.00001
0.464318
0.504271
0.570942
0.617861
0.71746
0.861945
0.975639
1.21048
1.55192
1.75741
1.72678
1.42842
1.07842
1.00322
1.00004
0.484401
0.484815
0.538909
0.593182
0.696345
0.802259
0.896448
1.09732
1.37551
1.67752
1.72484
1.57076
1.19956
1.01853
1.00043
0.574595
0.489956
0.518163
0.583597
0.674394
0.737037
0.812101
1.01137
1.22921
1.53885
1.70557
1.66179
1.36977
1.06406
1.00256
0.757165
0.530016
0.524696
0.572824
0.654325
0.693841
0.755677
0.925983
1.10212
1.38468
1.64756
1.66496
1.51791
1.16261
1.01399
0.890002
0.647531
0.537739
0.558196
0.621633
0.657848
0.740321
0.875567
0.995443
1.23248
1.53224
1.65413
1.59744
1.31491
1.05153
0.941363
0.794495
0.578607
0.542238
0.568469
0.628174
0.734292
0.834202
0.920313
1.12349
1.39854
1.61847
1.61081
1.44573
1.13674
0.954402
0.912804
0.744592
0.576436
0.569226
0.608598
0.699134
0.763386
0.831736
0.997475
1.19641
1.46582
1.58937
1.54948
1.38851
0.874286
0.777625
0.63496
0.54784
0.538095
0.540844
0.533389
0.513648
0.473045
0.441067
0.437826
0.425644
0.430928
0.464687
0.622334
0.844071
0.881759
0.934302
0.971005
0.963621
0.686103
0.618974
0.512068
0.47538
0.482957
0.478915
0.47049
0.455842
0.424862
0.410455
0.401749
0.405835
0.442948
0.619161
0.851295
0.939566
0.913763
0.925287
0.962239
0.966289
0.529188
0.493884
0.436816
0.43702
0.44056
0.428087
0.414222
0.399494
0.382842
0.375242
0.38292
0.43808
0.632081
0.867552
0.928144
0.951277
0.937595
0.932838
0.952863
0.96541
0.403331
0.39664
0.383219
0.387252
0.384325
0.373979
0.365828
0.3579
0.356016
0.365115
0.45222
0.666037
0.881617
0.937668
0.925709
0.940475
0.947454
0.939353
0.946754
0.961853
0.310267
0.315589
0.335954
0.347015
0.334977
0.325079
0.326063
0.323498
0.353856
0.488213
0.715793
0.886457
0.921342
0.928091
0.917832
0.940798
0.958203
0.955045
0.951109
0.958567
0.235549
0.255121
0.271105
0.299105
0.301002
0.28787
0.305517
0.395712
0.597466
0.794297
0.900528
0.921527
0.921314
0.915142
0.921962
0.948473
0.959722
0.95965
0.954743
0.957098
0.189142
0.212631
0.234342
0.244197
0.259145
0.328619
0.529377
0.721619
0.818606
0.888175
0.941882
0.936243
0.926057
0.925906
0.935379
0.952875
0.961854
0.96461
0.961184
0.95747
0.138578
0.160964
0.235813
0.331114
0.518739
0.689649
0.770095
0.844902
0.886995
0.915412
0.926663
0.932987
0.935028
0.940589
0.950724
0.95967
0.963368
0.965207
0.960836
0.956854
0.274025
0.414114
0.546174
0.67446
0.756798
0.829988
0.854251
0.880279
0.897799
0.907498
0.912295
0.923692
0.939612
0.958599
0.965717
0.962032
0.958609
0.9584
0.956853
0.958157
0.559106
0.638746
0.711646
0.800088
0.817432
0.851686
0.863996
0.884175
0.891182
0.88866
0.891037
0.909743
0.944209
0.971249
0.969543
0.955086
0.947234
0.94869
0.957146
0.960394
)
;

boundaryField
{
    inlet
    {
        type            fixedValue;
        value           uniform 1;
    }
    outlet
    {
        type            zeroGradient;
    }
    airfoil
    {
        type            zeroGradient;
    }
    top
    {
        type            symmetryPlane;
    }
    bottom
    {
        type            symmetryPlane;
    }
    defaultFaces
    {
        type            empty;
    }
}


// ************************************************************************* //
