/*--------------------------------*- C++ -*----------------------------------*\
  =========                 |
  \\      /  F ield         | OpenFOAM: The Open Source CFD Toolbox
   \\    /   O peration     | Website:  https://openfoam.org
    \\  /    A nd           | Version:  7
     \\/     M anipulation  |
\*---------------------------------------------------------------------------*/
FoamFile
{
    version     2.0;
    format      ascii;
    class       volVectorField;
    location    "8.5";
    object      U;
}
// * * * * * * * * * * * * * * * * * * * * * * * * * * * * * * * * * * * * * //

dimensions      [0 1 -1 0 0 0 0];

internalField   nonuniform List<vector> 
3700
(
(1.33523 -0.29517 0)
(1.32125 -0.419858 0)
(1.3251 -0.197094 0)
(1.41413 -0.147878 0)
(1.57882 -0.180669 0)
(1.71358 -0.230224 0)
(1.66141 -0.239122 0)
(1.59817 -0.272937 0)
(1.55935 -0.307456 0)
(1.51081 -0.24261 0)
(1.53944 -0.178134 0)
(1.62985 -0.204334 0)
(1.68619 -0.278237 0)
(1.73061 -0.297592 0)
(1.73806 -0.270223 0)
(1.73753 -0.262984 0)
(1.74471 -0.286164 0)
(1.73674 -0.255933 0)
(1.76259 -0.162643 0)
(1.83965 -0.191557 0)
(1.85834 -1.2731 0)
(1.74106 -1.20393 0)
(1.76725 -0.996437 0)
(1.93652 -0.954706 0)
(2.10878 -1.22703 0)
(2.12648 -1.56594 0)
(1.98654 -1.6943 0)
(1.90489 -1.76113 0)
(1.84371 -1.80588 0)
(1.8273 -1.58202 0)
(1.86129 -1.56979 0)
(1.98778 -1.52532 0)
(2.09254 -1.55511 0)
(2.16705 -1.52072 0)
(2.20465 -1.39997 0)
(2.25373 -1.2942 0)
(2.2896 -1.24828 0)
(2.28123 -1.20552 0)
(2.25128 -1.06293 0)
(2.30066 -1.16282 0)
(1.72491 -1.27416 0)
(1.7774 -1.29374 0)
(1.85175 -1.36813 0)
(1.90907 -1.53938 0)
(1.96762 -1.87119 0)
(1.93218 -2.16543 0)
(1.98917 -2.28012 0)
(2.02499 -2.22586 0)
(2.00273 -2.25436 0)
(2.10557 -2.1124 0)
(2.0875 -2.15694 0)
(2.17714 -2.02399 0)
(2.23104 -1.94884 0)
(2.30205 -1.89222 0)
(2.38782 -1.81673 0)
(2.50815 -1.75773 0)
(2.6082 -1.68185 0)
(2.68411 -1.61049 0)
(2.72289 -1.56297 0)
(2.7035 -1.56793 0)
(1.56935 -1.26829 0)
(1.63611 -1.43773 0)
(1.71586 -1.68381 0)
(1.7276 -1.97466 0)
(1.70295 -2.16324 0)
(1.80888 -2.27293 0)
(1.89555 -2.26584 0)
(2.04629 -2.06586 0)
(2.10973 -2.0929 0)
(2.33148 -1.9588 0)
(2.342 -1.97041 0)
(2.38832 -1.89848 0)
(2.38788 -1.86203 0)
(2.3778 -1.827 0)
(2.42333 -1.72376 0)
(2.51692 -1.6436 0)
(2.57507 -1.50386 0)
(2.68062 -1.4043 0)
(2.76287 -1.24113 0)
(2.84138 -1.16431 0)
(1.3583 -1.25046 0)
(1.51363 -1.51639 0)
(1.61811 -1.85944 0)
(1.61357 -2.12477 0)
(1.57813 -2.25115 0)
(1.64921 -2.28158 0)
(1.87695 -2.19797 0)
(2.03804 -1.90538 0)
(2.14674 -1.86578 0)
(2.34313 -1.87686 0)
(2.48696 -1.68565 0)
(2.5591 -1.62507 0)
(2.60025 -1.55175 0)
(2.5575 -1.58822 0)
(2.56788 -1.54235 0)
(2.56513 -1.54488 0)
(2.57423 -1.40187 0)
(2.6184 -1.33028 0)
(2.68779 -1.25883 0)
(2.79295 -1.01186 0)
(1.26248 -1.25884 0)
(1.44535 -1.66446 0)
(1.61407 -1.99016 0)
(1.6366 -2.17925 0)
(1.71408 -2.32313 0)
(1.87584 -2.24698 0)
(1.95762 -2.16705 0)
(2.04982 -1.92299 0)
(2.08514 -1.86568 0)
(2.27798 -1.77552 0)
(2.41317 -1.6067 0)
(2.59503 -1.54891 0)
(2.68121 -1.33305 0)
(2.72932 -1.25241 0)
(2.73305 -1.15424 0)
(2.71162 -1.1851 0)
(2.69602 -1.15423 0)
(2.67929 -1.08791 0)
(2.67025 -1.15041 0)
(2.7087 -0.969144 0)
(1.22436 -1.33298 0)
(1.45799 -1.8226 0)
(1.68895 -2.07985 0)
(1.83417 -2.22696 0)
(2.09605 -2.24372 0)
(2.13767 -2.27874 0)
(2.20282 -2.03727 0)
(2.19727 -1.91156 0)
(2.18117 -1.84637 0)
(2.2642 -1.77402 0)
(2.37921 -1.57669 0)
(2.53038 -1.49526 0)
(2.5833 -1.27698 0)
(2.72629 -1.18778 0)
(2.75125 -0.943863 0)
(2.79521 -0.797764 0)
(2.77911 -0.722477 0)
(2.77583 -0.635947 0)
(2.72565 -0.77651 0)
(2.70839 -0.711207 0)
(1.30141 -1.52553 0)
(1.57878 -1.99181 0)
(1.91433 -2.24779 0)
(2.09372 -2.26945 0)
(2.3222 -2.13151 0)
(2.4838 -2.09421 0)
(2.44798 -1.78788 0)
(2.43248 -1.69216 0)
(2.45686 -1.70341 0)
(2.46831 -1.6512 0)
(2.49926 -1.51317 0)
(2.55577 -1.39135 0)
(2.57546 -1.20552 0)
(2.65373 -1.12571 0)
(2.68485 -0.925059 0)
(2.75396 -0.788059 0)
(2.79358 -0.622675 0)
(2.81364 -0.401082 0)
(2.76335 -0.394985 0)
(2.71035 -0.368515 0)
(1.51759 -1.73006 0)
(1.79391 -2.18053 0)
(1.97355 -2.29919 0)
(2.12414 -2.32988 0)
(2.3603 -2.03651 0)
(2.44045 -1.88622 0)
(2.57924 -1.57228 0)
(2.6433 -1.48267 0)
(2.675 -1.44974 0)
(2.74043 -1.24651 0)
(2.71346 -1.2697 0)
(2.72177 -1.08264 0)
(2.6817 -0.998433 0)
(2.69125 -0.899161 0)
(2.68804 -0.767322 0)
(2.69909 -0.665996 0)
(2.73478 -0.570552 0)
(2.74615 -0.384979 0)
(2.73266 -0.217008 0)
(2.6761 -0.0986202 0)
(1.68062 -1.86149 0)
(1.76529 -2.20952 0)
(1.88159 -2.30757 0)
(1.87845 -2.26964 0)
(2.0563 -1.96918 0)
(2.16878 -1.7766 0)
(2.37127 -1.50885 0)
(2.48047 -1.43969 0)
(2.64635 -1.34167 0)
(2.69663 -0.93268 0)
(2.7397 -0.828983 0)
(2.7528 -0.608596 0)
(2.75843 -0.569289 0)
(2.75259 -0.451089 0)
(2.73662 -0.384942 0)
(2.70621 -0.34337 0)
(2.68848 -0.323874 0)
(2.69161 -0.294711 0)
(2.6501 -0.130544 0)
(2.61045 0.0279136 0)
(1.73907 -1.90801 0)
(1.68876 -2.17414 0)
(1.67319 -2.21242 0)
(1.74425 -2.0878 0)
(1.97364 -1.87117 0)
(2.10218 -1.6133 0)
(2.20923 -1.49197 0)
(2.30826 -1.36771 0)
(2.39416 -1.25544 0)
(2.49281 -1.01168 0)
(2.61246 -0.818312 0)
(2.6581 -0.545144 0)
(2.69957 -0.355461 0)
(2.70481 -0.1671 0)
(2.67387 -1.34698e-05 0)
(2.65031 0.0506561 0)
(2.62696 0.0908378 0)
(2.62088 -0.00443648 0)
(2.55747 0.0948697 0)
(2.58401 0.0574785 0)
(1.64741 -1.87345 0)
(1.58261 -2.09449 0)
(1.57574 -2.03216 0)
(1.77568 -1.86848 0)
(2.03486 -1.74071 0)
(2.22716 -1.32 0)
(2.22924 -1.39864 0)
(2.34877 -1.25722 0)
(2.43666 -1.00549 0)
(2.46597 -0.888876 0)
(2.53691 -0.690984 0)
(2.57611 -0.484631 0)
(2.61062 -0.30195 0)
(2.63787 -0.136285 0)
(2.58738 0.0973486 0)
(2.5756 0.209738 0)
(2.51825 0.368892 0)
(2.48853 0.339346 0)
(2.44169 0.362975 0)
(2.47129 0.287577 0)
(1.44737 -1.70495 0)
(1.517 -1.84654 0)
(1.72364 -1.58577 0)
(1.92128 -1.52669 0)
(2.12408 -1.4464 0)
(2.25223 -1.05099 0)
(2.40685 -1.01311 0)
(2.57704 -0.798164 0)
(2.5897 -0.422833 0)
(2.59918 -0.395618 0)
(2.5968 -0.202613 0)
(2.58725 -0.0760946 0)
(2.56688 0.0382981 0)
(2.54962 0.125291 0)
(2.49162 0.255078 0)
(2.47995 0.305623 0)
(2.41531 0.433829 0)
(2.35608 0.540934 0)
(2.29692 0.605984 0)
(2.30593 0.55671 0)
(1.20384 -1.45475 0)
(1.47098 -1.47802 0)
(1.8772 -1.19668 0)
(1.96554 -1.4509 0)
(2.18977 -1.25423 0)
(2.50111 -0.716364 0)
(2.64541 -0.522098 0)
(2.62789 -0.159732 0)
(2.6149 -0.0966795 0)
(2.57997 0.097719 0)
(2.54449 0.249277 0)
(2.48921 0.390758 0)
(2.44986 0.475637 0)
(2.3983 0.553542 0)
(2.3492 0.591013 0)
(2.31358 0.596579 0)
(2.2712 0.624612 0)
(2.23555 0.668429 0)
(2.16922 0.758112 0)
(2.12999 0.796644 0)
(0.969383 -1.15304 0)
(1.34035 -1.18576 0)
(1.82736 -0.924152 0)
(2.23094 -1.29409 0)
(2.60368 -0.358694 0)
(2.52413 -0.62107 0)
(2.53421 -0.467317 0)
(2.50672 -0.120142 0)
(2.47591 0.010472 0)
(2.46463 0.193435 0)
(2.41764 0.388275 0)
(2.3413 0.569874 0)
(2.29159 0.679455 0)
(2.21305 0.791166 0)
(2.1574 0.838176 0)
(2.10837 0.861086 0)
(2.06738 0.900137 0)
(2.06769 0.892175 0)
(2.04361 0.920689 0)
(2.06158 0.948427 0)
(0.826248 -0.736638 0)
(1.27119 -1.098 0)
(2.22935 -0.098336 0)
(2.40183 -0.689625 0)
(2.44886 -0.369901 0)
(2.46593 -0.292601 0)
(2.42837 0.0575473 0)
(2.39359 0.225031 0)
(2.32935 0.395883 0)
(2.3079 0.539522 0)
(2.21398 0.701602 0)
(2.14171 0.814917 0)
(2.09105 0.879594 0)
(2.03358 0.943346 0)
(1.99021 0.965963 0)
(1.94902 0.995794 0)
(1.95182 1.02144 0)
(1.96765 0.999303 0)
(1.99466 0.997009 0)
(2.07294 0.976948 0)
(0.944062 -0.460056 0)
(1.67122 -0.233995 0)
(2.26879 -0.397133 0)
(2.30173 -0.110343 0)
(2.33782 -0.0428167 0)
(2.35231 0.282102 0)
(2.28189 0.555911 0)
(2.19224 0.72463 0)
(2.13647 0.79568 0)
(2.07225 0.921804 0)
(1.96165 1.02294 0)
(1.90734 1.07112 0)
(1.8836 1.0814 0)
(1.87241 1.08538 0)
(1.87525 1.05372 0)
(1.89734 1.04728 0)
(1.95988 1.022 0)
(2.16114 0.905925 0)
(2.37965 0.795487 0)
(2.77898 0.443191 0)
(1.08783 -0.100323 0)
(1.90936 0.15977 0)
(2.25858 0.139504 0)
(2.22503 0.496238 0)
(2.19965 0.654074 0)
(2.12866 0.792642 0)
(2.05236 0.897196 0)
(1.97332 0.968205 0)
(1.91409 1.03679 0)
(1.84802 1.1257 0)
(1.78421 1.15747 0)
(1.78702 1.15352 0)
(1.80909 1.13273 0)
(1.85352 1.08752 0)
(2.04346 0.949222 0)
(2.26008 0.827413 0)
(2.66361 0.50497 0)
(3.03663 0.0924942 0)
(3.05562 -0.0239093 0)
(3.00404 -0.00467715 0)
(0.998776 0.0472691 0)
(1.92907 0.726745 0)
(2.09633 0.836702 0)
(1.99232 0.955142 0)
(1.96054 0.97121 0)
(1.87625 1.0734 0)
(1.79628 1.13661 0)
(1.76429 1.14754 0)
(1.76036 1.16395 0)
(1.73579 1.20302 0)
(1.7112 1.1969 0)
(1.85464 1.07255 0)
(2.09375 0.888815 0)
(2.50524 0.578497 0)
(2.98958 0.134998 0)
(3.07373 -0.0296407 0)
(3.00813 -0.00770994 0)
(3.00294 -0.00386431 0)
(3.00123 -0.00221073 0)
(3.00008 -0.000488421 0)
(1.16417 0.756565 0)
(1.8198 1.16294 0)
(1.84078 1.15004 0)
(1.7294 1.19926 0)
(1.70747 1.19153 0)
(1.66655 1.24045 0)
(1.66464 1.21193 0)
(1.73347 1.16565 0)
(1.76733 1.22567 0)
(1.79346 1.13588 0)
(2.26473 0.739138 0)
(2.85268 0.211898 0)
(3.09735 -0.0272164 0)
(3.02113 -0.0125387 0)
(3.00427 -0.00527542 0)
(3.00178 -0.00291634 0)
(3.00006 -0.000577337 0)
(2.99998 -2.39787e-05 0)
(2.99999 1.4442e-05 0)
(3 5.93433e-06 0)
(1.57546 1.2578 0)
(1.58142 1.26552 0)
(1.58462 1.27286 0)
(1.59179 1.26336 0)
(1.60826 1.24378 0)
(1.6039 1.2659 0)
(1.92227 1.16571 0)
(2.98921 0.364812 0)
(3.31232 -0.561184 0)
(3 6.49406e-11 0)
(3 -7.94532e-11 0)
(3 8.09457e-11 0)
(3 5.17378e-15 0)
(3 -4.29876e-13 0)
(3 -1.65231e-14 0)
(3 2.18845e-14 0)
(3 -1.05172e-14 0)
(3 -1.25996e-15 0)
(3 1.93513e-15 0)
(3 -1.4657e-15 0)
(1.58213 1.25188 0)
(1.59274 1.25989 0)
(1.59624 1.27746 0)
(1.59596 1.28475 0)
(1.65768 1.26413 0)
(1.72088 1.24075 0)
(2.27395 0.749393 0)
(2.99675 0.0164466 0)
(3 5.36598e-08 0)
(3 -3.36889e-11 0)
(3 -1.45842e-12 0)
(3 5.29172e-15 0)
(3 -2.31425e-15 0)
(3 4.87205e-16 0)
(3 5.71907e-16 0)
(3 1.27278e-15 0)
(3 8.5548e-16 0)
(3 -7.42868e-16 0)
(3 -2.67811e-16 0)
(3 -1.67168e-15 0)
(1.5882 1.25034 0)
(1.60653 1.25459 0)
(1.61403 1.26136 0)
(1.59617 1.29065 0)
(1.67646 1.23674 0)
(2.18805 0.809694 0)
(2.98514 0.00869506 0)
(3.00055 -0.00102062 0)
(3 7.07586e-07 0)
(3 5.99529e-11 0)
(3 -3.13535e-12 0)
(3 -1.94062e-15 0)
(3 -1.50473e-15 0)
(3 -1.80465e-16 0)
(3 6.73673e-17 0)
(3 -1.23445e-16 0)
(3 -4.63572e-16 0)
(3 -2.07165e-15 0)
(3 -1.64736e-15 0)
(3 -1.68498e-15 0)
(1.58727 1.2533 0)
(1.61051 1.25527 0)
(1.62585 1.25343 0)
(1.64058 1.26699 0)
(1.86072 1.08012 0)
(2.75013 0.210584 0)
(3.00533 -0.00267352 0)
(2.9999 9.47254e-05 0)
(3 -8.91416e-07 0)
(3 8.95787e-10 0)
(3 -1.70896e-12 0)
(3 -3.84444e-15 0)
(3 -1.32095e-15 0)
(3 -2.61507e-16 0)
(3 -1.35916e-15 0)
(3 -4.55998e-16 0)
(3 -4.45831e-16 0)
(3 -3.35714e-15 0)
(3 -2.57228e-15 0)
(3 -2.89248e-15 0)
(1.58594 1.2642 0)
(1.59672 1.26025 0)
(1.62527 1.24827 0)
(1.74164 1.19568 0)
(2.38355 0.625584 0)
(3.01899 -0.0174232 0)
(2.99976 0.000191225 0)
(3 -4.4182e-06 0)
(3 8.6097e-08 0)
(3 -9.20039e-10 0)
(3 5.66934e-12 0)
(3 -2.40795e-15 0)
(3 -2.12671e-15 0)
(3 -2.29538e-15 0)
(3 -9.60419e-16 0)
(3 -1.99279e-15 0)
(3 -1.53887e-15 0)
(3 -3.38424e-15 0)
(3 -3.58698e-15 0)
(3 -3.17531e-15 0)
(1.58282 1.27504 0)
(1.57876 1.26944 0)
(1.62881 1.2633 0)
(1.7621 1.17115 0)
(2.68582 0.274327 0)
(3 -5.97163e-10 0)
(3 1.4402e-08 0)
(3 -1.30245e-08 0)
(3 5.67878e-10 0)
(3 3.22595e-12 0)
(3 -1.28046e-13 0)
(3 -3.20876e-16 0)
(3 -1.83198e-15 0)
(3 -2.172e-15 0)
(3 -7.27171e-16 0)
(3 -3.16228e-15 0)
(3 -1.88107e-15 0)
(3 -3.33628e-15 0)
(3 -4.6438e-15 0)
(3 -4.25117e-15 0)
(1.57923 1.2951 0)
(1.55769 1.29218 0)
(1.67129 1.24211 0)
(2.1542 0.845665 0)
(3.0129 -0.0132352 0)
(3 -1.00861e-11 0)
(3 -1.05343e-11 0)
(3 2.15744e-11 0)
(3 -3.26197e-12 0)
(3 2.5253e-15 0)
(3 6.60304e-16 0)
(3 -2.87804e-16 0)
(3 -4.41042e-16 0)
(3 -8.31885e-16 0)
(3 -6.42269e-16 0)
(3 -2.17602e-15 0)
(3 -2.61284e-15 0)
(3 -3.60136e-15 0)
(3 -4.65282e-15 0)
(3 -4.78404e-15 0)
(1.58771 1.32209 0)
(1.50281 1.3293 0)
(1.79045 1.17878 0)
(2.44864 0.533648 0)
(3 -5.31835e-06 0)
(3 2.40961e-12 0)
(3 6.21745e-14 0)
(3 -7.79502e-14 0)
(3 1.91906e-14 0)
(3 6.69979e-16 0)
(3 1.59992e-16 0)
(3 1.03819e-15 0)
(3 -3.37257e-18 0)
(3 3.68932e-17 0)
(3 1.2711e-16 0)
(3 -9.26282e-16 0)
(3 -1.57195e-15 0)
(3 -3.29319e-15 0)
(3 -3.90976e-15 0)
(3 -4.97207e-15 0)
(1.59088 1.30867 0)
(1.46597 1.36477 0)
(1.90905 1.05172 0)
(2.84377 0.134565 0)
(3 -2.29615e-08 0)
(3 6.76135e-13 0)
(3 -4.09471e-14 0)
(3 2.42368e-15 0)
(3 1.03276e-15 0)
(3 1.43569e-15 0)
(3 5.60308e-16 0)
(3 -5.36446e-16 0)
(3 -3.68171e-17 0)
(3 7.76437e-16 0)
(3 1.30688e-16 0)
(3 -8.66299e-17 0)
(3 -9.565e-16 0)
(3 -2.63719e-15 0)
(3 -4.26918e-15 0)
(3 -4.51841e-15 0)
(1.60505 1.29479 0)
(1.47941 1.37735 0)
(2.17735 0.812753 0)
(3.01086 -0.00923997 0)
(3 2.6594e-08 0)
(3 1.12901e-12 0)
(3 8.27647e-15 0)
(3 5.25783e-16 0)
(3 1.20536e-15 0)
(3 1.21767e-15 0)
(3 9.90101e-16 0)
(3 -1.45675e-16 0)
(3 -2.20645e-16 0)
(3 -1.06173e-15 0)
(3 1.80687e-16 0)
(3 -3.82638e-17 0)
(3 2.30557e-16 0)
(3 7.22349e-16 0)
(3 -1.33862e-15 0)
(3 -2.21963e-15 0)
(1.62205 1.27955 0)
(1.57546 1.31211 0)
(2.41961 0.535164 0)
(3 -3.10648e-12 0)
(3 -1.92001e-11 0)
(3 4.38e-14 0)
(3 -3.50334e-16 0)
(3 5.09037e-16 0)
(3 7.72075e-16 0)
(3 9.42898e-16 0)
(3 9.23079e-16 0)
(3 2.57421e-16 0)
(3 4.92454e-16 0)
(3 -1.07252e-15 0)
(3 -1.61743e-15 0)
(3 -5.84205e-16 0)
(3 5.57617e-17 0)
(3 8.25972e-16 0)
(3 8.16497e-16 0)
(3 5.65106e-16 0)
(1.63906 1.25981 0)
(1.62459 1.24998 0)
(2.65201 0.289416 0)
(3 3.07235e-13 0)
(3 -3.76134e-14 0)
(3 1.89272e-16 0)
(3 9.7708e-16 0)
(3 1.36598e-15 0)
(3 1.65878e-15 0)
(3 1.46257e-15 0)
(3 1.36966e-15 0)
(3 1.20754e-15 0)
(3 1.37908e-15 0)
(3 1.26677e-15 0)
(3 -8.43879e-16 0)
(3 -7.73967e-16 0)
(3 -8.06906e-16 0)
(3 -4.51706e-16 0)
(3 2.15349e-16 0)
(3 5.39941e-16 0)
(1.65673 1.2388 0)
(1.83227 1.10097 0)
(2.87749 0.0917121 0)
(3 -3.64324e-13 0)
(3 -5.12226e-16 0)
(3 -4.27805e-16 0)
(3 1.22226e-15 0)
(3 2.38092e-15 0)
(3 1.57704e-15 0)
(3 1.78797e-15 0)
(3 1.6241e-15 0)
(3 1.61064e-15 0)
(3 1.77266e-15 0)
(3 2.425e-15 0)
(3 3.39456e-15 0)
(3 2.4116e-15 0)
(3 1.00676e-15 0)
(3 7.46841e-16 0)
(3 6.58134e-16 0)
(3 4.99072e-16 0)
(1.67211 1.19694 0)
(1.89158 0.982846 0)
(2.99097 0.00763012 0)
(3 -6.75891e-16 0)
(3 -1.39583e-15 0)
(3 -1.02001e-15 0)
(3 1.29686e-15 0)
(3 1.65019e-15 0)
(3 1.52189e-15 0)
(3 1.74547e-15 0)
(3 2.05039e-15 0)
(3 1.7091e-15 0)
(3 1.57157e-15 0)
(3 1.8244e-15 0)
(3 2.19947e-15 0)
(3 2.15151e-15 0)
(3 1.23935e-15 0)
(3 5.62044e-16 0)
(3 9.82855e-16 0)
(3 7.19917e-16 0)
(1.68958 1.17493 0)
(2.03612 0.829946 0)
(3 -5.92971e-16 0)
(3 -2.93397e-16 0)
(3 -3.85041e-16 0)
(3 1.03143e-17 0)
(3 8.43803e-16 0)
(3 2.22769e-15 0)
(3 1.66632e-15 0)
(3 1.47649e-15 0)
(3 2.14431e-15 0)
(3 2.10531e-15 0)
(3 1.72992e-15 0)
(3 1.07239e-15 0)
(3 1.17778e-15 0)
(3 1.15814e-15 0)
(3 1.09955e-15 0)
(3 1.19483e-15 0)
(3 1.55152e-15 0)
(3 1.47085e-15 0)
(1.77403 1.10684 0)
(2.23471 0.647356 0)
(3 -6.9223e-16 0)
(3 -2.07375e-16 0)
(3 -8.51533e-16 0)
(3 -5.91954e-16 0)
(3 3.08673e-16 0)
(3 1.16353e-15 0)
(3 1.40198e-15 0)
(3 1.63823e-15 0)
(3 1.68355e-15 0)
(3 2.20775e-15 0)
(3 1.76735e-15 0)
(3 1.39236e-15 0)
(3 1.7712e-15 0)
(3 2.43848e-15 0)
(3 2.99646e-15 0)
(3 3.08612e-15 0)
(3 2.98142e-15 0)
(3 2.86589e-15 0)
(1.84343 1.00417 0)
(2.47064 0.431866 0)
(3 -4.79377e-16 0)
(3 -5.41504e-16 0)
(3 -8.7332e-17 0)
(3 3.18468e-17 0)
(3 3.59168e-17 0)
(3 5.64577e-17 0)
(3 5.59743e-16 0)
(3 1.43018e-15 0)
(3 2.87391e-15 0)
(3 2.85631e-15 0)
(3 3.06399e-15 0)
(3 3.10362e-15 0)
(3 3.02095e-15 0)
(3 3.03111e-15 0)
(3 3.02139e-15 0)
(3 3.00283e-15 0)
(3 2.93546e-15 0)
(3 3.15931e-15 0)
(1.92852 0.867116 0)
(2.7149 0.204357 0)
(3 1.09651e-15 0)
(3 1.42156e-15 0)
(3 2.07033e-15 0)
(3 2.18962e-15 0)
(3 1.86502e-15 0)
(3 1.86072e-15 0)
(3 1.93556e-15 0)
(3 1.97903e-15 0)
(3 2.2509e-15 0)
(3 3.29772e-15 0)
(3 3.97546e-15 0)
(3 4.69069e-15 0)
(3 4.58092e-15 0)
(3 4.35072e-15 0)
(3 4.25348e-15 0)
(3 4.10727e-15 0)
(3 4.12163e-15 0)
(3 4.255e-15 0)
(2.09017 0.663145 0)
(2.99123 5.02242e-06 0)
(3 8.05867e-16 0)
(3 -8.10626e-16 0)
(3 -6.69342e-16 0)
(3 -3.41498e-16 0)
(3 8.66742e-16 0)
(3 7.49442e-16 0)
(3 1.0353e-15 0)
(3 1.46787e-15 0)
(3 2.16724e-15 0)
(3 3.07162e-15 0)
(3 2.83395e-15 0)
(3 2.4874e-15 0)
(3 2.72874e-15 0)
(3 2.77062e-15 0)
(3 2.67805e-15 0)
(3 2.55254e-15 0)
(3 2.27699e-15 0)
(3 2.19624e-15 0)
(1.99173 0.372998 0)
(2.99987 -9.94958e-06 0)
(3 1.22906e-16 0)
(3 -1.19796e-15 0)
(3 -1.16773e-15 0)
(3 -1.332e-15 0)
(3 -1.13456e-15 0)
(3 -9.6284e-16 0)
(3 -1.04028e-15 0)
(3 -1.01578e-15 0)
(3 -6.84285e-16 0)
(3 -1.30244e-16 0)
(3 1.85137e-16 0)
(3 1.09501e-17 0)
(3 -3.62278e-16 0)
(3 -2.73748e-16 0)
(3 -1.86023e-16 0)
(3 -7.08612e-17 0)
(3 -2.12184e-17 0)
(3 -1.67736e-16 0)
(1.9925 -0.372686 0)
(2.99989 5.83392e-06 0)
(3 -1.51635e-15 0)
(3 -1.16422e-15 0)
(3 -1.00716e-15 0)
(3 -5.92779e-16 0)
(3 -2.13657e-16 0)
(3 1.51307e-16 0)
(3 2.7042e-16 0)
(3 2.05208e-17 0)
(3 -8.568e-16 0)
(3 -1.47416e-15 0)
(3 -7.89083e-16 0)
(3 -2.0341e-16 0)
(3 2.63607e-17 0)
(3 2.79599e-16 0)
(3 4.88874e-16 0)
(3 7.90974e-16 0)
(3 9.06363e-16 0)
(3 1.13892e-15 0)
(2.09533 -0.665219 0)
(2.99065 -1.62366e-05 0)
(3 -3.52185e-16 0)
(3 -1.23712e-15 0)
(3 -1.87812e-15 0)
(3 -1.6966e-15 0)
(3 -1.1799e-15 0)
(3 -3.52801e-16 0)
(3 -5.46666e-16 0)
(3 -7.29823e-16 0)
(3 -8.36154e-16 0)
(3 -1.01156e-15 0)
(3 -1.02098e-15 0)
(3 -9.65955e-16 0)
(3 -9.23954e-16 0)
(3 -9.53658e-16 0)
(3 -8.87113e-16 0)
(3 -8.39364e-16 0)
(3 -7.74782e-16 0)
(3 -7.32149e-16 0)
(1.92523 -0.870228 0)
(2.70765 -0.209507 0)
(3 -8.67094e-16 0)
(3 -8.46136e-16 0)
(3 -1.14878e-15 0)
(3 -2.34741e-15 0)
(3 -2.59469e-15 0)
(3 -2.58218e-15 0)
(3 -2.9248e-15 0)
(3 -3.16623e-15 0)
(3 -3.01655e-15 0)
(3 -1.98635e-15 0)
(3 -2.51078e-15 0)
(3 -3.25916e-15 0)
(3 -3.4976e-15 0)
(3 -3.04323e-15 0)
(3 -2.89035e-15 0)
(3 -3.66188e-15 0)
(3 -4.07665e-15 0)
(3 -4.5023e-15 0)
(1.83458 -1.00225 0)
(2.46703 -0.432752 0)
(3 -9.64649e-16 0)
(3 -1.53785e-15 0)
(3 -1.11826e-15 0)
(3 -1.41702e-15 0)
(3 -1.66404e-15 0)
(3 -1.89045e-15 0)
(3 -2.10393e-15 0)
(3 -1.89742e-15 0)
(3 -2.08567e-15 0)
(3 -3.32452e-15 0)
(3 -3.53108e-15 0)
(3 -3.08679e-15 0)
(3 -2.55675e-15 0)
(3 -2.66673e-15 0)
(3 -3.17589e-15 0)
(3 -2.94321e-15 0)
(3 -3.08307e-15 0)
(3 -2.4693e-15 0)
(1.77855 -1.10678 0)
(2.23833 -0.647148 0)
(3 6.51906e-16 0)
(3 7.78135e-16 0)
(3 7.01432e-16 0)
(3 6.15696e-16 0)
(3 7.7124e-16 0)
(3 1.41955e-15 0)
(3 1.70324e-15 0)
(3 1.37087e-15 0)
(3 4.90278e-16 0)
(3 -1.25187e-16 0)
(3 -5.51502e-17 0)
(3 5.73865e-16 0)
(3 1.79837e-16 0)
(3 -1.36682e-17 0)
(3 1.05194e-17 0)
(3 2.09092e-16 0)
(3 7.91844e-16 0)
(3 1.41061e-15 0)
(1.69458 -1.17211 0)
(2.04332 -0.825017 0)
(3 2.21495e-15 0)
(3 2.41454e-15 0)
(3 1.60153e-15 0)
(3 1.70426e-15 0)
(3 7.6718e-16 0)
(3 6.18799e-16 0)
(3 9.76199e-16 0)
(3 2.10463e-15 0)
(3 1.34308e-15 0)
(3 6.51009e-16 0)
(3 9.90503e-16 0)
(3 1.15937e-15 0)
(3 9.4048e-16 0)
(3 4.63648e-16 0)
(3 3.9557e-16 0)
(3 1.24465e-16 0)
(3 -1.67057e-16 0)
(3 -6.35263e-16 0)
(1.66918 -1.19978 0)
(1.88547 -0.984681 0)
(2.98548 -0.0117406 0)
(3 5.60517e-16 0)
(3 1.02316e-15 0)
(3 5.29127e-16 0)
(3 -6.35762e-16 0)
(3 -1.12538e-15 0)
(3 -1.11958e-15 0)
(3 -4.45127e-16 0)
(3 -4.1685e-16 0)
(3 -3.99649e-16 0)
(3 -9.67596e-17 0)
(3 -7.05096e-17 0)
(3 -2.65222e-16 0)
(3 -4.85237e-16 0)
(3 -6.28356e-16 0)
(3 -6.48174e-16 0)
(3 -9.23229e-16 0)
(3 -9.7711e-16 0)
(1.6562 -1.23927 0)
(1.8321 -1.10306 0)
(2.87479 -0.0952913 0)
(3 1.9205e-13 0)
(3 -1.01085e-16 0)
(3 -2.05379e-16 0)
(3 -1.37708e-15 0)
(3 -1.87027e-15 0)
(3 -1.79316e-15 0)
(3 -1.20298e-15 0)
(3 -8.63967e-16 0)
(3 -6.68608e-16 0)
(3 -6.3312e-16 0)
(3 -3.43687e-16 0)
(3 3.64246e-16 0)
(3 3.57951e-16 0)
(3 3.03807e-16 0)
(3 7.47591e-16 0)
(3 7.83848e-16 0)
(3 1.45351e-15 0)
(1.63898 -1.26006 0)
(1.62693 -1.24947 0)
(2.65297 -0.289594 0)
(3 -5.35791e-13 0)
(3 1.05165e-14 0)
(3 -6.14306e-16 0)
(3 -1.46156e-15 0)
(3 -1.91673e-15 0)
(3 -2.14524e-15 0)
(3 -1.70373e-15 0)
(3 -1.01112e-15 0)
(3 -4.16935e-16 0)
(3 -3.76705e-16 0)
(3 4.5238e-17 0)
(3 4.42158e-16 0)
(3 8.11344e-16 0)
(3 1.01473e-15 0)
(3 1.43774e-15 0)
(3 1.50105e-15 0)
(3 2.46816e-15 0)
(1.62171 -1.279 0)
(1.57174 -1.31508 0)
(2.41574 -0.53965 0)
(3 3.17905e-12 0)
(3 3.20195e-11 0)
(3 -5.90527e-14 0)
(3 -1.01024e-15 0)
(3 -1.96991e-15 0)
(3 -2.21261e-15 0)
(3 -1.79638e-15 0)
(3 -5.94436e-16 0)
(3 4.12242e-16 0)
(3 3.37235e-16 0)
(3 8.60486e-16 0)
(3 1.1596e-15 0)
(3 1.23088e-15 0)
(3 8.96442e-16 0)
(3 7.56144e-16 0)
(3 2.49369e-15 0)
(3 2.45232e-15 0)
(1.60486 -1.29371 0)
(1.4795 -1.37377 0)
(2.18664 -0.806679 0)
(3.01072 0.00912675 0)
(3 -3.28428e-08 0)
(3 4.93467e-12 0)
(3 -2.53243e-14 0)
(3 -1.72487e-15 0)
(3 -2.07222e-15 0)
(3 -1.30617e-15 0)
(3 1.55304e-16 0)
(3 1.62201e-15 0)
(3 1.50461e-15 0)
(3 2.01151e-15 0)
(3 1.94842e-15 0)
(3 2.15776e-15 0)
(3 2.49344e-15 0)
(3 3.86374e-15 0)
(3 4.4852e-15 0)
(3 6.10075e-15 0)
(1.59054 -1.30869 0)
(1.46679 -1.36699 0)
(1.90981 -1.05134 0)
(2.84333 -0.133359 0)
(3 2.01904e-08 0)
(3 -1.16268e-11 0)
(3 6.92605e-14 0)
(3 -1.8556e-15 0)
(3 -4.35974e-16 0)
(3 1.45926e-16 0)
(3 1.62979e-15 0)
(3 2.67772e-15 0)
(3 2.32187e-15 0)
(3 3.21502e-15 0)
(3 3.69401e-15 0)
(3 3.14585e-15 0)
(3 3.6906e-15 0)
(3 5.81251e-15 0)
(3 4.69043e-15 0)
(3 5.43959e-15 0)
(1.58927 -1.32315 0)
(1.49747 -1.33143 0)
(1.77885 -1.17873 0)
(2.44012 -0.537524 0)
(3.00001 8.53364e-06 0)
(3 3.71412e-12 0)
(3 -5.68695e-14 0)
(3 8.29587e-14 0)
(3 -1.98665e-14 0)
(3 2.31708e-15 0)
(3 2.42892e-15 0)
(3 3.03464e-15 0)
(3 3.59286e-15 0)
(3 5.03879e-15 0)
(3 4.80935e-15 0)
(3 2.57177e-15 0)
(3 4.52112e-15 0)
(3 4.84068e-15 0)
(3 5.29423e-15 0)
(3 5.94042e-15 0)
(1.57924 -1.29614 0)
(1.56122 -1.29572 0)
(1.67671 -1.24193 0)
(2.17874 -0.835347 0)
(3.01945 0.0203614 0)
(3 8.74872e-12 0)
(3 1.36905e-11 0)
(3 -2.34414e-11 0)
(3 3.51914e-12 0)
(3 2.21762e-15 0)
(3 2.38546e-15 0)
(3 3.77104e-15 0)
(3 5.04076e-15 0)
(3 4.70102e-15 0)
(3 3.91706e-15 0)
(3 3.72951e-15 0)
(3 4.62233e-15 0)
(3 4.67099e-15 0)
(3 5.52775e-15 0)
(3 5.60571e-15 0)
(1.58233 -1.27493 0)
(1.57858 -1.27102 0)
(1.63453 -1.26266 0)
(1.75253 -1.1797 0)
(2.67248 -0.284961 0)
(3 5.99547e-10 0)
(3 -1.43552e-08 0)
(3 1.29741e-08 0)
(3 -5.64102e-10 0)
(3 -3.11447e-12 0)
(3 1.32422e-13 0)
(3 1.13899e-15 0)
(3 5.41715e-15 0)
(3 4.32761e-15 0)
(3 5.52966e-15 0)
(3 5.25881e-15 0)
(3 4.90655e-15 0)
(3 3.81235e-15 0)
(3 4.99474e-15 0)
(3 4.61116e-15 0)
(1.58497 -1.26338 0)
(1.59444 -1.25982 0)
(1.62524 -1.25313 0)
(1.7291 -1.20146 0)
(2.37788 -0.62785 0)
(3.01896 0.0173276 0)
(2.99976 -0.000186838 0)
(3 4.40934e-06 0)
(3 -8.56661e-08 0)
(3 9.26429e-10 0)
(3 -1.56524e-12 0)
(3 8.23083e-15 0)
(3 4.48935e-15 0)
(3 5.17695e-15 0)
(3 4.08003e-15 0)
(3 4.45111e-15 0)
(3 4.76277e-15 0)
(3 4.41846e-15 0)
(3 5.13434e-15 0)
(3 3.77456e-15 0)
(1.5863 -1.253 0)
(1.60818 -1.25437 0)
(1.62401 -1.25233 0)
(1.64377 -1.26202 0)
(1.87594 -1.07209 0)
(2.75742 -0.206435 0)
(3.00513 0.00239152 0)
(2.9999 -9.25821e-05 0)
(3 9.10027e-07 0)
(3 -9.04129e-10 0)
(3 -9.57359e-14 0)
(3 1.20082e-14 0)
(3 2.51846e-15 0)
(3 4.2137e-15 0)
(3 2.2586e-15 0)
(3 4.29226e-15 0)
(3 3.50392e-15 0)
(3 3.82719e-15 0)
(3 3.09142e-15 0)
(3 2.51738e-15 0)
(1.58776 -1.2492 0)
(1.60612 -1.25455 0)
(1.61539 -1.25898 0)
(1.60256 -1.28709 0)
(1.67254 -1.23667 0)
(2.20129 -0.797606 0)
(2.98946 -0.00444582 0)
(3.00052 0.000984796 0)
(3 -7.3024e-07 0)
(3 -6.07354e-11 0)
(3 -3.1404e-15 0)
(3 5.07965e-15 0)
(3 3.36059e-15 0)
(3 3.53951e-15 0)
(3 1.79712e-15 0)
(3 3.48277e-15 0)
(3 2.89862e-15 0)
(3 2.67215e-15 0)
(3 2.55582e-15 0)
(3 1.79961e-15 0)
(1.58377 -1.25076 0)
(1.5942 -1.25875 0)
(1.59946 -1.27437 0)
(1.60079 -1.28396 0)
(1.65438 -1.26736 0)
(1.71567 -1.23981 0)
(2.26067 -0.756233 0)
(2.99463 -0.0187947 0)
(3 -5.22898e-08 0)
(3 3.19059e-11 0)
(3 1.99693e-13 0)
(3 3.70935e-14 0)
(3 1.99852e-15 0)
(3 1.92484e-15 0)
(3 2.46325e-15 0)
(3 2.39714e-15 0)
(3 1.93906e-15 0)
(3 1.37852e-15 0)
(3 1.21479e-15 0)
(3 1.54554e-15 0)
(1.57631 -1.25833 0)
(1.582 -1.26567 0)
(1.5861 -1.27277 0)
(1.59286 -1.26443 0)
(1.60589 -1.24615 0)
(1.60022 -1.26691 0)
(1.91897 -1.17037 0)
(2.98579 -0.375023 0)
(3.31254 0.567166 0)
(3 -5.97162e-11 0)
(3 7.40532e-11 0)
(3 -8.05316e-11 0)
(3 4.9817e-16 0)
(3 4.361e-13 0)
(3 1.77078e-14 0)
(3 -1.47616e-14 0)
(3 1.10837e-14 0)
(3 1.503e-15 0)
(3 -1.62513e-16 0)
(3 2.33066e-15 0)
(1.16738 -0.749578 0)
(1.81597 -1.16921 0)
(1.84307 -1.14824 0)
(1.73113 -1.1983 0)
(1.70531 -1.1919 0)
(1.66505 -1.24056 0)
(1.66263 -1.21173 0)
(1.73309 -1.1657 0)
(1.76934 -1.22597 0)
(1.79801 -1.13502 0)
(2.26866 -0.736122 0)
(2.85509 -0.209389 0)
(3.09817 0.0282911 0)
(3.02126 0.0126551 0)
(3.0043 0.0053212 0)
(3.00176 0.00291515 0)
(3.00006 0.000571357 0)
(2.99998 2.31996e-05 0)
(2.99999 -1.44394e-05 0)
(3 -5.93475e-06 0)
(1.00601 -0.0396072 0)
(1.93192 -0.733489 0)
(2.09232 -0.861189 0)
(1.9927 -0.963256 0)
(1.95911 -0.972025 0)
(1.87279 -1.07367 0)
(1.79522 -1.1344 0)
(1.76502 -1.14646 0)
(1.76166 -1.1634 0)
(1.7379 -1.20256 0)
(1.71335 -1.19639 0)
(1.8543 -1.07178 0)
(2.09134 -0.888489 0)
(2.50233 -0.579592 0)
(2.98823 -0.136205 0)
(3.07359 0.0292966 0)
(3.00812 0.00768343 0)
(3.00293 0.00385536 0)
(3.00123 0.00220854 0)
(3.00008 0.000488942 0)
(1.04458 0.0414304 0)
(1.87583 -0.0851575 0)
(2.25799 -0.0848537 0)
(2.22125 -0.500986 0)
(2.19811 -0.659436 0)
(2.12639 -0.793688 0)
(2.04997 -0.896827 0)
(1.97281 -0.96818 0)
(1.91443 -1.03687 0)
(1.8497 -1.1257 0)
(1.78555 -1.15836 0)
(1.78738 -1.15253 0)
(1.80809 -1.13278 0)
(1.85236 -1.08817 0)
(2.04314 -0.949737 0)
(2.2609 -0.82715 0)
(2.66437 -0.504314 0)
(3.03687 -0.0921762 0)
(3.05571 0.0239733 0)
(3.00405 0.00468438 0)
(1.075 0.549352 0)
(1.76809 0.261222 0)
(2.30037 0.385517 0)
(2.29746 0.0698342 0)
(2.33162 0.0505631 0)
(2.34986 -0.278474 0)
(2.28015 -0.554149 0)
(2.19378 -0.721204 0)
(2.13761 -0.795087 0)
(2.07438 -0.922394 0)
(1.96263 -1.02317 0)
(1.90681 -1.07151 0)
(1.88195 -1.08254 0)
(1.87155 -1.08573 0)
(1.87585 -1.05332 0)
(1.8984 -1.04658 0)
(1.96046 -1.02148 0)
(2.16094 -0.905899 0)
(2.37887 -0.795969 0)
(2.77839 -0.443851 0)
(1.0405 0.885559 0)
(1.34271 1.22446 0)
(2.3428 -0.0634969 0)
(2.36566 0.836386 0)
(2.44503 0.340349 0)
(2.46025 0.295074 0)
(2.42603 -0.0541372 0)
(2.39422 -0.225463 0)
(2.3295 -0.400027 0)
(2.30927 -0.541439 0)
(2.21608 -0.700799 0)
(2.14164 -0.814254 0)
(2.08959 -0.880151 0)
(2.03268 -0.94353 0)
(1.99105 -0.964706 0)
(1.95008 -0.994491 0)
(1.9519 -1.02119 0)
(1.96735 -0.999723 0)
(1.99425 -0.997575 0)
(2.07279 -0.977412 0)
(0.987178 1.20142 0)
(1.40652 1.28552 0)
(1.87169 0.988216 0)
(2.37803 1.25133 0)
(2.61641 0.383321 0)
(2.52335 0.624126 0)
(2.53416 0.461721 0)
(2.50653 0.111564 0)
(2.4756 -0.0107066 0)
(2.46578 -0.192847 0)
(2.41925 -0.389175 0)
(2.33987 -0.573304 0)
(2.28855 -0.68341 0)
(2.21175 -0.792487 0)
(2.15796 -0.836703 0)
(2.10872 -0.860254 0)
(2.06707 -0.900343 0)
(2.06722 -0.892816 0)
(2.0434 -0.921364 0)
(2.06174 -0.948682 0)
(1.16399 1.46928 0)
(1.50258 1.55718 0)
(1.8874 1.4508 0)
(2.04566 1.39761 0)
(2.24213 1.2843 0)
(2.51727 0.684274 0)
(2.64112 0.510603 0)
(2.62491 0.168381 0)
(2.61115 0.0986381 0)
(2.57734 -0.0979 0)
(2.54421 -0.249503 0)
(2.48706 -0.394481 0)
(2.44775 -0.477831 0)
(2.39796 -0.552632 0)
(2.34961 -0.589009 0)
(2.31374 -0.595502 0)
(2.27071 -0.624818 0)
(2.23507 -0.669091 0)
(2.16916 -0.758844 0)
(2.13012 -0.796929 0)
(1.39995 1.72596 0)
(1.53807 1.90664 0)
(1.78348 1.72512 0)
(2.00031 1.50117 0)
(2.18114 1.46051 0)
(2.27952 1.00787 0)
(2.39849 1.02769 0)
(2.56469 0.804061 0)
(2.58224 0.429154 0)
(2.59623 0.403585 0)
(2.59561 0.209476 0)
(2.58508 0.0780739 0)
(2.5654 -0.0358628 0)
(2.54934 -0.122316 0)
(2.49153 -0.252463 0)
(2.47914 -0.304612 0)
(2.41426 -0.433776 0)
(2.35573 -0.540365 0)
(2.29726 -0.605643 0)
(2.3065 -0.556276 0)
(1.62062 1.89847 0)
(1.59214 2.1389 0)
(1.60772 2.06298 0)
(1.79532 1.87881 0)
(2.04672 1.75595 0)
(2.2445 1.31889 0)
(2.22186 1.39678 0)
(2.34257 1.25489 0)
(2.43141 1.00968 0)
(2.466 0.890181 0)
(2.53636 0.687534 0)
(2.57521 0.48189 0)
(2.60997 0.30012 0)
(2.6386 0.137331 0)
(2.58776 -0.095949 0)
(2.57551 -0.208204 0)
(2.51833 -0.367255 0)
(2.48928 -0.338127 0)
(2.44231 -0.363101 0)
(2.47157 -0.288531 0)
(1.73185 1.94685 0)
(1.69119 2.21804 0)
(1.66598 2.19666 0)
(1.75 2.09292 0)
(1.97669 1.87958 0)
(2.10624 1.60721 0)
(2.21521 1.47783 0)
(2.30447 1.36985 0)
(2.39781 1.25373 0)
(2.49961 1.00891 0)
(2.6149 0.810654 0)
(2.65908 0.540068 0)
(2.70129 0.356248 0)
(2.70851 0.170657 0)
(2.67759 0.00292367 0)
(2.65305 -0.0493243 0)
(2.6282 -0.0921913 0)
(2.62163 0.0022702 0)
(2.55834 -0.0957456 0)
(2.585 -0.0575162 0)
(1.70142 1.91766 0)
(1.76443 2.25894 0)
(1.89591 2.32096 0)
(1.87998 2.29106 0)
(2.0738 1.98069 0)
(2.18081 1.77853 0)
(2.38378 1.49088 0)
(2.47889 1.44959 0)
(2.65623 1.32952 0)
(2.70734 0.934901 0)
(2.74423 0.834919 0)
(2.75502 0.611796 0)
(2.76199 0.574759 0)
(2.75671 0.453409 0)
(2.74036 0.384448 0)
(2.70894 0.338577 0)
(2.69031 0.31845 0)
(2.69335 0.292724 0)
(2.65096 0.129673 0)
(2.61219 -0.0259705 0)
(1.54717 1.77376 0)
(1.83539 2.22584 0)
(1.99109 2.30822 0)
(2.11267 2.35269 0)
(2.34118 2.07171 0)
(2.44679 1.9036 0)
(2.58307 1.57034 0)
(2.63763 1.48512 0)
(2.65573 1.45062 0)
(2.72952 1.25167 0)
(2.70844 1.27333 0)
(2.72089 1.0823 0)
(2.68422 0.998499 0)
(2.69476 0.89724 0)
(2.69071 0.762306 0)
(2.69991 0.661217 0)
(2.73512 0.572346 0)
(2.74588 0.389453 0)
(2.73292 0.223743 0)
(2.67649 0.101519 0)
(1.36856 1.59275 0)
(1.63338 2.01929 0)
(1.93394 2.24953 0)
(2.09511 2.28101 0)
(2.29506 2.14872 0)
(2.46354 2.07576 0)
(2.43952 1.77809 0)
(2.41054 1.69225 0)
(2.4253 1.7143 0)
(2.45548 1.64549 0)
(2.4942 1.51048 0)
(2.55388 1.39107 0)
(2.57511 1.20605 0)
(2.65079 1.12806 0)
(2.68087 0.926615 0)
(2.75003 0.795552 0)
(2.79187 0.631547 0)
(2.81206 0.40603 0)
(2.76317 0.392673 0)
(2.70934 0.370194 0)
(1.26066 1.36557 0)
(1.4777 1.80883 0)
(1.71651 2.071 0)
(1.8594 2.22791 0)
(2.06945 2.25874 0)
(2.1343 2.25116 0)
(2.18285 2.01661 0)
(2.16865 1.90403 0)
(2.15606 1.84528 0)
(2.25073 1.76614 0)
(2.37037 1.57715 0)
(2.5232 1.50378 0)
(2.57755 1.28213 0)
(2.71902 1.19406 0)
(2.74391 0.947743 0)