/*--------------------------------*- C++ -*----------------------------------*\
  =========                 |
  \\      /  F ield         | OpenFOAM: The Open Source CFD Toolbox
   \\    /   O peration     | Website:  https://openfoam.org
    \\  /    A nd           | Version:  7
     \\/     M anipulation  |
\*---------------------------------------------------------------------------*/
FoamFile
{
    version     2.0;
    format      ascii;
    class       volScalarField;
    location    "6.7";
    object      rho;
}
// * * * * * * * * * * * * * * * * * * * * * * * * * * * * * * * * * * * * * //

dimensions      [1 -3 0 0 0 0 0];

internalField   nonuniform List<scalar> 
3700
(
0.295785
0.431071
0.489041
0.565404
0.565203
0.526515
0.519014
0.526988
0.563755
0.587408
0.603466
0.629437
0.644626
0.660057
0.671217
0.702968
0.73995
0.738225
0.741546
0.741981
0.199218
0.174649
0.181588
0.187287
0.175461
0.165243
0.174
0.202478
0.248297
0.283701
0.283284
0.258906
0.23025
0.213511
0.215406
0.230689
0.264707
0.305494
0.352952
0.362392
0.184343
0.1371
0.113012
0.0802935
0.0657718
0.0673851
0.0751819
0.0945206
0.108323
0.117831
0.115919
0.114275
0.113378
0.115339
0.120047
0.131684
0.147543
0.163682
0.178681
0.187316
0.17504
0.131094
0.105705
0.0681597
0.0579927
0.0602329
0.0706137
0.0957575
0.114673
0.132684
0.155644
0.164856
0.172296
0.175588
0.177791
0.177196
0.182839
0.198861
0.220592
0.258411
0.162416
0.123081
0.0947316
0.0600063
0.055371
0.0581853
0.0693665
0.0918058
0.110021
0.130653
0.163383
0.185739
0.209882
0.22779
0.244145
0.239803
0.235653
0.238484
0.251558
0.305998
0.133141
0.109253
0.0745659
0.056733
0.0557508
0.0632549
0.0815404
0.0962151
0.109512
0.127973
0.158496
0.187698
0.226897
0.264063
0.295477
0.323932
0.338485
0.352775
0.357042
0.394324
0.106264
0.0853288
0.0551742
0.0577016
0.0682171
0.0918788
0.121929
0.134161
0.141853
0.157619
0.168506
0.18839
0.232292
0.281193
0.326281
0.378847
0.427516
0.474088
0.503176
0.559387
0.0829001
0.0615744
0.0483179
0.0590172
0.0766754
0.112132
0.152922
0.177641
0.208109
0.238702
0.245174
0.262995
0.281375
0.31765
0.365404
0.42977
0.505037
0.589634
0.657464
0.780955
0.0604143
0.0465054
0.0490876
0.0599533
0.0776366
0.115645
0.157249
0.190785
0.254784
0.313651
0.355323
0.396995
0.438349
0.486814
0.518346
0.56183
0.621761
0.733619
0.837147
1.04086
0.0434794
0.0390992
0.0496409
0.0597141
0.0756071
0.11289
0.148181
0.184038
0.267326
0.358339
0.439938
0.513631
0.601895
0.677008
0.745734
0.817102
0.885136
0.977021
1.11594
1.33037
0.0322234
0.0337531
0.0478037
0.0613971
0.080304
0.134524
0.160878
0.196775
0.271028
0.383421
0.509779
0.624061
0.760161
0.867845
0.990878
1.11621
1.24274
1.35335
1.58926
1.56572
0.0257126
0.028807
0.0467103
0.0692087
0.113855
0.205487
0.24855
0.339893
0.465105
0.57956
0.718271
0.852913
1.00177
1.13498
1.29476
1.49147
1.69745
1.87658
2.15845
2.08859
0.0235356
0.0262444
0.0486849
0.100273
0.186341
0.301543
0.394859
0.558946
0.755933
0.965926
1.146
1.31413
1.47947
1.63123
1.807
2.03734
2.30266
2.56209
2.92836
2.90803
0.0254872
0.0322563
0.063157
0.151303
0.257216
0.36632
0.523389
0.751018
1.0259
1.35507
1.61215
1.86805
2.11019
2.34682
2.62766
2.93648
3.2403
3.57924
3.88942
4.16548
0.0291211
0.0490389
0.0861118
0.175316
0.305887
0.422964
0.711221
1.06333
1.49703
1.93012
2.30031
2.64844
2.98371
3.33225
3.75851
4.14646
4.51415
4.8658
5.09546
5.26649
0.0323194
0.0633985
0.103467
0.166825
0.410139
0.881059
1.45262
2.03639
2.68994
3.21882
3.61105
3.98536
4.36722
4.78553
5.23221
5.495
5.64672
5.72305
5.60039
5.4369
0.0254928
0.0720206
0.171857
0.475293
1.11284
2.0324
2.85141
3.67587
4.47344
4.97319
5.26482
5.58495
5.88387
6.1093
6.22096
6.11586
5.81253
5.06674
3.87549
2.63355
0.0376178
0.158675
0.670519
1.70367
2.98992
4.01326
4.90389
5.85966
6.64035
6.68473
6.56119
6.58821
6.53686
6.30521
5.59918
4.27145
2.91832
1.86226
1.42507
1.39007
0.429586
1.24574
2.81439
4.43388
5.77034
6.68309
7.503
8.17043
7.96845
7.33256
6.72868
5.98474
4.71704
3.24476
1.99637
1.44227
1.38521
1.39296
1.39629
1.39923
3.24129
5.0693
6.80435
7.93898
8.56861
8.90114
9.07789
8.66738
6.32307
4.4724
3.31284
2.19086
1.51221
1.3824
1.38998
1.39473
1.39881
1.39997
1.40003
1.40002
9.69464
9.6118
9.56427
9.5688
9.65317
9.43584
8.36632
3.25339
0.891604
1.40001
1.40001
1.40001
1.40001
1.40001
1.40001
1.40001
1.40001
1.40001
1.40001
1.40001
9.6407
9.55962
9.47541
9.43315
9.59372
8.02034
3.57509
1.41857
1.40001
1.40001
1.40001
1.40001
1.40001
1.40001
1.40001
1.40001
1.40001
1.40001
1.40001
1.40001
9.42484
9.49504
9.42625
9.15167
8.82301
4.62928
1.45024
1.39921
1.40001
1.40001
1.40001
1.40001
1.40001
1.40001
1.40001
1.40001
1.40001
1.40001
1.40001
1.40001
9.24312
9.46943
9.45627
8.86196
6.59507
2.06091
1.39175
1.40014
1.4
1.40001
1.40001
1.40001
1.40001
1.40001
1.40001
1.40001
1.40001
1.40001
1.40001
1.40001
9.0227
9.47459
9.51574
8.64685
3.89072
1.36314
1.40052
1.4
1.40001
1.40001
1.40001
1.40001
1.40001
1.40001
1.40001
1.40001
1.40001
1.40001
1.40001
1.40001
8.85313
9.35432
9.49024
6.96913
1.91464
1.40001
1.40001
1.40001
1.40001
1.40001
1.40001
1.40001
1.40001
1.40001
1.40001
1.40001
1.40001
1.40001
1.40001
1.40001
8.80544
9.21884
9.13584
4.81866
1.36934
1.40001
1.40001
1.40001
1.40001
1.40001
1.40001
1.40001
1.40001
1.40001
1.40001
1.40001
1.40001
1.40001
1.40001
1.40001
8.97927
9.21255
8.45749
2.88342
1.40001
1.40001
1.40001
1.40001
1.40001
1.40001
1.40001
1.40001
1.40001
1.40001
1.40001
1.40001
1.40001
1.40001
1.40001
1.40001
9.62075
9.32157
6.8654
1.63962
1.40001
1.40001
1.40001
1.40001
1.40001
1.40001
1.40001
1.40001
1.40001
1.40001
1.40001
1.40001
1.40001
1.40001
1.40001
1.40001
9.99828
8.81725
4.92615
1.38259
1.40001
1.40001
1.40001
1.40001
1.40001
1.40001
1.40001
1.40001
1.40001
1.40001
1.40001
1.40001
1.40001
1.40001
1.40001
1.40001
10.3051
8.36737
3.19194
1.40001
1.40001
1.40001
1.40001
1.40001
1.40001
1.40001
1.40001
1.40001
1.40001
1.40001
1.40001
1.40001
1.40001
1.40001
1.40001
1.40001
10.418
7.49515
2.22171
1.40001
1.40001
1.40001
1.40001
1.40001
1.40001
1.40001
1.40001
1.40001
1.40001
1.40001
1.40001
1.40001
1.40001
1.40001
1.40001
1.40001
10.4802
6.56137
1.63927
1.40001
1.40001
1.40001
1.40001
1.40001
1.40001
1.40001
1.40001
1.40001
1.40001
1.40001
1.40001
1.40001
1.40001
1.40001
1.40001
1.40001
10.2842
5.49996
1.40127
1.40001
1.40001
1.40001
1.40001
1.40001
1.40001
1.40001
1.40001
1.40001
1.40001
1.40001
1.40001
1.40001
1.40001
1.40001
1.40001
1.40001
9.87252
4.45345
1.40001
1.40001
1.40001
1.40001
1.40001
1.40001
1.40001
1.40001
1.40001
1.40001
1.40001
1.40001
1.40001
1.40001
1.40001
1.40001
1.40001
1.40001
9.57056
3.61171
1.40001
1.40001
1.40001
1.40001
1.40001
1.40001
1.40001
1.40001
1.40001
1.40001
1.40001
1.40001
1.40001
1.40001
1.40001
1.40001
1.40001
1.40001
9.37007
2.65403
1.40001
1.40001
1.40001
1.40001
1.40001
1.40001
1.40001
1.40001
1.40001
1.40001
1.40001
1.40001
1.40001
1.40001
1.40001
1.40001
1.40001
1.40001
8.72397
1.86857
1.40001
1.40001
1.40001
1.40001
1.40001
1.40001
1.40001
1.40001
1.40001
1.40001
1.40001
1.40001
1.40001
1.40001
1.40001
1.40001
1.40001
1.40001
7.86706
1.40653
1.40001
1.40001
1.40001
1.40001
1.40001
1.40001
1.40001
1.40001
1.40001
1.40001
1.40001
1.40001
1.40001
1.40001
1.40001
1.40001
1.40001
1.40001
6.48407
1.4001
1.40001
1.40001
1.40001
1.40001
1.40001
1.40001
1.40001
1.40001
1.40001
1.40001
1.40001
1.40001
1.40001
1.40001
1.40001
1.40001
1.40001
1.40001
6.48509
1.40011
1.40001
1.40001
1.40001
1.40001
1.40001
1.40001
1.40001
1.40001
1.40001
1.40001
1.40001
1.40001
1.40001
1.40001
1.40001
1.40001
1.40001
1.40001
7.888
1.40632
1.40001
1.40001
1.40001
1.40001
1.40001
1.40001
1.40001
1.40001
1.40001
1.40001
1.40001
1.40001
1.40001
1.40001
1.40001
1.40001
1.40001
1.40001
8.70435
1.85906
1.40001
1.40001
1.40001
1.40001
1.40001
1.40001
1.40001
1.40001
1.40001
1.40001
1.40001
1.40001
1.40001
1.40001
1.40001
1.40001
1.40001
1.40001
9.37987
2.63592
1.40001
1.40001
1.40001
1.40001
1.40001
1.40001
1.40001
1.40001
1.40001
1.40001
1.40001
1.40001
1.40001
1.40001
1.40001
1.40001
1.40001
1.40001
9.59053
3.61388
1.40001
1.40001
1.40001
1.40001
1.40001
1.40001
1.40001
1.40001
1.40001
1.40001
1.40001
1.40001
1.40001
1.40001
1.40001
1.40001
1.40001
1.40001
9.85997
4.48331
1.40001
1.40001
1.40001
1.40001
1.40001
1.40001
1.40001
1.40001
1.40001
1.40001
1.40001
1.40001
1.40001
1.40001
1.40001
1.40001
1.40001
1.40001
10.2777
5.49346
1.40068
1.40001
1.40001
1.40001
1.40001
1.40001
1.40001
1.40001
1.40001
1.40001
1.40001
1.40001
1.40001
1.40001
1.40001
1.40001
1.40001
1.40001
10.4862
6.55463
1.63667
1.40001
1.40001
1.40001
1.40001
1.40001
1.40001
1.40001
1.40001
1.40001
1.40001
1.40001
1.40001
1.40001
1.40001
1.40001
1.40001
1.40001
10.423
7.48526
2.22178
1.40001
1.40001
1.40001
1.40001
1.40001
1.40001
1.40001
1.40001
1.40001
1.40001
1.40001
1.40001
1.40001
1.40001
1.40001
1.40001
1.40001
10.3198
8.3765
3.17472
1.40001
1.40001
1.40001
1.40001
1.40001
1.40001
1.40001
1.40001
1.40001
1.40001
1.40001
1.40001
1.40001
1.40001
1.40001
1.40001
1.40001
10.0103
8.817
4.91423
1.38248
1.40001
1.40001
1.40001
1.40001
1.40001
1.40001
1.40001
1.40001
1.40001
1.40001
1.40001
1.40001
1.40001
1.40001
1.40001
1.40001
9.61374
9.31188
6.85718
1.64979
1.40001
1.40001
1.40001
1.40001
1.40001
1.40001
1.40001
1.40001
1.40001
1.40001
1.40001
1.40001
1.40001
1.40001
1.40001
1.40001
8.97454
9.23577
8.48751
2.88356
1.40001
1.40001
1.40001
1.40001
1.40001
1.40001
1.40001
1.40001
1.40001
1.40001
1.40001
1.40001
1.40001
1.40001
1.40001
1.40001
8.80355
9.21981
9.11841
4.84643
1.37626
1.40001
1.40001
1.40001
1.40001
1.40001
1.40001
1.40001
1.40001
1.40001
1.40001
1.40001
1.40001
1.40001
1.40001
1.40001
8.84727
9.34281
9.46942
6.90062
1.90006
1.40001
1.40001
1.40001
1.40001
1.40001
1.40001
1.40001
1.40001
1.40001
1.40001
1.40001
1.40001
1.40001
1.40001
1.40001
9.01528
9.47439
9.52669
8.7459
3.85058
1.3635
1.40052
1.4
1.40001
1.40001
1.40001
1.40001
1.40001
1.40001
1.40001
1.40001
1.40001
1.40001
1.40001
1.40001
9.23581
9.47012
9.47553
8.87879
6.61474
2.08831
1.39112
1.40014
1.4
1.40001
1.40001
1.40001
1.40001
1.40001
1.40001
1.40001
1.40001
1.40001
1.40001
1.40001
9.41416
9.49152
9.39871
9.11038
8.77881
4.65838
1.45739
1.39907
1.40001
1.40001
1.40001
1.40001
1.40001
1.40001
1.40001
1.40001
1.40001
1.40001
1.40001
1.40001
9.62585
9.5552
9.46056
9.39066
9.61634
8.01423
3.56211
1.41569
1.40001
1.40001
1.40001
1.40001
1.40001
1.40001
1.40001
1.40001
1.40001
1.40001
1.40001
1.40001
9.69414
9.61487
9.57077
9.59552
9.70159
9.43638
8.36062
3.22444
0.89709
1.40001
1.40001
1.40001
1.40001
1.40001
1.40001
1.40001
1.40001
1.40001
1.40001
1.40001
3.23982
5.07284
6.80623
7.94517
8.5992
8.91254
9.08212
8.66424
6.32061
4.47295
3.31567
2.19575
1.51472
1.38264
1.39005
1.39476
1.3988
1.39997
1.40003
1.40002
0.430627
1.24136
2.8213
4.44791
5.7662
6.67574
7.49844
8.16916
7.96823
7.33402
6.72992
5.98474
4.71708
3.24365
1.99516
1.44179
1.38517
1.39294
1.39628
1.39923
0.0364128
0.164182
0.674909
1.70855
3.00559
4.01536
4.88969
5.8468
6.63784
6.6827
6.55588
6.58088
6.53158
6.30499
5.60296
4.27522
2.92068
1.86305
1.42511
1.39007
0.0230692
0.0626434
0.164408
0.494991
1.1368
2.043
2.85941
3.67812
4.47945
4.97475
5.26076
5.57878
5.88075
6.11208
6.22263
6.11745
5.81479
5.06853
3.87485
2.63196
0.0327172
0.0597992
0.0942289
0.148886
0.390465
0.879903
1.45099
2.03545
2.68703
3.22013
3.61509
3.98773
4.36769
4.78437
5.23107
5.49723
5.64988
5.723
5.59951
5.43511
0.0339154
0.0522011
0.0847782
0.16051
0.29678
0.4145
0.702073
1.05826
1.49687
1.93529
2.30365
2.6483
2.98145
3.32922
3.75843
4.14994
4.51821
4.86774
5.09415
5.2645
0.0316689
0.038615
0.0704993
0.151286
0.254589
0.362897
0.523577
0.751874
1.02916
1.35434
1.61059
1.86501
2.10576
2.343
2.62578
2.93658
3.24062
3.57818
3.88739
4.16294
0.0267605
0.032561
0.0559081
0.106917
0.189189
0.300542
0.396036
0.556972
0.754189
0.964866
1.14439
1.31141
1.47651
1.62887
1.80559
2.03805
2.30375
2.56275
2.9279
2.90736
0.0265322
0.0338491
0.0541445
0.0726583
0.116235
0.205281
0.247428
0.333747
0.457585
0.576395
0.716558
0.853231
1.00414
1.13884
1.29899
1.49494
1.6991
1.87684
2.15847
2.0879
0.0304979
0.0377082
0.053337
0.0641554
0.0822383
0.1358
0.160122
0.194398
0.266564
0.37846
0.507996
0.625352
0.764178
0.872674
0.994752
1.11791
1.24208
1.35221
1.58871
1.5659
0.0400708
0.0413953
0.0518141
0.0612111
0.076935
0.112727
0.148358
0.186055
0.266019
0.357959
0.441297
0.515209
0.603567
0.678036
0.744847
0.815232
0.883621
0.977173
1.11798
1.33236
0.0561109
0.046121
0.0521851
0.0618771
0.0796373
0.115077
0.15669
0.19361
0.257387
0.315092
0.356614
0.397232
0.435869
0.483034
0.516187
0.561206
0.623714
0.736105
0.840102
1.04357
0.0780421
0.0578317
0.0499622
0.0605726
0.0783492
0.111623
0.151056
0.179999
0.210422
0.240696
0.243199
0.259845
0.279835
0.318927
0.368364
0.432232
0.506969
0.59067
0.658297
0.781327
0.10195
0.0769719
0.0530944
0.0579827
0.0690362
0.0920593
0.119351
0.13365
0.143301
0.158153
0.169204
0.191287
0.23617
0.283482
0.326884
0.37755
0.425536
0.472586
0.50169
0.557397
0.120786
0.102198
0.069925
0.0557529
0.0550078
0.0640453
0.080833
0.0951957
0.110015
0.129884
0.163008
0.192124
0.228317
0.263126
0.292221
0.319605
0.334462
0.349168
0.353543
0.390799
0.133014
0.114695
0.0945497
0.0596815
0.0545461
0.0588456
0.0698079
0.0908193
0.110706
0.134079
0.166746
0.186409
0.207782
0.223739
0.237943
0.236335
0.2326
0.235455
0.249044
0.30406
0.152649
0.125437
0.109275
0.0726239
0.057385
0.0604546
0.0712376
0.0943885
0.114456
0.134556
0.155872
0.16159
0.167775
0.170838
0.173434
0.175197
0.182296
0.198592
0.220248
0.258345
0.171668
0.136965
0.119347
0.0891103
0.0654898
0.0661812
0.0746785
0.092182
0.106035
0.11425
0.112817
0.111648
0.111527
0.114205
0.120527
0.133675
0.149403
0.164429
0.178404
0.188995
0.190107
0.151072
0.136856
0.113378
0.10565
0.125844
0.14288
0.144375
0.147585
0.16368
0.192636
0.22038
0.231712
0.23561
0.241826
0.249041
0.2499
0.242981
0.247433
0.245833
0.283981
0.367784
0.417035
0.431669
0.440571
0.4831
0.498682
0.493533
0.49833
0.539146
0.580482
0.625624
0.649497
0.664731
0.674695
0.684766
0.695165
0.680301
0.687993
0.722654
0.769001
0.870767
0.974876
1.14522
1.15613
1.16475
1.15347
1.16659
1.21043
1.26329
1.30253
1.3125
1.30359
1.29904
1.31587
1.336
1.33517
1.33056
1.32369
1.32462
0.403921
0.559554
0.741407
0.957843
1.07615
1.16817
1.16044
1.1714
1.21172
1.26343
1.3069
1.32118
1.31259
1.29889
1.30807
1.32985
1.33902
1.33713
1.32957
1.32743
0.190701
0.222046
0.327704
0.461226
0.73114
0.97808
1.06473
1.16738
1.22373
1.2537
1.28566
1.29945
1.30038
1.3
1.30529
1.315
1.32851
1.33184
1.33236
1.33343
0.268478
0.299523
0.321374
0.331822
0.360203
0.474277
0.769746
1.02985
1.14139
1.21703
1.26958
1.2851
1.28804
1.30684
1.31622
1.31931
1.32464
1.32753
1.33096
1.33839
0.338573
0.366091
0.373325
0.389239
0.413873
0.419115
0.45368
0.600789
0.875919
1.104
1.20132
1.26557
1.29155
1.31973
1.32188
1.32375
1.32488
1.32107
1.32624
1.3366
0.429912
0.45605
0.463391
0.45516
0.455026
0.46969
0.481575
0.47269
0.521912
0.693622
0.964588
1.17757
1.27362
1.32147
1.32535
1.33089
1.33067
1.32277
1.32616
1.33851
0.557186
0.574178
0.538195
0.496369
0.500186
0.5219
0.531864
0.537028
0.546509
0.534118
0.628352
0.907792
1.16739
1.30997
1.32519
1.33152
1.32985
1.31531
1.32459
1.34214
0.73847
0.711589
0.653674
0.57255
0.553328
0.571698
0.595241
0.596509
0.590819
0.574723
0.547569
0.615766
0.87725
1.15012
1.30314
1.33203
1.32126
1.3107
1.33634
1.34481
0.951536
0.874061
0.782414
0.664656
0.626004
0.639786
0.652724
0.645883
0.635148
0.614358
0.573751
0.562505
0.615852
0.867119
1.14879
1.31182
1.27909
1.29974
1.34833
1.3449
1.19677
1.07563
0.963147
0.806695
0.710732
0.696005
0.701812
0.693686
0.674736
0.65547
0.62338
0.587165
0.588956
0.636274
0.840669
1.14929
1.22521
1.30826
1.35945
1.34445
1.73843
1.30577
1.17368
1.05704
0.867882
0.785867
0.779152
0.769393
0.75179
0.738104
0.709886
0.674831
0.65114
0.636993
0.659015
0.782291
1.04163
1.24446
1.31389
1.33239
2.86334
2.01561
1.55653
1.43629
1.23905
1.0652
0.973935
0.892134
0.836796
0.813142
0.780233
0.762218
0.746903
0.720927
0.674637
0.679531
0.735293
0.893508
1.10015
1.27268
3.48771
3.04105
2.34746
1.87467
1.56997
1.31416
1.17076
1.02929
0.954254
0.955059
0.928764
0.8878
0.858167
0.818137
0.768871
0.731997
0.735483
0.74819
0.801717
1.03645
3.29904
3.27285
3.1205
2.65767
2.18819
1.75801
1.5186
1.34595
1.2063
1.14668
1.07219
0.983454
0.926599
0.878183
0.838089
0.813702
0.791999
0.76794
0.756694
0.807326
2.35794
2.97363
3.09283
3.05104
2.88118
2.49924
2.0633
1.76087
1.49916
1.32987
1.20511
1.07085
1.02922
1.00044
0.9812
0.955997
0.919763
0.870439
0.801472
0.803086
1.55152
2.00735
2.57693
2.94616
2.94737
2.90048
2.68966
2.35515
2.00147
1.70447
1.5352
1.36406
1.25293
1.18983
1.11889
1.04994
0.983079
0.918147
0.876693
0.853333
1.40629
1.46211
1.68601
2.1611
2.59888
2.82591
2.81341
2.74884
2.56698
2.25037
1.9601
1.72011
1.49769
1.35575
1.23134
1.13206
1.08165
1.0406
1.02249
0.974907
1.40013
1.40159
1.41455
1.50947
1.77253
2.19869
2.54453
2.69909
2.69108
2.63497
2.46558
2.21562
1.93815
1.70872
1.52935
1.37917
1.30012
1.24272
1.17298
1.06354
1.40001
1.40002
1.40021
1.4035
1.4263
1.5386
1.80606
2.17564
2.47144
2.59323
2.58484
2.53769
2.40221
2.16962
1.93213
1.71103
1.5317
1.39737
1.2942
1.16493
1.40001
1.40001
1.40001
1.40004
1.40046
1.40535
1.43474
1.55163
1.79884
2.12698
2.38059
2.50049
2.49398
2.45341
2.34253
2.15236
1.93265
1.71813
1.57164
1.39893
1.40001
1.40001
1.40001
1.40001
1.40001
1.40007
1.4007
1.40665
1.43672
1.54729
1.76911
2.06594
2.28692
2.41128
2.40768
2.38096
2.29856
2.13655
1.95264
1.67401
1.40001
1.40001
1.40001
1.40001
1.40001
1.40001
1.40001
1.40009
1.4008
1.40678
1.43524
1.53235
1.72459
1.99544
2.19823
2.32573
2.32662
2.31052
2.26
2.04778
1.40001
1.40001
1.40001
1.40001
1.40001
1.40001
1.40001
1.40001
1.40001
1.4001
1.40081
1.40588
1.43138
1.50999
1.67792
1.9129
2.1214
2.23875
2.25328
2.22232
1.40001
1.40001
1.40001
1.40001
1.40001
1.40001
1.40001
1.40001
1.40001
1.40001
1.40001
1.40008
1.40075
1.40451
1.42548
1.48981
1.62631
1.8391
2.02247
2.16784
1.40001
1.40001
1.40001
1.40001
1.40001
1.40001
1.40001
1.40001
1.40001
1.40001
1.40001
1.40001
1.40001
1.40007
1.4006
1.4036
1.4194
1.47197
1.59109
1.94213
2.26459
3.42338
3.59416
2.90784
1.83187
1.45167
1.40263
1.40007
1.40001
1.40001
1.40001
1.40001
1.40001
1.40001
1.40001
3.25714
3.91765
3.51916
2.15342
1.46746
1.40114
1.40001
1.4
1.40001
1.40001
1.40001
1.40001
1.40001
1.40001
1.40001
4.07884
3.99313
2.76269
1.61143
1.40719
1.40007
1.40001
1.40001
1.40001
1.40001
1.40001
1.40001
1.40001
1.40001
1.40001
4.52128
3.56045
1.90619
1.42695
1.40027
1.40001
1.40001
1.40001
1.40001
1.40001
1.40001
1.40001
1.40001
1.40001
1.40001
4.62562
2.35173
1.46574
1.40071
1.40001
1.4
1.40001
1.40001
1.40001
1.40001
1.40001
1.40001
1.40001
1.40001
1.40001
2.88961
1.50287
1.40068
1.4
1.4
1.4
1.40001
1.40001
1.40001
1.40001
1.40001
1.40001
1.40001
1.40001
1.40001
1.54249
1.40082
1.4
1.4
1.40001
1.40001
1.40001
1.40001
1.40001
1.40001
1.40001
1.40001
1.40001
1.40001
1.40001
1.39739
1.39981
1.4
1.4
1.40001
1.40001
1.40001
1.40001
1.40001
1.40001
1.40001
1.40001
1.40001
1.40001
1.40001
1.39996
1.40001
1.40001
1.40001
1.40001
1.40001
1.40001
1.40001
1.40001
1.40001
1.40001
1.40001
1.40001
1.40001
1.40001
1.40001
1.40001
1.40001
1.40001
1.40001
1.40001
1.40001
1.40001
1.40001
1.40001
1.40001
1.40001
1.40001
1.40001
1.40001
1.40001
1.40001
1.40001
1.40001
1.40001
1.40001
1.40001
1.40001
1.40001
1.40001
1.40001
1.40001
1.40001
1.40001
1.40001
1.40001
1.40001
1.40001
1.40001
1.40001
1.40001
1.40001
1.40001
1.40001
1.40001
1.40001
1.40001
1.40001
1.40001
1.40001
1.40001
1.40001
1.40001
1.40001
1.40001
1.40001
1.40001
1.40001
1.40001
1.40001
1.40001
1.40001
1.40001
1.40001
1.40001
1.40001
1.40001
1.40001
1.40001
1.40001
1.40001
1.40001
1.40001
1.40001
1.40001
1.40001
1.40001
1.40001
1.40001
1.40001
1.40001
1.40001
1.40001
1.40001
1.40001
1.40001
1.40001
1.40001
1.40001
1.40001
1.40001
1.40001
1.40001
1.40001
1.40001
1.40001
1.40001
1.40001
1.40001
1.40001
1.40001
1.40001
1.40001
1.40001
1.40001
1.40001
1.40001
1.40001
1.40001
1.40001
1.40001
1.40001
1.40001
1.40001
1.40001
1.40001
1.40001
1.40001
1.40001
1.40001
1.40001
1.40001
1.40001
1.40001
1.40001
1.40001
1.40001
1.40001
1.40001
1.40001
1.40001
1.40001
1.40001
1.40001
1.40001
1.40001
1.40001
1.40001
1.40001
1.40001
1.40001
1.40001
1.40001
1.40001
1.40001
1.40001
1.40001
1.40001
1.40001
1.40001
1.40001
1.40001
1.40001
1.40001
1.40001
1.40001
1.40001
1.40001
1.40001
1.40001
1.40001
1.40001
1.40001
1.40001
1.40001
1.40001
1.40001
1.40001
1.40001
1.40001
1.40001
1.40001
1.40001
1.40001
1.40001
1.40001
1.40001
1.40001
1.40001
1.40001
1.40001
1.40001
1.40001
1.40001
1.40001
1.40001
1.40001
1.40001
1.40001
1.40001
1.40001
1.40001
1.40001
1.40001
1.40001
1.40001
1.40001
1.40001
1.40001
1.40001
1.40001
1.40001
1.40001
1.40001
1.40001
1.40001
1.40001
1.40001
1.40001
1.40001
1.40001
1.40001
1.40001
1.40001
1.40001
1.40001
1.40001
1.40001
1.40001
1.40001
1.40001
1.40001
1.40001
1.40001
1.40001
1.40001
1.40001
1.40001
1.40001
1.40001
1.40001
1.40001
1.40001
1.40001
1.40001
1.40001
1.40001
1.40001
1.40001
1.40001
1.40001
1.40001
1.40001
1.40001
1.40001
1.40001
1.40001
1.40001
1.40001
1.40001
1.40001
1.40001
1.40001
1.40001
1.40001
1.40001
1.40001
1.40001
1.40001
1.40001
1.40001
1.40001
1.40001
1.40001
1.40001
1.40001
1.40001
1.40001
1.40001
1.40001
1.40001
1.40001
1.40001
1.40001
1.40001
1.40001
1.40001
1.40001
1.40001
1.40001
1.40001
1.40001
1.40001
1.40001
1.40001
1.40001
1.40001
1.40001
1.40001
1.40001
1.40001
1.40001
1.40001
1.40001
1.40001
1.40001
1.40001
1.40001
1.40001
1.40001
1.40001
1.40001
1.40001
1.40001
1.40001
1.40001
1.40001
1.40001
1.40001
1.40001
1.40001
1.40001
1.40001
1.40001
1.40001
1.40001
1.40001
1.40001
1.40001
1.40001
1.40001
1.40001
1.40001
1.40001
1.40001
1.40001
1.40001
1.40001
1.40001
1.40001
1.40001
1.40001
1.40001
1.40001
1.40001
1.40001
1.40001
1.40001
1.40001
1.40001
1.40001
1.40001
1.40001
1.40001
1.40001
1.40001
1.40001
1.40001
1.40001
1.40001
1.40001
1.40001
1.40001
1.40001
1.40001
1.40001
1.40001
1.40001
1.40001
1.40001
1.40001
1.40001
1.40001
1.40001
1.40001
1.40001
1.40001
1.40001
1.40001
1.40001
1.40001
1.40001
1.40001
1.40001
1.40001
1.40001
1.40001
1.40001
1.40001
1.40001
1.40001
1.40001
1.40001
1.40001
1.40001
1.40001
1.40001
1.40001
1.40001
1.40001
1.40001
1.40001
1.40001
1.40001
1.40001
1.40001
1.40001
1.40001
1.40001
1.40001
1.40001
1.40001
1.40001
1.40001
1.40001
1.40001
1.40001
1.40001
1.40001
1.40001
1.40001
1.40001
1.40001
1.40001
1.40001
1.40001
1.40001
1.40001
1.40001
1.40001
1.40001
1.40001
1.40001
1.40001
1.40001
1.40001
1.40001
1.40001
1.40001
1.40001
1.40001
1.40001
1.40001
1.40001
1.40001
1.40001
1.40001
1.40001
1.40001
1.40001
1.40001
1.40001
1.40001
1.40001
1.40001
1.40001
1.40001
1.40001
1.40001
1.40001
1.40001
1.40001
1.40001
1.40001
1.40001
1.40001
1.40001
1.40001
1.40001
1.40001
1.40001
1.40001
1.40001
1.40001
1.40001
1.40001
1.40001
1.40001
1.40001
1.40001
1.40001
1.40001
1.40001
1.40001
1.40001
1.40001
1.40001
1.40001
1.40001
1.40001
1.40001
1.40001
1.40001
1.40001
1.40001
1.40001
1.40001
1.40001
1.40001
1.40001
1.40001
1.40001
1.40001
1.40001
1.40001
1.40001
1.40001
1.40001
1.40001
1.40001
1.40001
1.40001
1.40001
1.40001
1.40001
1.40001
1.40001
1.40001
1.40001
1.40001
1.40001
1.40001
1.40001
1.40001
1.40001
1.40001
1.40001
1.40001
1.40001
1.40001
1.40001
1.40001
1.40001
1.40001
1.40001
1.40001
1.40001
1.40001
1.40001
1.40001
1.40001
1.40001
1.40001
1.40001
1.40001
1.40001
1.40001
1.40001
1.40001
1.40001
1.40001
1.40001
1.40001
1.40001
1.40001
1.40001
1.40001
1.40001
1.40001
1.40001
1.40001
1.40001
1.40001
1.40001
1.40001
1.40001
1.40001
1.40001
1.40001
1.40001
1.40001
1.40001
1.40001
1.40001
1.40001
1.40001
1.40001
1.40001
1.40001
1.40001
1.40001
1.40001
1.40001
1.40001
1.40001
1.40001
1.40001
1.40001
1.40001
1.40001
1.40001
1.40001
1.40001
1.40001
1.40001
1.40001
1.40001
1.40001
1.40001
1.40001
1.40001
1.40001
1.40001
1.40001
1.40001
1.40001
1.40001
1.40001
1.40001
1.40001
1.40001
1.40001
1.40001
1.40001
1.40001
1.40001
1.40001
1.40001
1.40001
1.40001
1.40001
1.40001
1.40001
1.40001
1.40001
1.40001
1.40001
1.40001
1.40001
1.40001
1.40001
1.40001
1.40001
1.40001
1.40001
1.40001
1.40001
1.40001
1.40001
1.40001
1.40001
1.40001
1.40001
1.40001
1.40001
1.40001
1.40001
1.40001
1.40001
1.40001
1.40001
1.40001
1.40001
1.40001
1.40001
1.40001
1.40001
1.40001
1.40001
1.40001
1.40001
1.40001
1.40001
1.40001
1.40001
1.40001
1.40001
1.40001
1.40001
1.40001
1.40001
1.40001
1.40001
1.40001
1.40001
1.40001
1.40001
1.40001
1.40001
1.40001
1.40001
1.40001
1.40001
1.40001
1.40001
1.40001
1.40001
1.40001
1.40001
1.40001
1.40001
1.40001
1.40001
1.40001
1.40001
1.40001
1.40001
1.40001
1.40001
1.40001
1.40001
1.40001
1.40001
1.40001
1.40001
1.40001
1.40001
1.40001
1.40001
1.40001
1.40001
1.40001
1.40001
1.40001
1.40001
1.40001
1.40001
1.40001
1.40001
1.40001
1.40001
1.40001
1.40001
1.40001
1.40001
1.40001
1.40001
1.40001
1.40001
1.40001
1.40001
1.40001
1.40001
1.40001
1.40001
1.40001
1.40001
1.40001
1.40001
1.40001
1.40001
1.40001
1.40001
1.40001
1.40001
1.40001
1.40001
1.40001
1.40001
1.40001
1.40001
1.40001
1.40001
1.40001
1.40001
1.40001
1.40001
1.40001
1.40001
1.40001
1.40001
1.40001
1.40001
1.40001
1.40001
1.40001
1.40001
1.40001
1.40001
1.40001
1.40001
1.40001
1.40001
1.40001
1.40001
1.40001
1.40001
1.40001
1.40001
1.40001
1.40001
1.40001
1.40001
1.40001
1.40001
1.40001
1.40001
1.40001
1.40001
1.40001
1.40001
1.40001
1.40001
1.40001
1.40001
1.40001
1.40001
1.40001
1.40001
1.40001
1.40001
1.40001
1.40001
1.40001
1.40001
1.40001
1.40001
1.40001
1.40001
1.40001
1.40001
1.40001
1.40001
1.40001
1.40001
1.40001
1.40001
1.40001
1.40001
1.40001
1.40001
1.40001
1.40001
1.40001
1.40001
1.40001
1.40001
1.40001
1.40001
1.40001
1.40001
1.40001
1.40001
1.40001
1.40001
1.40001
1.40001
1.40001
1.40001
1.40001
1.40001
1.40001
1.40001
1.40001
1.40001
1.39996
1.40001
1.40001
1.40001
1.40001
1.40001
1.40001
1.40001
1.40001
1.40001
1.40001
1.40001
1.40001
1.40001
1.40001
1.39739
1.39981
1.4
1.4
1.40001
1.40001
1.40001
1.40001
1.40001
1.40001
1.40001
1.40001
1.40001
1.40001
1.40001
1.54228
1.40081
1.4
1.4
1.40001
1.40001
1.40001
1.40001
1.40001
1.40001
1.40001
1.40001
1.40001
1.40001
1.40001
2.88908
1.50291
1.40068
1.4
1.4
1.4
1.40001
1.40001
1.40001
1.40001
1.40001
1.40001
1.40001
1.40001
1.40001
4.62446
2.35186
1.46584
1.40072
1.40001
1.4
1.40001
1.40001
1.40001
1.40001
1.40001
1.40001
1.40001
1.40001
1.40001
4.52033
3.56034
1.90626
1.42691
1.40027
1.40001
1.40001
1.40001
1.40001
1.40001
1.40001
1.40001
1.40001
1.40001
1.40001
4.07746
3.99295
2.76339
1.6116
1.40719
1.40007
1.40001
1.40001
1.40001
1.40001
1.40001
1.40001
1.40001
1.40001
1.40001
3.25661
3.91741
3.51895
2.15328
1.4674
1.40113
1.40001
1.4
1.40001
1.40001
1.40001
1.40001
1.40001
1.40001
1.40001
2.26486
3.42421
3.5944
2.90738
1.83145
1.45163
1.40263
1.40007
1.40001
1.40001
1.40001
1.40001
1.40001
1.40001
1.40001
1.73783
2.86117
3.48982
3.30027
2.35918
1.55133
1.40628
1.40013
1.40001
1.40001
1.40001
1.40001
1.40001
1.40001
1.40001
1.31148
2.00462
3.03663
3.27336
2.97172
2.00685
1.46208
1.40159
1.40002
1.40001
1.40001
1.40001
1.40001
1.40001
1.40001
1.17755
1.58232
2.35007
3.11409
3.09189
2.57679
1.68601
1.41456
1.40021
1.40001
1.40001
1.40001
1.40001
1.40001
1.40001
1.05028
1.44158
1.87921
2.66618
3.05167
2.94734
2.16091
1.50938
1.4035
1.40004
1.40001
1.40001
1.40001
1.40001
1.40001
0.857715
1.23569
1.56333
2.18649
2.88786
2.94843
2.59937
1.77229
1.42624
1.40046
1.40001
1.40001
1.40001
1.40001
1.40001
0.786163
1.0751
1.31831
1.7351
2.49448
2.90116
2.82641
2.19841
1.53875
1.40536
1.40007
1.40001
1.40001
1.40001
1.40001
0.776325
0.971494
1.18721
1.52939
2.05811
2.68588
2.81326
2.54453
1.80616
1.43483
1.4007
1.40001
1.40001
1.40001
1.40001
0.770772
0.883217
1.03922
1.3683
1.76447
2.35075
2.74883
2.69937
2.17618
1.55182
1.40667
1.40009
1.40001
1.40001
1.40001
0.759978
0.835279
0.936127
1.1922
1.50258
2.00924
2.56561
2.69124
2.47169
1.79926
1.43675
1.4008
1.40001
1.40001
1.40001
0.749285
0.813462
0.939029
1.13596
1.32262
1.70444
2.25116
2.63366
2.59333
2.12754
1.54756
1.40679
1.4001
1.40001
1.40001
0.716876
0.779797
0.923685
1.07263
1.1953
1.51834
1.96025
2.4654
2.58447
2.38033
1.76907
1.43524
1.40081
1.40001
1.40001
0.678189
0.756185
0.882631
0.997566
1.09464
1.35468
1.71091
2.21447
2.53753
2.50033
2.06569
1.53225
1.40588
1.40008
1.40001
0.653923
0.743159
0.851502
0.927029
1.04319
1.26696
1.50077
1.93436
2.40146
2.49395
2.28684
1.72444
1.43134
1.40075
1.40001
0.639038
0.723017
0.814604
0.871244
1.00107
1.1987
1.36234
1.70627
2.16919
2.45337
2.41167
1.99561
1.50988
1.4045
1.40007
0.665713
0.683964
0.769388
0.834697
0.976027
1.11786
1.23629
1.52841
1.93184
2.34396
2.40815
2.19818
1.67775
1.42546
1.4006
0.796902
0.685165
0.727033
0.819185
0.949682
1.03995
1.13752
1.39372
1.71298
2.15295
2.38103
2.32625
1.91252
1.48969
1.40359
1.05102
0.737328
0.732262
0.80008
0.91621
0.975399
1.08021
1.30942
1.53365
1.93153
2.2984
2.32612
2.12131
1.62619
1.41939
1.23952
0.894944
0.749626
0.781771
0.868634
0.920647
1.03335
1.24062
1.39844
1.71753
2.13633
2.31013
2.23835
1.83904
1.47197
1.3034
1.09448
0.80751
0.763623
0.800804
0.879501
1.01666
1.16635
1.29355
1.57342
1.95252
2.25987
2.25311
2.02235
1.59102
1.32842
1.26757
1.03906
0.810444
0.802579
0.851174
0.971852
1.0592
1.16339
1.3999
1.67412
2.04774
2.22219
2.1677
1.94197
1.19811
1.07517
0.958908
0.796561
0.710516
0.698766
0.70185
0.681752
0.678953
0.667715
0.63847
0.599684
0.593746
0.636785
0.857231
1.17103
1.23122
1.29965
1.35139
1.34311
0.948357
0.872901
0.780939
0.652373
0.622072
0.639008
0.649622
0.635367
0.627022
0.615507
0.580076
0.562433
0.611572
0.855073
1.14859
1.31319
1.28193
1.29752
1.34191
1.35034
0.735549
0.711045
0.651089
0.571007
0.557589
0.576154
0.593304
0.590291
0.582237
0.56745
0.542935
0.610078
0.865709
1.16063
1.28545
1.32487
1.31618
1.30198
1.32964
1.34861
0.557215
0.574226
0.534407
0.496533
0.503381
0.524349
0.525817
0.534193
0.540341
0.530066
0.620704
0.895535
1.13322
1.31709
1.3205
1.32496
1.32054
1.30677
1.31805
1.34234
0.429008
0.458854
0.461513
0.452564
0.45351
0.469579