/*--------------------------------*- C++ -*----------------------------------*\
  =========                 |
  \\      /  F ield         | OpenFOAM: The Open Source CFD Toolbox
   \\    /   O peration     | Website:  https://openfoam.org
    \\  /    A nd           | Version:  7
     \\/     M anipulation  |
\*---------------------------------------------------------------------------*/
FoamFile
{
    version     2.0;
    format      ascii;
    class       volScalarField;
    location    "6.7";
    object      T;
}
// * * * * * * * * * * * * * * * * * * * * * * * * * * * * * * * * * * * * * //

dimensions      [0 0 0 1 0 0 0];

internalField   nonuniform List<scalar> 
3700
(
100.741
100.887
100.933
100.955
100.935
100.893
100.893
100.95
101.051
101.11
101.123
101.122
101.112
101.099
101.085
101.091
101.115
101.12
101.117
101.11
100.331
100.357
100.425
100.497
100.481
100.426
100.441
100.552
100.712
100.75
100.736
100.664
100.566
100.479
100.436
100.448
100.483
100.537
100.593
100.594
100.332
100.221
100.141
100.013
99.9437
99.9512
99.986
100.044
100.056
100.051
100.023
99.9985
99.9743
99.9662
99.9699
99.9899
100.013
100.032
100.043
100.037
100.346
100.224
100.114
99.9478
99.8786
99.8879
99.9391
100.035
100.067
100.079
100.093
100.086
100.078
100.062
100.038
100.017
100.019
100.042
100.064
100.092
100.331
100.198
100.059
99.8796
99.8382
99.8534
99.9082
99.9801
100.018
100.065
100.105
100.11
100.126
100.13
100.128
100.109
100.079
100.065
100.069
100.118
100.223
100.121
99.9618
99.8472
99.8278
99.8489
99.9046
99.9623
99.9917
100.034
100.074
100.103
100.134
100.155
100.165
100.173
100.172
100.169
100.16
100.168
100.118
100.02
99.8635
99.8499
99.8637
99.9294
99.982
99.9874
99.997
100.034
100.062
100.087
100.124
100.152
100.174
100.199
100.22
100.234
100.238
100.258
100.044
99.9256
99.8325
99.8728
99.9368
100.036
100.093
100.097
100.107
100.123
100.117
100.128
100.137
100.153
100.175
100.208
100.244
100.277
100.294
100.331
99.9727
99.8679
99.8479
99.8929
99.9783
100.097
100.143
100.157
100.193
100.216
100.228
100.236
100.251
100.26
100.26
100.263
100.277
100.314
100.343
100.393
99.8981
99.8503
99.8801
99.9104
100.025
100.153
100.162
100.177
100.233
100.266
100.29
100.306
100.333
100.341
100.351
100.357
100.366
100.381
100.407
100.45
99.8237
99.8365
99.9086
99.9621
100.105
100.217
100.2
100.221
100.261
100.291
100.322
100.347
100.381
100.396
100.414
100.429
100.444
100.46
100.499
100.493
99.7438
99.7965
99.9273
99.9951
100.156
100.251
100.247
100.3
100.349
100.377
100.393
100.408
100.428
100.444
100.466
100.493
100.518
100.539
100.578
100.57
99.7011
99.7404
99.9226
100.047
100.215
100.295
100.33
100.39
100.436
100.476
100.491
100.506
100.517
100.529
100.544
100.566
100.592
100.618
100.655
100.655
99.7247
99.6932
99.9119
100.129
100.259
100.32
100.389
100.451
100.503
100.546
100.56
100.577
100.593
100.613
100.639
100.665
100.686
100.707
100.723
100.734
99.7244
99.6955
99.9184
100.158
100.284
100.339
100.449
100.518
100.578
100.609
100.627
100.645
100.666
100.695
100.729
100.755
100.773
100.783
100.779
100.775
99.711
99.7561
99.9345
100.123
100.346
100.534
100.614
100.664
100.705
100.721
100.73
100.743
100.763
100.79
100.814
100.824
100.821
100.813
100.788
100.745
99.536
99.7655
100.099
100.409
100.594
100.695
100.74
100.778
100.803
100.814
100.821
100.834
100.85
100.856
100.856
100.845
100.793
100.678
100.514
100.276
99.4386
99.9791
100.447
100.667
100.773
100.81
100.836
100.862
100.879
100.883
100.882
100.882
100.88
100.857
100.772
100.623
100.36
100.101
100.005
99.9978
100.119
100.532
100.744
100.837
100.881
100.9
100.917
100.925
100.921
100.91
100.894
100.838
100.721
100.468
100.147
100.01
99.9967
99.9985
99.9992
99.9998
100.697
100.836
100.912
100.948
100.956
100.95
100.951
100.931
100.847
100.765
100.578
100.236
100.03
99.9958
99.9977
99.9989
99.9998
100
100
100
100.999
100.996
100.993
100.987
100.976
100.949
100.883
100.462
99.8434
100
100
100
100
100
100
100
100
100
100
100
101
100.997
100.991
100.98
100.959
100.849
100.47
100.011
100
100
100
100
100
100
100
100
100
100
100
100
100.992
100.994
100.989
100.968
100.925
100.632
100.034
99.9995
100
100
100
100
100
100
100
100
100
100
100
100
100.985
100.992
100.988
100.949
100.804
100.267
99.9963
100
100
100
100
100
100
100
100
100
100
100
100
100
100.977
100.989
100.986
100.925
100.576
99.9918
100
100
100
100
100
100
100
100
100
100
100
100
100
100
100.972
100.983
100.979
100.83
100.225
100
100
100
100
100
100
100
100
100
100
100
100
100
100
100
100.971
100.978
100.963
100.691
99.9959
100
100
100
100
100
100
100
100
100
100
100
100
100
100
100
100.984
100.977
100.921
100.478
100
100
100
100
100
100
100
100
100
100
100
100
100
100
100
100
101.005
100.978
100.828
100.133
100
100
100
100
100
100
100
100
100
100
100
100
100
100
100
100
101.016
100.943
100.691
99.9964
100
100
100
100
100
100
100
100
100
100
100
100
100
100
100
100
101.024
100.908
100.501
100
100
100
100
100
100
100
100
100
100
100
100
100
100
100
100
100
101.027
100.853
100.312
100
100
100
100
100
100
100
100
100
100
100
100
100
100
100
100
100
101.03
100.794
100.117
100
100
100
100
100
100
100
100
100
100
100
100
100
100
100
100
100
101.024
100.726
100
100
100
100
100
100
100
100
100
100
100
100
100
100
100
100
100
100
101.013
100.663
100
100
100
100
100
100
100
100
100
100
100
100
100
100
100
100
100
100
100.993
100.591
100
100
100
100
100
100
100
100
100
100
100
100
100
100
100
100
100
100
100.959
100.441
100
100
100
100
100
100
100
100
100
100
100
100
100
100
100
100
100
100
100.899
100.215
100
100
100
100
100
100
100
100
100
100
100
100
100
100
100
100
100
100
100.855
100.004
100
100
100
100
100
100
100
100
100
100
100
100
100
100
100
100
100
100
100.815
100
100
100
100
100
100
100
100
100
100
100
100
100
100
100
100
100
100
100
100.816
100
100
100
100
100
100
100
100
100
100
100
100
100
100
100
100
100
100
100
100.857
100.004
100
100
100
100
100
100
100
100
100
100
100
100
100
100
100
100
100
100
100.897
100.211
100
100
100
100
100
100
100
100
100
100
100
100
100
100
100
100
100
100
100.956
100.437
100
100
100
100
100
100
100
100
100
100
100
100
100
100
100
100
100
100
100.994
100.592
100
100
100
100
100
100
100
100
100
100
100
100
100
100
100
100
100
100
101.014
100.667
100
100
100
100
100
100
100
100
100
100
100
100
100
100
100
100
100
100
101.026
100.725
100
100
100
100
100
100
100
100
100
100
100
100
100
100
100
100
100
100
101.03
100.793
100.116
100
100
100
100
100
100
100
100
100
100
100
100
100
100
100
100
100
101.027
100.852
100.312
100
100
100
100
100
100
100
100
100
100
100
100
100
100
100
100
100
101.023
100.908
100.499
100
100
100
100
100
100
100
100
100
100
100
100
100
100
100
100
100
101.015
100.942
100.689
99.9964
100
100
100
100
100
100
100
100
100
100
100
100
100
100
100
100
101.004
100.978
100.828
100.138
100
100
100
100
100
100
100
100
100
100
100
100
100
100
100
100
100.985
100.979
100.924
100.479
100
100
100
100
100
100
100
100
100
100
100
100
100
100
100
100
100.972
100.979
100.963
100.695
100
100
100
100
100
100
100
100
100
100
100
100
100
100
100
100
100.972
100.983
100.977
100.826
100.221
100
100
100
100
100
100
100
100
100
100
100
100
100
100
100
100.977
100.988
100.985
100.927
100.57
99.9919
100
100
100
100
100
100
100
100
100
100
100
100
100
100
100.985
100.991
100.988
100.949
100.806
100.274
99.9962
100
100
100
100
100
100
100
100
100
100
100
100
100
100.991
100.993
100.988
100.967
100.926
100.637
100.037
99.9994
100
100
100
100
100
100
100
100
100
100
100
100
100.999
100.997
100.991
100.979
100.961
100.85
100.468
100.01
100
100
100
100
100
100
100
100
100
100
100
100
100.999
100.997
100.994
100.988
100.978
100.948
100.881
100.457
99.8464
100
100
100
100
100
100
100
100
100
100
100
100.697
100.837
100.913
100.949
100.958
100.95
100.95
100.93
100.847
100.766
100.58
100.238
100.031
99.9958
99.9978
99.9989
99.9998
100
100
100
100.119
100.53
100.745
100.839
100.881
100.9
100.916
100.924
100.92
100.91
100.895
100.839
100.722
100.467
100.147
100.01
99.9966
99.9985
99.9992
99.9998
99.4328
100.006
100.455
100.669
100.775
100.81
100.835
100.861
100.878
100.883
100.882
100.882
100.88
100.857
100.772
100.624
100.361
100.102
100.005
99.9978
99.5034
99.7198
100.086
100.418
100.602
100.697
100.74
100.777
100.803
100.814
100.822
100.834
100.85
100.856
100.855
100.845
100.794
100.678
100.514
100.275
99.7093
99.738
99.8971
100.12
100.335
100.533
100.613
100.663
100.704
100.721
100.73
100.744
100.763
100.79
100.814
100.824
100.821
100.814
100.788
100.744
99.7852
99.7095
99.9036
100.161
100.274
100.336
100.446
100.517
100.578
100.611
100.628
100.646
100.666
100.694
100.729
100.755
100.773
100.783
100.779
100.774
99.8092
99.7155
99.9128
100.126
100.248
100.316
100.387
100.451
100.504
100.546
100.56
100.576
100.592
100.611
100.638
100.665
100.687
100.707
100.723
100.734
99.772
99.7946
99.9265
100.046
100.199
100.286
100.325
100.386
100.435
100.477
100.491
100.505
100.516
100.527
100.543
100.566
100.593
100.619
100.655
100.655
99.7546
99.8647
99.9519
99.9855
100.131
100.233
100.234
100.29
100.345
100.377
100.393
100.408
100.427
100.444
100.467
100.494
100.519
100.539
100.578
100.569
99.7738
99.8613
99.9401
99.9721
100.091
100.198
100.19
100.213
100.255
100.287
100.32
100.346
100.381
100.397
100.415
100.43
100.445
100.46
100.499
100.493
99.8307
99.8503
99.8963
99.932
100.035
100.149
100.164
100.181
100.233
100.266
100.291
100.307
100.334
100.343
100.351
100.358
100.366
100.381
100.407
100.45
99.9185
99.8597
99.8743
99.9122
99.9956
100.101
100.148
100.164
100.198
100.219
100.23
100.238
100.252
100.261
100.261
100.264
100.279
100.315
100.343
100.393
100.014
99.9106
99.8445
99.8877
99.9514
100.041
100.094
100.104
100.112
100.128
100.119
100.129
100.138
100.156
100.181
100.212
100.245
100.276
100.293
100.331
100.099
99.9888
99.8556
99.8519
99.8714
99.9336
99.9782
99.9889
99.9998
100.036
100.065
100.091
100.129
100.156
100.176
100.198
100.218
100.231
100.236
100.257
100.173
100.089
99.9391
99.8423
99.8215
99.8475
99.8994
99.9561
99.9906
100.034
100.08
100.108
100.137
100.156
100.161
100.167
100.166
100.165
100.157
100.165
100.247
100.165
100.058
99.8786
99.8301
99.8511
99.9022
99.9709
100.015
100.068
100.105
100.11
100.124
100.125
100.119
100.101
100.073
100.061
100.067
100.118
100.31
100.217
100.129
99.9712
99.869
99.8802
99.9314
100.018
100.055
100.074
100.089
100.08
100.069
100.05
100.026
100.013
100.019
100.045
100.066
100.093
100.315
100.222
100.161
100.056
99.9376
99.9341
99.9706
100.022
100.039
100.036
100.012
99.9887
99.9664
99.9618
99.9714
99.9966
100.02
100.036
100.045
100.04
100.303
100.228
100.196
100.128
100.151
100.371
100.43
100.347
100.256
100.322
100.496
100.603
100.607
100.591
100.569
100.529
100.459
100.35
100.295
100.289
100.632
100.749
100.813
100.799
100.808
100.884
100.929
100.918
100.907
100.959
101.069
101.12
101.12
101.115
101.107
101.092
101.076
101.035
100.993
101
101.05
101.014
101.002
100.99
100.966
100.942
100.908
100.885
100.879
100.876
100.872
100.864
100.852
100.841
100.837
100.834
100.824
100.815
100.807
100.798
100.578
100.613
100.691
100.731
100.771
100.799
100.799
100.8
100.803
100.806
100.807
100.806
100.803
100.799
100.798
100.796
100.791
100.784
100.779
100.775
100.022
100.052
100.17
100.272
100.42
100.513
100.578
100.63
100.648
100.658
100.674
100.683
100.691
100.698
100.702
100.703
100.706
100.708
100.71
100.714
100.082
100.091
100.096
100.093
100.11
100.203
100.369
100.461
100.495
100.522
100.551
100.567
100.575
100.586
100.593
100.597
100.604
100.611
100.618
100.629
100.133
100.137
100.124
100.124
100.131
100.137
100.172
100.266
100.377
100.436
100.465
100.495
100.506
100.513
100.516
100.52
100.526
100.532
100.538
100.55
100.183
100.183
100.175
100.162
100.161
100.17
100.175
100.174
100.21
100.288
100.377
100.441
100.469
100.479
100.479
100.48
100.483
100.485
100.488
100.496
100.241
100.237
100.21
100.185
100.187
100.199
100.205
100.208
100.207
100.193
100.238
100.347
100.427
100.456
100.458
100.458
100.46
100.457
100.459
100.466
100.307
100.289
100.263
100.23
100.217
100.224
100.232
100.231
100.225
100.208
100.183
100.214
100.323
100.4
100.434
100.443
100.441
100.438
100.444
100.447
100.368
100.345
100.316
100.278
100.253
100.252
100.251
100.246
100.237
100.221
100.192
100.175
100.198
100.297
100.378
100.42
100.415
100.421
100.432
100.431
100.429
100.403
100.373
100.329
100.29
100.269
100.266
100.258
100.245
100.231
100.21
100.18
100.176
100.187
100.269
100.359
100.383
100.409
100.419
100.415
100.528
100.446
100.413
100.386
100.334
100.296
100.283
100.273
100.26
100.25
100.234
100.211
100.191
100.176
100.177
100.221
100.308
100.364
100.376
100.38
100.621
100.537
100.467
100.44
100.403
100.362
100.328
100.293
100.268
100.256
100.242
100.227
100.21
100.189
100.163
100.156
100.169
100.22
100.275
100.32
100.609
100.59
100.535
100.476
100.431
100.386
100.352
100.31
100.282
100.278
100.264
100.242
100.222
100.199
100.174
100.154
100.142
100.129
100.141
100.219
100.488
100.547
100.542
100.513
100.471
100.418
100.381
100.346
100.312
100.292
100.267
100.236
100.211
100.19
100.172
100.154
100.134
100.113
100.097
100.105
100.251
100.375
100.445
100.481
100.474
100.45
100.407
100.367
100.325
100.29
100.26
100.224
100.206
100.192
100.18
100.164
100.144
100.118
100.092
100.073
100.043
100.145
100.253
100.335
100.389
100.416
100.405
100.38
100.343
100.303
100.275
100.243
100.216
100.196
100.172
100.148
100.124
100.101
100.084
100.062
100.002
100.015
100.065
100.154
100.233
100.291
100.329
100.348
100.34
100.314
100.282
100.25
100.214
100.186
100.157
100.13
100.113
100.101
100.09
100.067
100
100
100.003
100.025
100.078
100.149
100.208
100.249
100.279
100.291
100.281
100.261
100.229
100.198
100.17
100.141
100.123
100.108
100.088
100.056
100
100
100
100.001
100.006
100.03
100.081
100.139
100.187
100.216
100.24
100.245
100.236
100.215
100.187
100.157
100.128
100.103
100.08
100.049
100
100
100
100
100
100.001
100.008
100.033
100.078
100.128
100.169
100.192
100.21
100.209
100.201
100.183
100.156
100.126
100.101
100.069
100
100
100
100
100
100
100
100.001
100.008
100.032
100.073
100.118
100.154
100.174
100.186
100.184
100.178
100.161
100.137
100.098
100
100
100
100
100
100
100
100
100
100.002
100.008
100.028
100.065
100.108
100.14
100.159
100.168
100.167
100.162
100.139
100
100
100
100
100
100
100
100
100
100
100
100.001
100.007
100.024
100.057
100.096
100.129
100.146
100.154
100.151
100
100
100
100
100
100
100
100
100
100
100
100
100
100.001
100.006
100.02
100.047
100.085
100.114
100.138
100
100
100
100
100
100
100
100
100
100
100
100
100
100
100
100.001
100.004
100.016
100.041
100.105
100.598
100.652
100.609
100.416
100.143
100.017
100.001
100
100
100
100
100
100
100
100
100.672
100.662
100.518
100.218
100.022
100
100
100
100
100
100
100
100
100
100
100.705
100.636
100.373
100.073
100.002
100
100
100
100
100
100
100
100
100
100
100.719
100.518
100.167
100.009
100
100
100
100
100
100
100
100
100
100
100
100.652
100.285
100.024
100
100
100
100
100
100
100
100
100
100
100
100
100.396
100.039
100
100
100
100
100
100
100
100
100
100
100
100
100
100.042
100
100
100
100
100
100
100
100
100
100
100
100
100
100
99.9995
100
100
100
100
100
100
100
100
100
100
100
100
100
100
100
100
100
100
100
100
100
100
100
100
100
100
100
100
100
100
100
100
100
100
100
100
100
100
100
100
100
100
100
100
100
100
100
100
100
100
100
100
100
100
100
100
100
100
100
100
100
100
100
100
100
100
100
100
100
100
100
100
100
100
100
100
100
100
100
100
100
100
100
100
100
100
100
100
100
100
100
100
100
100
100
100
100
100
100
100
100
100
100
100
100
100
100
100
100
100
100
100
100
100
100
100
100
100
100
100
100
100
100
100
100
100
100
100
100
100
100
100
100
100
100
100
100
100
100
100
100
100
100
100
100
100
100
100
100
100
100
100
100
100
100
100
100
100
100
100
100
100
100
100
100
100
100
100
100
100
100
100
100
100
100
100
100
100
100
100
100
100
100
100
100
100
100
100
100
100
100
100
100
100
100
100
100
100
100
100
100
100
100
100
100
100
100
100
100
100
100
100
100
100
100
100
100
100
100
100
100
100
100
100
100
100
100
100
100
100
100
100
100
100
100
100
100
100
100
100
100
100
100
100
100
100
100
100
100
100
100
100
100
100
100
100
100
100
100
100
100
100
100
100
100
100
100
100
100
100
100
100
100
100
100
100
100
100
100
100
100
100
100
100
100
100
100
100
100
100
100
100
100
100
100
100
100
100
100
100
100
100
100
100
100
100
100
100
100
100
100
100
100
100
100
100
100
100
100
100
100
100
100
100
100
100
100
100
100
100
100
100
100
100
100
100
100
100
100
100
100
100
100
100
100
100
100
100
100
100
100
100
100
100
100
100
100
100
100
100
100
100
100
100
100
100
100
100
100
100
100
100
100
100
100
100
100
100
100
100
100
100
100
100
100
100
100
100
100
100
100
100
100
100
100
100
100
100
100
100
100
100
100
100
100
100
100
100
100
100
100
100
100
100
100
100
100
100
100
100
100
100
100
100
100
100
100
100
100
100
100
100
100
100
100
100
100
100
100
100
100
100
100
100
100
100
100
100
100
100
100
100
100
100
100
100
100
100
100
100
100
100
100
100
100
100
100
100
100
100
100
100
100
100
100
100
100
100
100
100
100
100
100
100
100
100
100
100
100
100
100
100
100
100
100
100
100
100
100
100
100
100
100
100
100
100
100
100
100
100
100
100
100
100
100
100
100
100
100
100
100
100
100
100
100
100
100
100
100
100
100
100
100
100
100
100
100
100
100
100
100
100
100
100
100
100
100
100
100
100
100
100
100
100
100
100
100
100
100
100
100
100
100
100
100
100
100
100
100
100
100
100
100
100
100
100
100
100
100
100
100
100
100
100
100
100
100
100
100
100
100
100
100
100
100
100
100
100
100
100
100
100
100
100
100
100
100
100
100
100
100
100
100
100
100
100
100
100
100
100
100
100
100
100
100
100
100
100
100
100
100
100
100
100
100
100
100
100
100
100
100
100
100
100
100
100
100
100
100
100
100
100
100
100
100
100
100
100
100
100
100
100
100
100
100
100
100
100
100
100
100
100
100
100
100
100
100
100
100
100
100
100
100
100
100
100
100
100
100
100
100
100
100
100
100
100
100
100
100
100
100
100
100
100
100
100
100
100
100
100
100
100
100
100
100
100
100
100
100
100
100
100
100
100
100
100
100
100
100
100
100
100
100
100
100
100
100
100
100
100
100
100
100
100
100
100
100
100
100
100
100
100
100
100
100
100
100
100
100
100
100
100
100
100
100
100
100
100
100
100
100
100
100
100
100
100
100
100
100
100
100
100
100
100
100
100
100
100
100
100
100
100
100
100
100
100
100
100
100
100
100
100
100
100
100
100
100
100
100
100
100
100
100
100
100
100
100
100
100
100
100
100
100
100
100
100
100
100
100
100
100
100
100
100
100
100
100
100
100
100
100
100
100
100
100
100
100
100
100
100
100
100
100
100
100
100
100
100
100
100
100
100
100
100
100
100
100
100
100
100
100
100
100
100
99.9995
100
100
100
100
100
100
100
100
100
100
100
100
100
100
100.042
100
100
100
100
100
100
100
100
100
100
100
100
100
100
100.396
100.039
100
100
100
100
100
100
100
100
100
100
100
100
100
100.652
100.285
100.024
100
100
100
100
100
100
100
100
100
100
100
100
100.719
100.518
100.167
100.009
100
100
100
100
100
100
100
100
100
100
100
100.705
100.636
100.373
100.074
100.002
100
100
100
100
100
100
100
100
100
100
100.671
100.662
100.518
100.218
100.022
100
100
100
100
100
100
100
100
100
100
100.597
100.652
100.609
100.416
100.142
100.017
100.001
100
100
100
100
100
100
100
100
100.528
100.621
100.609
100.488
100.251
100.043
100.002
100
100
100
100
100
100
100
100
100.448
100.536
100.589
100.547
100.375
100.145
100.015
100
100
100
100
100
100
100
100
100.415
100.471
100.535
100.541
100.445
100.253
100.065
100.003
100
100
100
100
100
100
100
100.386
100.441
100.476
100.514
100.482
100.335
100.154
100.025
100.001
100
100
100
100
100
100
100.332
100.403
100.429
100.471
100.475
100.389
100.233
100.077
100.006
100
100
100
100
100
100
100.295
100.364
100.386
100.414
100.45
100.416
100.291
100.149
100.03
100.001
100
100
100
100
100
100.282
100.327
100.355
100.382
100.406
100.404
100.329
100.208
100.081
100.008
100
100
100
100
100
100.273
100.29
100.314
100.351
100.367
100.379
100.348
100.249
100.139
100.033
100.001
100
100
100
100
100.263
100.268
100.278
100.31
100.326
100.344
100.34
100.279
100.187
100.078
100.008
100
100
100
100
100.253
100.255
100.273
100.29
100.29
100.303
100.315
100.29
100.216
100.128
100.032
100.002
100
100
100
100.236
100.24
100.262
100.267
100.258
100.273
100.283
100.281
100.24
100.169
100.073
100.008
100
100
100
100.213
100.225
100.24
100.239
100.229
100.24
100.249
100.26
100.245
100.192
100.118
100.028
100.001
100
100
100.193
100.209
100.22
100.212
100.21
100.218
100.214
100.229
100.236
100.21
100.154
100.065
100.007
100
100
100.175
100.189
100.198
100.19
100.194
100.198
100.187
100.198
100.215
100.209
100.174
100.108
100.024
100.001
100
100.18
100.167
100.174
100.171
100.179
100.173
100.158
100.169
100.187
100.201
100.186
100.14
100.057
100.006
100
100.229
100.154
100.15
100.154
100.162
100.146
100.132
100.144
100.157
100.183
100.184
100.159
100.096
100.02
100.001
100.312
100.169
100.141
100.135
100.143
100.122
100.114
100.125
100.128
100.156
100.178
100.168
100.129
100.047
100.004
100.361
100.222
100.133
100.117
100.117
100.101
100.098
100.108
100.103
100.125
100.161
100.167
100.146
100.085
100.016
100.372
100.275
100.145
100.1
100.092
100.083
100.088
100.087
100.08
100.101
100.137
100.162
100.154
100.114
100.041
100.379
100.319
100.219
100.106
100.072
100.061
100.066
100.055
100.048
100.069
100.098
100.139
100.151
100.138
100.105
100.429
100.403
100.373
100.327
100.29
100.271
100.265
100.253
100.247
100.237
100.217
100.188
100.177
100.186
100.276
100.37
100.386
100.405
100.417
100.414
100.367
100.345
100.316
100.274
100.252
100.252
100.25
100.241
100.234
100.222
100.196
100.175
100.195
100.291
100.381
100.422
100.415
100.42
100.431
100.432
100.307
100.289
100.262
100.229
100.22
100.226
100.231
100.228
100.221
100.205
100.18
100.21
100.314
100.404
100.433
100.442
100.439
100.436
100.443
100.447
100.241
100.237
100.209
100.185
100.189
100.2
100.202
100.206
100.203
100.191
100.234
100.341
100.411
100.459
100.459
100.458
100.457
100.455
100.458
100.465
100.183
100.185
100.175
100.16
100.16
100.17
100.174
100.175
100.206
100.286
100.374
100.432
100.468
100.481
100.48
100.481
100.483
100.486
100.489
100.497
100.135
100.136
100.128
100.127
100.135
100.139
100.174
100.266
100.372
100.436
100.463
100.49
100.509
100.516
100.518
100.52
100.528
100.536
100.543
100.552
100.083
100.083
100.086
100.09
100.108
100.207
100.377
100.463
100.493
100.521
100.551
100.567
100.577
100.585
100.59
100.597
100.607
100.618
100.625
100.633
100.02
100.094
100.199
100.276
100.408
100.515
100.588
100.635
100.646
100.656
100.674
100.685
100.691
100.697
100.7
100.702
100.709
100.715
100.72
100.72
100.578
100.672
100.718
100.735
100.765
100.799
100.805
100.802
100.801
100.804
100.81
100.81
100.806
100.799
100.796
100.794
100.793
100.791
100.787
100.779
101.051
101.034
101.011
100.993
100.965
100.946
100.913
100.886
100.877
100.879
100.879
100.873
100.858
100.842
100.837
100.834
100.828
100.82
100.81
100.799
)
;

boundaryField
{
    inlet
    {
        type            fixedValue;
        value           uniform 100;
    }
    outlet
    {
        type            inletOutlet;
        inletValue      uniform 100;
        value           nonuniform List<scalar> 
50
(
100.38
100.32
100.219
100.105
100.073
100.062
100.067
100.056
100.049
100.069
100.098
100.139
100.151
100.138
100.105
100.798
100.775
100.714
100.629
100.55
100.496
100.466
100.447
100.431
100.415
100.414
100.432
100.447
100.465
100.497
100.552
100.633
100.72
100.779
100.799
100.379
100.319
100.219
100.106
100.072
100.061
100.066
100.055
100.048
100.069
100.098
100.139
100.151
100.138
100.105
)
;
    }
    airfoil
    {
        type            zeroGradient;
    }
    top
    {
        type            symmetryPlane;
    }
    bottom
    {
        type            symmetryPlane;
    }
    defaultFaces
    {
        type            empty;
    }
}


// ************************************************************************* //
