/*--------------------------------*- C++ -*----------------------------------*\
  =========                 |
  \\      /  F ield         | OpenFOAM: The Open Source CFD Toolbox
   \\    /   O peration     | Website:  https://openfoam.org
    \\  /    A nd           | Version:  7
     \\/     M anipulation  |
\*---------------------------------------------------------------------------*/
FoamFile
{
    version     2.0;
    format      ascii;
    class       volVectorField;
    location    "5.7";
    object      U;
}
// * * * * * * * * * * * * * * * * * * * * * * * * * * * * * * * * * * * * * //

dimensions      [0 1 -1 0 0 0 0];

internalField   nonuniform List<vector> 
3700
(
(1.34659 -0.424613 0)
(1.3298 -0.539581 0)
(1.35759 -0.312543 0)
(1.46034 -0.362393 0)
(1.42097 -0.211649 0)
(1.43872 -0.0775035 0)
(1.4909 -0.057069 0)
(1.51298 -0.134721 0)
(1.56252 -0.318399 0)
(1.54079 -0.343989 0)
(1.49557 -0.269543 0)
(1.53344 -0.118611 0)
(1.62611 -0.107954 0)
(1.66744 -0.181116 0)
(1.71859 -0.251978 0)
(1.70038 -0.238771 0)
(1.67665 -0.180266 0)
(1.7005 -0.0799821 0)
(1.78592 -0.0719067 0)
(1.86343 -0.198433 0)
(1.91312 -1.25118 0)
(1.80545 -1.17966 0)
(1.83115 -1.03662 0)
(1.93457 -1.12667 0)
(1.89853 -1.14323 0)
(1.79781 -1.02649 0)
(1.76245 -0.992861 0)
(1.86058 -1.27518 0)
(1.91147 -1.67199 0)
(1.85584 -1.64055 0)
(1.78003 -1.51038 0)
(1.81989 -1.22307 0)
(1.98664 -1.14546 0)
(2.11974 -1.20979 0)
(2.17799 -1.21793 0)
(2.18125 -1.16869 0)
(2.16781 -1.06872 0)
(2.16741 -0.920869 0)
(2.23496 -0.929412 0)
(2.32844 -1.11605 0)
(1.79108 -1.25359 0)
(1.86308 -1.22841 0)
(1.95631 -1.26989 0)
(2.01289 -1.45389 0)
(1.99839 -1.84824 0)
(1.94329 -2.16414 0)
(1.98616 -2.23313 0)
(2.00133 -2.21717 0)
(2.03474 -2.1909 0)
(2.11347 -2.08317 0)
(2.10619 -2.13192 0)
(2.19382 -1.99732 0)
(2.25438 -1.93222 0)
(2.33053 -1.88716 0)
(2.41693 -1.81847 0)
(2.53493 -1.75765 0)
(2.63276 -1.68584 0)
(2.69913 -1.61833 0)
(2.72 -1.57562 0)
(2.68397 -1.58307 0)
(1.69273 -1.30086 0)
(1.7197 -1.36934 0)
(1.7538 -1.55805 0)
(1.75602 -1.86887 0)
(1.75108 -2.11195 0)
(1.82983 -2.252 0)
(1.92792 -2.23403 0)
(2.02638 -2.14272 0)
(2.09285 -2.10967 0)
(2.29805 -1.93941 0)
(2.31943 -1.97134 0)
(2.37727 -1.89403 0)
(2.38371 -1.85993 0)
(2.39176 -1.81932 0)
(2.4424 -1.71829 0)
(2.53429 -1.62693 0)
(2.60394 -1.49753 0)
(2.70408 -1.396 0)
(2.79517 -1.23432 0)
(2.85188 -1.17626 0)
(1.48139 -1.26638 0)
(1.5257 -1.46686 0)
(1.57846 -1.79184 0)
(1.58393 -2.10742 0)
(1.6037 -2.24421 0)
(1.6246 -2.25029 0)
(1.82568 -2.17749 0)
(2.02646 -1.87291 0)
(2.1272 -1.87581 0)
(2.33733 -1.84764 0)
(2.45445 -1.66225 0)
(2.5214 -1.6295 0)
(2.57195 -1.57241 0)
(2.54813 -1.61691 0)
(2.56428 -1.55927 0)
(2.56761 -1.5329 0)
(2.58223 -1.39506 0)
(2.63742 -1.32484 0)
(2.70569 -1.24267 0)
(2.81811 -0.999034 0)
(1.30339 -1.17089 0)
(1.37013 -1.50885 0)
(1.53816 -1.89524 0)
(1.54153 -2.20871 0)
(1.65011 -2.33277 0)
(1.85184 -2.22542 0)
(1.91797 -2.08503 0)
(1.99394 -1.91341 0)
(2.05477 -1.85094 0)
(2.26538 -1.75189 0)
(2.40646 -1.56712 0)
(2.58022 -1.51356 0)
(2.66702 -1.30491 0)
(2.69679 -1.26594 0)
(2.71322 -1.18176 0)
(2.70257 -1.21757 0)
(2.69026 -1.15748 0)
(2.67741 -1.08928 0)
(2.67904 -1.14343 0)
(2.72509 -0.958941 0)
(1.13876 -1.13784 0)
(1.24964 -1.63219 0)
(1.53554 -2.03642 0)
(1.69946 -2.34858 0)
(2.02364 -2.31239 0)
(2.11925 -2.24572 0)
(2.11405 -2.01558 0)
(2.07438 -1.90895 0)
(2.10157 -1.83658 0)
(2.21978 -1.76581 0)
(2.34991 -1.55084 0)
(2.51635 -1.47773 0)
(2.58032 -1.24871 0)
(2.7236 -1.16455 0)
(2.74874 -0.921706 0)
(2.77645 -0.799351 0)
(2.76206 -0.739865 0)
(2.76518 -0.661837 0)
(2.72375 -0.797452 0)
(2.70605 -0.722053 0)
(1.04686 -1.1889 0)
(1.24221 -1.86052 0)
(1.68391 -2.2092 0)
(2.02371 -2.40897 0)
(2.3206 -2.25294 0)
(2.42924 -2.12725 0)
(2.41246 -1.81366 0)
(2.35152 -1.74437 0)
(2.36698 -1.73875 0)
(2.39858 -1.67305 0)
(2.45267 -1.51101 0)
(2.52542 -1.3945 0)
(2.55951 -1.20056 0)
(2.6539 -1.12306 0)
(2.69157 -0.916293 0)
(2.75898 -0.768178 0)
(2.78926 -0.596861 0)
(2.80255 -0.391591 0)
(2.7519 -0.399067 0)
(2.70908 -0.407121 0)
(1.01918 -1.37555 0)
(1.38513 -2.12631 0)
(1.87418 -2.39934 0)
(2.1796 -2.40902 0)
(2.43231 -2.15447 0)
(2.47794 -1.98173 0)
(2.59512 -1.60537 0)
(2.65988 -1.49188 0)
(2.69508 -1.43138 0)
(2.71811 -1.28428 0)
(2.68974 -1.29602 0)
(2.70516 -1.10171 0)
(2.66508 -1.01114 0)
(2.68122 -0.918168 0)
(2.68532 -0.782798 0)
(2.70149 -0.668534 0)
(2.73901 -0.556336 0)
(2.74293 -0.357499 0)
(2.72952 -0.186203 0)
(2.68431 -0.115065 0)
(1.14661 -1.63128 0)
(1.55065 -2.31634 0)
(1.94792 -2.41609 0)
(2.13152 -2.31136 0)
(2.1554 -2.06504 0)
(2.23077 -1.8267 0)
(2.41741 -1.55267 0)
(2.51058 -1.4608 0)
(2.67815 -1.32631 0)
(2.73662 -0.925397 0)
(2.78499 -0.835587 0)
(2.786 -0.609018 0)
(2.76809 -0.572217 0)
(2.75457 -0.468246 0)
(2.73643 -0.412788 0)
(2.70529 -0.369239 0)
(2.68885 -0.343027 0)
(2.68886 -0.288964 0)
(2.64778 -0.109789 0)
(2.61926 0.0308556 0)
(1.28872 -1.7826 0)
(1.64997 -2.40777 0)
(1.86764 -2.32117 0)
(1.93285 -2.10246 0)
(2.03672 -1.94677 0)
(2.1523 -1.60472 0)
(2.24272 -1.51296 0)
(2.34013 -1.35433 0)
(2.41682 -1.25064 0)
(2.51649 -1.00432 0)
(2.64185 -0.801964 0)
(2.68285 -0.520385 0)
(2.71062 -0.32285 0)
(2.70566 -0.140274 0)
(2.67912 -0.000658669 0)
(2.65733 0.0355829 0)
(2.63214 0.0665442 0)
(2.62273 -0.0207743 0)
(2.55641 0.0914483 0)
(2.5849 0.0631737 0)
(1.30501 -1.78831 0)
(1.63233 -2.37073 0)
(1.7964 -2.13306 0)
(1.92988 -1.98047 0)
(2.09382 -1.83438 0)
(2.25934 -1.37368 0)
(2.23788 -1.42073 0)
(2.35892 -1.22992 0)
(2.43246 -1.01223 0)
(2.46677 -0.886914 0)
(2.54442 -0.693923 0)
(2.58364 -0.478371 0)
(2.61349 -0.284036 0)
(2.63577 -0.110942 0)
(2.58946 0.115344 0)
(2.57757 0.222713 0)
(2.52079 0.370879 0)
(2.49158 0.329174 0)
(2.44229 0.357375 0)
(2.47408 0.279618 0)
(1.25107 -1.75234 0)
(1.61373 -2.19441 0)
(1.88295 -1.89342 0)
(2.01865 -1.46517 0)
(2.14845 -1.45183 0)
(2.29689 -1.07863 0)
(2.4055 -1.08042 0)
(2.54858 -0.811836 0)
(2.57161 -0.474257 0)
(2.58473 -0.423051 0)
(2.59527 -0.236701 0)
(2.58744 -0.095498 0)
(2.56346 0.0308857 0)
(2.54385 0.126034 0)
(2.48976 0.255529 0)
(2.48353 0.306684 0)
(2.41551 0.441531 0)
(2.35481 0.54418 0)
(2.2953 0.606015 0)
(2.3041 0.558433 0)
(1.05168 -1.5781 0)
(1.72417 -1.89016 0)
(1.99582 -1.60055 0)
(1.97201 -1.05725 0)
(2.12818 -1.12705 0)
(2.43034 -0.794089 0)
(2.59541 -0.473801 0)
(2.61364 -0.157903 0)
(2.60354 -0.0655642 0)
(2.56737 0.108273 0)
(2.54604 0.241986 0)
(2.49526 0.381693 0)
(2.45124 0.471159 0)
(2.39489 0.554819 0)
(2.34726 0.587219 0)
(2.31858 0.584312 0)
(2.27458 0.616047 0)
(2.2345 0.66683 0)
(2.16357 0.764363 0)
(2.12919 0.797742 0)
(0.901821 -1.3027 0)
(1.69245 -1.78927 0)
(2.14344 -1.43471 0)
(2.21235 -0.617281 0)
(2.48181 -0.287771 0)
(2.45561 -0.692872 0)
(2.52259 -0.442972 0)
(2.50508 -0.0963055 0)
(2.47779 0.0296395 0)
(2.46194 0.211459 0)
(2.42433 0.395143 0)
(2.34966 0.57246 0)
(2.291 0.688226 0)
(2.20717 0.804492 0)
(2.15102 0.84826 0)
(2.11026 0.85942 0)
(2.07162 0.892737 0)
(2.07039 0.886575 0)
(2.042 0.919511 0)
(2.0597 0.950637 0)
(1.2236 -0.995996 0)
(1.58816 -1.78101 0)
(2.22987 -1.2099 0)
(2.41435 -0.365226 0)
(2.45066 -0.301835 0)
(2.45513 -0.256995 0)
(2.42724 0.0302415 0)
(2.38408 0.218082 0)
(2.32671 0.390342 0)
(2.30678 0.534074 0)
(2.21954 0.696182 0)
(2.15099 0.806962 0)
(2.09337 0.878364 0)
(2.02996 0.950313 0)
(1.98369 0.974209 0)
(1.94998 0.997296 0)
(1.95385 1.01951 0)
(1.96923 0.996834 0)
(1.9951 0.995343 0)
(2.07134 0.977778 0)
(1.48888 -0.495208 0)
(2.03764 -0.927658 0)
(2.2925 0.281728 0)
(2.28082 -0.091828 0)
(2.35079 -0.0431725 0)
(2.36195 0.301486 0)
(2.27957 0.572652 0)
(2.18427 0.724901 0)
(2.12893 0.796548 0)
(2.07016 0.918141 0)
(1.96743 1.01834 0)
(1.91519 1.06448 0)
(1.88729 1.0776 0)
(1.87035 1.0872 0)
(1.87141 1.05651 0)
(1.89602 1.04898 0)
(1.96196 1.02121 0)
(2.16376 0.902809 0)
(2.38016 0.792146 0)
(2.7779 0.441891 0)
(1.14156 -0.0771881 0)
(1.85716 -0.262629 0)
(2.24645 0.090122 0)
(2.23217 0.512465 0)
(2.20162 0.67219 0)
(2.1442 0.780305 0)
(2.05196 0.892265 0)
(1.96046 0.970678 0)
(1.9065 1.03694 0)
(1.84214 1.12769 0)
(1.78771 1.15805 0)
(1.79252 1.15037 0)
(1.81404 1.12879 0)
(1.85212 1.08585 0)
(2.03751 0.951908 0)
(2.25633 0.830002 0)
(2.66605 0.50281 0)
(3.03819 0.0895267 0)
(3.05537 -0.0244145 0)
(3.00403 -0.00469287 0)
(1.02751 0.0137831 0)
(1.91928 0.817544 0)
(2.08778 0.881455 0)
(2.00441 0.950826 0)
(1.9733 0.979932 0)
(1.87745 1.08606 0)
(1.78605 1.14564 0)
(1.75277 1.14665 0)
(1.74999 1.16302 0)
(1.72755 1.20622 0)
(1.71351 1.19836 0)
(1.87197 1.06958 0)
(2.10813 0.882922 0)
(2.50929 0.572324 0)
(2.98849 0.132618 0)
(3.07328 -0.0297655 0)
(3.00808 -0.00766948 0)
(3.00291 -0.00382645 0)
(3.00122 -0.00218979 0)
(3.00008 -0.000482201 0)
(1.16133 0.765476 0)
(1.8229 1.148 0)
(1.84225 1.13991 0)
(1.74654 1.18819 0)
(1.72037 1.20003 0)
(1.66869 1.24323 0)
(1.65361 1.21643 0)
(1.72035 1.16319 0)
(1.74351 1.23725 0)
(1.77164 1.15341 0)
(2.25698 0.75796 0)
(2.84776 0.221434 0)
(3.09429 -0.0242966 0)
(3.02043 -0.0121217 0)
(3.00458 -0.00539863 0)
(3.00189 -0.00302937 0)
(3.00006 -0.000602764 0)
(2.99998 -2.46363e-05 0)
(2.99999 1.43284e-05 0)
(3 5.91144e-06 0)
(1.57575 1.25213 0)
(1.58065 1.25733 0)
(1.59348 1.26461 0)
(1.6077 1.26347 0)
(1.62144 1.24889 0)
(1.60533 1.26197 0)
(1.88493 1.16121 0)
(2.97338 0.375628 0)
(3.37342 -0.643327 0)
(3 5.80957e-11 0)
(3 -7.21884e-11 0)
(3 8.07007e-11 0)
(3 2.47764e-15 0)
(3 -4.49828e-13 0)
(3 -1.4331e-14 0)
(3 1.81092e-14 0)
(3 -8.15821e-15 0)
(3 2.38981e-15 0)
(3 3.14704e-15 0)
(3 2.0071e-15 0)
(1.57529 1.24552 0)
(1.58914 1.25728 0)
(1.59926 1.26798 0)
(1.60442 1.26813 0)
(1.67524 1.24916 0)
(1.78469 1.20077 0)
(2.311 0.711028 0)
(3.00399 0.00494542 0)
(3 8.46965e-08 0)
(3 -5.05998e-11 0)
(3 2.05358e-13 0)
(3 -6.88321e-15 0)
(3 -2.6784e-15 0)
(3 2.45928e-16 0)
(3 1.67479e-15 0)
(3 2.60645e-15 0)
(3 3.43244e-15 0)
(3 1.7195e-15 0)
(3 2.6018e-15 0)
(3 2.881e-15 0)
(1.58106 1.25369 0)
(1.59814 1.25883 0)
(1.59854 1.26949 0)
(1.56888 1.29721 0)
(1.7382 1.19895 0)
(2.20392 0.81988 0)
(2.99399 0.00164516 0)
(3.00009 -0.000307038 0)
(3 4.32019e-07 0)
(3 5.93922e-11 0)
(3 -1.05054e-12 0)
(3 6.65981e-15 0)
(3 -1.45735e-15 0)
(3 4.42332e-16 0)
(3 1.89397e-15 0)
(3 2.30445e-15 0)
(3 3.02021e-15 0)
(3 1.61928e-15 0)
(3 2.50353e-15 0)
(3 2.50148e-15 0)
(1.58393 1.25722 0)
(1.60281 1.26442 0)
(1.62157 1.26987 0)
(1.57436 1.33707 0)
(1.83907 1.11301 0)
(2.70703 0.263349 0)
(3.00471 -0.000937519 0)
(2.99994 5.22373e-05 0)
(3 -6.6143e-07 0)
(3 8.3688e-10 0)
(3 -5.07586e-12 0)
(3 2.07077e-14 0)
(3 -1.82943e-15 0)
(3 -3.48446e-17 0)
(3 1.24534e-15 0)
(3 2.18529e-15 0)
(3 3.35882e-15 0)
(3 2.04855e-15 0)
(3 2.60175e-15 0)
(3 2.25598e-15 0)
(1.58713 1.27129 0)
(1.60567 1.26864 0)
(1.63718 1.2623 0)
(1.68042 1.22894 0)
(2.33222 0.646169 0)
(3.02228 -0.0208628 0)
(2.99972 9.84533e-05 0)
(3 -3.77788e-06 0)
(3 7.58274e-08 0)
(3 -8.53204e-10 0)
(3 4.98371e-12 0)
(3 -2.49761e-14 0)
(3 -1.8268e-15 0)
(3 -6.82728e-16 0)
(3 7.85134e-16 0)
(3 2.19815e-15 0)
(3 2.14212e-15 0)
(3 2.0188e-15 0)
(3 2.30124e-15 0)
(3 1.56004e-15 0)
(1.5873 1.28624 0)
(1.58865 1.28022 0)
(1.64887 1.24213 0)
(1.88923 1.07341 0)
(2.75246 0.211357 0)
(3 -5.89097e-10 0)
(3 1.34283e-08 0)
(3 -1.2027e-08 0)
(3 5.0211e-10 0)
(3 1.42587e-12 0)
(3 -1.14191e-13 0)
(3 -6.32285e-17 0)
(3 -2.92868e-15 0)
(3 -1.35451e-15 0)
(3 4.33086e-16 0)
(3 1.86456e-15 0)
(3 2.16025e-15 0)
(3 1.65338e-15 0)
(3 2.15379e-15 0)
(3 1.08273e-15 0)
(1.58563 1.29596 0)
(1.54919 1.28576 0)
(1.65865 1.23087 0)
(2.09146 0.851636 0)
(3.02045 -0.0154652 0)
(3 -9.88011e-12 0)
(3 7.17987e-12 0)
(3 3.44235e-12 0)
(3 -2.63976e-12 0)
(3 1.9543e-14 0)
(3 1.02428e-16 0)
(3 -1.34078e-15 0)
(3 -1.8965e-15 0)
(3 -2.14234e-15 0)
(3 -4.74101e-17 0)
(3 1.17002e-15 0)
(3 2.09769e-15 0)
(3 1.85303e-15 0)
(3 1.45869e-15 0)
(3 1.36796e-15 0)
(1.58151 1.3217 0)
(1.50104 1.32268 0)
(1.75028 1.19126 0)
(2.40935 0.554231 0)
(3 -3.19608e-08 0)
(3 4.31621e-11 0)
(3 -1.66904e-13 0)
(3 -1.41351e-14 0)
(3 5.93855e-15 0)
(3 -4.46968e-16 0)
(3 -6.13336e-17 0)
(3 5.15928e-16 0)
(3 -8.32353e-16 0)
(3 -9.7868e-16 0)
(3 -1.33814e-16 0)
(3 9.22628e-16 0)
(3 2.27246e-15 0)
(3 1.43375e-15 0)
(3 1.43209e-15 0)
(3 1.72849e-15 0)
(1.5835 1.30444 0)
(1.47161 1.33543 0)
(1.99404 1.0412 0)
(2.88557 0.12353 0)
(3 -1.20534e-09 0)
(3 2.42231e-12 0)
(3 1.85382e-15 0)
(3 -1.44342e-15 0)
(3 -1.12084e-15 0)
(3 -6.83267e-16 0)
(3 2.61655e-16 0)
(3 2.40871e-16 0)
(3 -5.05417e-16 0)
(3 -6.74355e-16 0)
(3 5.53839e-17 0)
(3 1.41444e-15 0)
(3 1.40931e-15 0)
(3 1.15074e-15 0)
(3 1.01224e-15 0)
(3 7.78537e-16 0)
(1.60344 1.29682 0)
(1.48276 1.39956 0)
(2.10546 0.867029 0)
(3.01131 -0.00942524 0)
(3 7.48087e-09 0)
(3 -1.77375e-11 0)
(3 9.05068e-15 0)
(3 -1.78267e-15 0)
(3 -1.40109e-15 0)
(3 -9.04498e-16 0)
(3 4.61844e-16 0)
(3 8.71187e-16 0)
(3 5.66985e-16 0)
(3 1.10542e-15 0)
(3 1.65974e-15 0)
(3 2.02216e-15 0)
(3 1.82124e-15 0)
(3 1.68659e-15 0)
(3 2.02146e-15 0)
(3 4.6197e-16 0)
(1.62007 1.28093 0)
(1.57929 1.30844 0)
(2.42957 0.525119 0)
(3 3.43507e-13 0)
(3 -5.56823e-12 0)
(3 9.43712e-14 0)
(3 -4.49606e-15 0)
(3 -3.10527e-15 0)
(3 -2.96117e-15 0)
(3 -1.85077e-15 0)
(3 -6.54965e-16 0)
(3 -4.69999e-17 0)
(3 9.66581e-16 0)
(3 1.71011e-15 0)
(3 2.05994e-15 0)
(3 2.32343e-15 0)
(3 3.39292e-15 0)
(3 3.3877e-15 0)
(3 2.23447e-15 0)
(3 1.66675e-15 0)
(1.63494 1.26758 0)
(1.649 1.23385 0)
(2.65385 0.285394 0)
(3 4.09503e-13 0)
(3 9.03269e-15 0)
(3 -3.29918e-15 0)
(3 -4.58582e-15 0)
(3 -4.97049e-15 0)
(3 -4.15085e-15 0)
(3 -3.24496e-15 0)
(3 -2.79704e-15 0)
(3 -2.3144e-15 0)
(3 -1.26527e-15 0)
(3 1.96156e-16 0)
(3 1.55524e-15 0)
(3 3.56886e-15 0)
(3 3.72359e-15 0)
(3 5.12422e-15 0)
(3 4.91516e-15 0)
(3 4.83505e-15 0)
(1.65623 1.2413 0)
(1.79159 1.10277 0)
(2.86831 0.0917688 0)
(3 -8.18334e-13 0)
(3 -3.0553e-15 0)
(3 -4.77534e-15 0)
(3 -6.91723e-15 0)
(3 -7.36429e-15 0)
(3 -7.17383e-15 0)
(3 -5.36294e-15 0)
(3 -4.56056e-15 0)
(3 -3.35167e-15 0)
(3 -2.70427e-15 0)
(3 -1.70397e-15 0)
(3 -1.11049e-15 0)
(3 -1.33071e-16 0)
(3 5.63313e-16 0)
(3 1.80509e-15 0)
(3 3.40458e-15 0)
(3 3.08756e-15 0)
(1.69045 1.19571 0)
(1.92878 0.962353 0)
(2.99953 0.000140045 0)
(3 -6.65017e-16 0)
(3 -3.89537e-15 0)
(3 -7.42128e-15 0)
(3 -8.64614e-15 0)
(3 -8.60118e-15 0)
(3 -8.25618e-15 0)
(3 -7.92465e-15 0)
(3 -7.17128e-15 0)
(3 -4.6917e-15 0)
(3 -3.03964e-15 0)
(3 -1.66167e-15 0)
(3 -1.41057e-15 0)
(3 -1.38068e-15 0)
(3 -1.01279e-15 0)
(3 -1.02757e-15 0)
(3 5.57095e-17 0)
(3 2.00547e-15 0)
(1.7085 1.15989 0)
(2.04876 0.832826 0)
(3 -2.06826e-15 0)
(3 -3.84723e-15 0)
(3 -5.5761e-15 0)
(3 -6.75068e-15 0)
(3 -7.65852e-15 0)
(3 -7.69397e-15 0)
(3 -7.32852e-15 0)
(3 -6.82341e-15 0)
(3 -6.58583e-15 0)
(3 -6.18192e-15 0)
(3 -5.31015e-15 0)
(3 -3.97985e-15 0)
(3 -3.26392e-15 0)
(3 -3.69987e-15 0)
(3 -3.71819e-15 0)
(3 -2.85536e-15 0)
(3 -1.70142e-15 0)
(3 -1.29515e-15 0)
(1.72856 1.10827 0)
(2.19966 0.663524 0)
(3 -1.76224e-15 0)
(3 -3.10786e-15 0)
(3 -5.61783e-15 0)
(3 -6.14158e-15 0)
(3 -7.37195e-15 0)
(3 -7.83663e-15 0)
(3 -8.24327e-15 0)
(3 -8.41884e-15 0)
(3 -8.61896e-15 0)
(3 -8.40152e-15 0)
(3 -7.97881e-15 0)
(3 -7.35594e-15 0)
(3 -5.72876e-15 0)
(3 -5.28671e-15 0)
(3 -4.52299e-15 0)
(3 -3.87467e-15 0)
(3 -3.39824e-15 0)
(3 -2.59901e-15 0)
(1.83829 1.01913 0)
(2.44155 0.450046 0)
(3 -3.97824e-17 0)
(3 -1.60869e-15 0)
(3 -3.67094e-15 0)
(3 -4.32449e-15 0)
(3 -5.50284e-15 0)
(3 -6.45908e-15 0)
(3 -6.84025e-15 0)
(3 -7.35397e-15 0)
(3 -7.77924e-15 0)
(3 -8.09019e-15 0)
(3 -7.87533e-15 0)
(3 -7.14578e-15 0)
(3 -6.56597e-15 0)
(3 -5.52601e-15 0)
(3 -4.82463e-15 0)
(3 -3.79999e-15 0)
(3 -4.02342e-15 0)
(3 -3.73162e-15 0)
(1.95904 0.866991 0)
(2.73546 0.192035 0)
(3 2.98829e-15 0)
(3 2.13652e-15 0)
(3 1.3353e-16 0)
(3 -2.64945e-15 0)
(3 -3.88156e-15 0)
(3 -4.01247e-15 0)
(3 -3.80077e-15 0)
(3 -3.7774e-15 0)
(3 -4.11744e-15 0)
(3 -4.16042e-15 0)
(3 -4.15675e-15 0)
(3 -4.09033e-15 0)
(3 -3.84374e-15 0)
(3 -3.65367e-15 0)
(3 -3.27077e-15 0)
(3 -3.24659e-15 0)
(3 -3.26119e-15 0)
(3 -2.60026e-15 0)
(2.09356 0.643104 0)
(2.99277 0.000143058 0)
(3 3.99955e-15 0)
(3 3.43723e-15 0)
(3 2.92609e-15 0)
(3 -3.53767e-16 0)
(3 -1.81831e-15 0)
(3 -2.05616e-15 0)
(3 -2.15622e-15 0)
(3 -1.85917e-15 0)
(3 -1.90275e-15 0)
(3 -1.96927e-15 0)
(3 -2.24943e-15 0)
(3 -2.63286e-15 0)
(3 -2.61246e-15 0)
(3 -2.99902e-15 0)
(3 -3.12591e-15 0)
(3 -3.03913e-15 0)
(3 -3.15259e-15 0)
(3 -3.11276e-15 0)
(1.99255 0.379326 0)
(2.99989 -1.69646e-05 0)
(3 4.77399e-15 0)
(3 4.96053e-15 0)
(3 5.15549e-15 0)
(3 4.01184e-15 0)
(3 1.31442e-15 0)
(3 6.16977e-16 0)
(3 6.64974e-16 0)
(3 4.54309e-16 0)
(3 1.1957e-16 0)
(3 -1.67521e-16 0)
(3 -4.79761e-16 0)
(3 -8.21522e-16 0)
(3 -8.00204e-16 0)
(3 -7.45677e-16 0)
(3 -8.82386e-16 0)
(3 -1.09089e-15 0)
(3 -2.26711e-15 0)
(3 -3.28686e-15 0)
(1.99216 -0.378611 0)
(2.99988 2.24219e-05 0)
(3 1.04362e-15 0)
(3 2.2814e-15 0)
(3 2.5208e-15 0)
(3 2.24163e-15 0)
(3 2.52416e-15 0)
(3 2.98763e-15 0)
(3 2.94631e-15 0)
(3 2.36724e-15 0)
(3 1.90474e-15 0)
(3 1.60486e-15 0)
(3 1.46117e-15 0)
(3 1.49244e-15 0)
(3 1.05821e-15 0)
(3 9.67756e-16 0)
(3 1.2344e-16 0)
(3 -4.25604e-16 0)
(3 -8.60145e-16 0)
(3 -1.24333e-15 0)
(2.08891 -0.644638 0)
(2.99291 -0.000123471 0)
(3 -1.15545e-15 0)
(3 -6.82399e-16 0)
(3 1.63506e-16 0)
(3 4.29993e-16 0)
(3 1.99098e-15 0)
(3 2.29787e-15 0)
(3 1.85157e-15 0)
(3 1.50679e-15 0)
(3 1.07555e-15 0)
(3 9.78816e-16 0)
(3 7.16563e-16 0)
(3 3.26218e-16 0)
(3 -8.15818e-16 0)
(3 -1.9683e-15 0)
(3 -2.42105e-15 0)
(3 -3.01572e-15 0)
(3 -3.43823e-15 0)
(3 -3.94664e-15 0)
(1.95752 -0.864719 0)
(2.73788 -0.189943 0)
(3 -2.0965e-15 0)
(3 -1.42903e-15 0)
(3 -1.28949e-15 0)
(3 -1.05574e-15 0)
(3 -7.1461e-16 0)
(3 -2.7295e-16 0)
(3 -3.39449e-16 0)
(3 -8.16672e-16 0)
(3 -1.09435e-15 0)
(3 -1.27376e-15 0)
(3 -1.51553e-15 0)
(3 -1.96487e-15 0)
(3 -2.50557e-15 0)
(3 -2.73555e-15 0)
(3 -2.87757e-15 0)
(3 -2.79518e-15 0)
(3 -2.9292e-15 0)
(3 -3.24123e-15 0)
(1.84282 -1.02009 0)
(2.44608 -0.448026 0)
(3 -9.4614e-16 0)
(3 -1.17931e-15 0)
(3 -8.37266e-16 0)
(3 -2.56741e-16 0)
(3 3.51512e-16 0)
(3 9.36385e-16 0)
(3 8.99705e-16 0)
(3 6.45484e-16 0)
(3 3.37043e-16 0)
(3 -2.89362e-17 0)
(3 -1.59408e-16 0)
(3 -2.43043e-16 0)
(3 -1.32618e-16 0)
(3 -4.12243e-18 0)
(3 -9.38028e-18 0)
(3 1.05247e-16 0)
(3 -5.65328e-18 0)
(3 1.65967e-16 0)
(1.73115 -1.1076 0)
(2.20076 -0.662223 0)
(3 -7.34346e-16 0)
(3 -2.60017e-16 0)
(3 -1.54615e-16 0)
(3 6.73799e-17 0)
(3 1.86282e-16 0)
(3 4.44072e-16 0)
(3 6.38384e-16 0)
(3 3.17313e-16 0)
(3 2.6066e-16 0)
(3 -1.61043e-16 0)
(3 -3.31884e-16 0)
(3 -2.86458e-16 0)
(3 -3.01726e-16 0)
(3 -4.67334e-16 0)
(3 -7.88776e-16 0)
(3 -1.15412e-15 0)
(3 -1.23601e-15 0)
(3 -7.63553e-16 0)
(1.70355 -1.16174 0)
(2.04351 -0.835243 0)
(3 -8.30144e-16 0)
(3 -5.77765e-16 0)
(3 7.98358e-17 0)
(3 4.1176e-16 0)
(3 6.56305e-16 0)
(3 7.58277e-16 0)
(3 7.64033e-16 0)
(3 4.79157e-16 0)
(3 2.98059e-16 0)
(3 -4.77056e-16 0)
(3 -6.46681e-16 0)
(3 -8.32093e-16 0)
(3 -1.49899e-15 0)
(3 -1.70598e-15 0)
(3 -1.75021e-15 0)
(3 -7.04764e-16 0)
(3 -2.79717e-16 0)
(3 -1.38232e-16 0)
(1.69115 -1.19508 0)
(1.92934 -0.963209 0)
(2.99969 -8.78887e-05 0)
(3 -3.29265e-15 0)
(3 -1.39959e-16 0)
(3 -9.93505e-17 0)
(3 -1.89964e-16 0)
(3 6.18697e-17 0)
(3 6.25939e-17 0)
(3 -7.68464e-17 0)
(3 -2.84706e-16 0)
(3 -8.8524e-16 0)
(3 -6.31218e-16 0)
(3 1.27417e-16 0)
(3 4.44999e-16 0)
(3 -1.57325e-16 0)
(3 -2.45041e-16 0)
(3 2.76103e-16 0)
(3 1.0094e-15 0)
(3 1.11985e-15 0)
(1.6569 -1.24068 0)
(1.79264 -1.10315 0)
(2.86883 -0.0915036 0)
(3 8.52564e-13 0)
(3 -1.98397e-16 0)
(3 -1.42631e-16 0)
(3 -2.72904e-16 0)
(3 -4.20795e-16 0)
(3 -6.27316e-16 0)
(3 -1.14467e-15 0)
(3 -1.44995e-15 0)
(3 -1.71921e-15 0)
(3 -1.92778e-15 0)
(3 -6.52849e-16 0)
(3 -6.82629e-16 0)
(3 -7.94453e-16 0)
(3 -1.12935e-15 0)
(3 -8.31769e-16 0)
(3 -1.16822e-15 0)
(3 -1.30153e-15 0)
(1.63501 -1.26712 0)
(1.64572 -1.23574 0)
(2.6538 -0.285966 0)
(3 -4.04805e-13 0)
(3 -1.19093e-14 0)
(3 -4.35034e-16 0)
(3 -3.01264e-16 0)
(3 -1.48396e-15 0)
(3 -1.86584e-15 0)
(3 -1.98303e-15 0)
(3 -1.80468e-15 0)
(3 -1.97961e-15 0)
(3 -1.382e-15 0)
(3 -1.20717e-15 0)
(3 -1.1812e-15 0)
(3 -1.04987e-15 0)
(3 -2.43538e-16 0)
(3 1.98646e-16 0)
(3 -1.04124e-16 0)
(3 -2.69334e-16 0)
(1.62032 -1.28091 0)
(1.58261 -1.30629 0)
(2.43374 -0.520953 0)
(3 -4.25446e-13 0)
(3 5.66201e-12 0)
(3 -9.16217e-14 0)
(3 2.45591e-16 0)
(3 -2.7231e-15 0)
(3 -1.96694e-15 0)
(3 -8.10009e-16 0)
(3 -9.80616e-16 0)
(3 -4.88336e-16 0)
(3 -5.03795e-16 0)
(3 3.27512e-16 0)
(3 6.65178e-16 0)
(3 9.20629e-16 0)
(3 -2.33529e-16 0)
(3 1.87249e-16 0)
(3 2.05642e-15 0)
(3 2.10781e-15 0)
(1.60438 -1.29702 0)
(1.48449 -1.39855 0)
(2.10674 -0.863371 0)
(3.01139 0.00952617 0)
(3 -7.25581e-09 0)
(3 1.6894e-11 0)
(3 -9.60444e-15 0)
(3 -2.11915e-15 0)
(3 -1.28614e-15 0)
(3 -4.80882e-16 0)
(3 -1.64792e-16 0)
(3 4.21749e-16 0)
(3 6.39732e-16 0)
(3 1.26582e-15 0)
(3 2.0476e-15 0)
(3 2.03405e-15 0)
(3 1.39892e-15 0)
(3 2.54618e-15 0)
(3 3.23994e-15 0)
(3 2.41452e-15 0)
(1.58478 -1.30564 0)
(1.4713 -1.33744 0)
(1.98302 -1.04299 0)
(2.87979 -0.127238 0)
(3 1.13883e-09 0)
(3 -1.73804e-12 0)
(3 -8.31807e-15 0)
(3 -1.38474e-15 0)
(3 -1.24256e-15 0)
(3 -4.55212e-16 0)
(3 3.264e-16 0)
(3 1.34713e-15 0)
(3 2.27958e-15 0)
(3 2.00054e-15 0)
(3 2.27048e-15 0)
(3 2.4315e-15 0)
(3 2.25027e-15 0)
(3 1.96486e-15 0)
(3 1.90614e-15 0)
(3 2.22281e-15 0)
(1.57999 -1.32108 0)
(1.50189 -1.32186 0)
(1.75833 -1.19015 0)
(2.4172 -0.552009 0)
(3 1.76897e-08 0)
(3 -4.0968e-11 0)
(3 1.52105e-13 0)
(3 1.36742e-14 0)
(3 -7.45137e-15 0)
(3 1.16005e-15 0)
(3 1.97926e-15 0)
(3 2.22162e-15 0)
(3 3.27257e-15 0)
(3 2.00474e-15 0)
(3 2.64426e-15 0)
(3 2.90683e-15 0)
(3 1.77906e-15 0)
(3 8.00635e-16 0)
(3 8.58476e-16 0)
(3 1.2568e-15 0)
(1.58473 -1.2947 0)
(1.54842 -1.28396 0)
(1.65447 -1.2363 0)
(2.08222 -0.86172 0)
(3.01667 0.0116202 0)
(3 8.90823e-12 0)
(3 -6.1616e-12 0)
(3 -3.80705e-12 0)
(3 2.89485e-12 0)
(3 -2.28999e-14 0)
(3 2.37526e-15 0)
(3 3.92282e-15 0)
(3 3.38311e-15 0)
(3 1.84559e-15 0)
(3 3.09112e-15 0)
(3 2.31234e-15 0)
(3 1.36988e-15 0)
(3 3.30394e-16 0)
(3 6.23782e-16 0)
(3 7.331e-16 0)
(1.58696 -1.28533 0)
(1.58776 -1.27777 0)
(1.64763 -1.2395 0)
(1.88483 -1.07405 0)
(2.75784 -0.20801 0)
(3 5.88718e-10 0)
(3 -1.35795e-08 0)
(3 1.21829e-08 0)
(3 -5.13505e-10 0)
(3 -1.63931e-12 0)
(3 9.42778e-14 0)
(3 3.39316e-15 0)
(3 3.97716e-15 0)
(3 2.91843e-15 0)
(3 8.82537e-16 0)
(3 6.74354e-16 0)
(3 -5.33987e-17 0)
(3 1.49811e-16 0)
(3 3.20072e-16 0)
(3 3.46518e-16 0)
(1.58785 -1.27115 0)
(1.60712 -1.2671 0)
(1.63803 -1.26004 0)
(1.70018 -1.21754 0)
(2.34028 -0.639742 0)
(3.02203 0.0206756 0)
(2.99972 -0.000120649 0)
(3 3.91825e-06 0)
(3 -7.78744e-08 0)
(3 8.57539e-10 0)
(3 -1.73235e-13 0)
(3 2.40651e-15 0)
(3 2.69359e-15 0)
(3 5.52426e-17 0)
(3 -6.36328e-16 0)
(3 9.31751e-17 0)
(3 -1.28281e-16 0)
(3 5.50121e-17 0)
(3 4.87856e-16 0)
(3 6.70483e-16 0)
(1.58494 -1.25761 0)
(1.60449 -1.2642 0)
(1.62315 -1.26979 0)
(1.57623 -1.33598 0)
(1.82818 -1.1191 0)
(2.7002 -0.267262 0)
(3.00499 0.00142338 0)
(2.99993 -5.74461e-05 0)
(3 6.70229e-07 0)
(3 -8.37589e-10 0)
(3 1.20068e-14 0)
(3 1.84607e-15 0)
(3 -4.77406e-16 0)
(3 -1.04768e-15 0)
(3 -2.97043e-16 0)
(3 -8.50524e-18 0)
(3 -4.37723e-16 0)
(3 8.07392e-16 0)
(3 1.65454e-16 0)
(3 6.08695e-16 0)
(1.58171 -1.25439 0)
(1.59811 -1.25936 0)
(1.59736 -1.27064 0)
(1.56628 -1.3005 0)
(1.73772 -1.20402 0)
(2.1993 -0.830185 0)
(2.99128 -0.00445183 0)
(3.00014 0.000368313 0)
(3 -4.41962e-07 0)
(3 -6.00233e-11 0)
(3 7.44687e-14 0)
(3 1.51364e-15 0)
(3 -9.3763e-16 0)
(3 -1.37059e-15 0)
(3 -1.50563e-16 0)
(3 -6.09815e-16 0)
(3 -4.01356e-16 0)
(3 1.81081e-16 0)
(3 4.08496e-16 0)
(3 5.16116e-16 0)
(1.57521 -1.24662 0)
(1.58886 -1.25814 0)
(1.59734 -1.26858 0)
(1.60008 -1.26664 0)
(1.6722 -1.24468 0)
(1.7822 -1.20428 0)
(2.31786 -0.710556 0)
(3.00416 -0.00504738 0)
(3 -7.95364e-08 0)
(3 4.05214e-11 0)
(3 2.60862e-14 0)
(3 -2.69774e-15 0)
(3 1.65969e-15 0)
(3 -3.1218e-15 0)
(3 -4.09321e-16 0)
(3 -8.16179e-16 0)
(3 -2.06609e-16 0)
(3 -3.09002e-16 0)
(3 1.14863e-16 0)
(3 3.72005e-16 0)
(1.57537 -1.25235 0)
(1.58054 -1.25803 0)
(1.59215 -1.26438 0)
(1.60546 -1.2628 0)
(1.62247 -1.24799 0)
(1.60839 -1.26141 0)
(1.88837 -1.15925 0)
(2.97572 -0.367779 0)
(3.36646 0.630268 0)
(3 -6.61493e-11 0)
(3 7.77605e-11 0)
(3 -8.0016e-11 0)
(3 -5.13147e-15 0)
(3 4.15089e-13 0)
(3 1.31037e-14 0)
(3 -1.68402e-14 0)
(3 1.10192e-14 0)
(3 5.97858e-16 0)
(3 1.43236e-15 0)
(3 3.00304e-15 0)
(1.16655 -0.753236 0)
(1.81673 -1.15741 0)
(1.84368 -1.13836 0)
(1.74617 -1.18671 0)
(1.71773 -1.20061 0)
(1.66897 -1.2438 0)
(1.65504 -1.21638 0)
(1.72213 -1.16284 0)
(1.74617 -1.23501 0)
(1.77256 -1.15132 0)
(2.25692 -0.756752 0)
(2.84776 -0.221017 0)
(3.09426 0.0242346 0)
(3.02044 0.012113 0)
(3.00457 0.00538962 0)
(3.00189 0.00302596 0)
(3.00006 0.000601442 0)
(2.99998 2.46835e-05 0)
(2.99999 -1.43529e-05 0)
(3 -5.91707e-06 0)
(1.03203 -0.00988406 0)
(1.92346 -0.798113 0)
(2.08363 -0.890324 0)
(2.00232 -0.950797 0)
(1.97804 -0.971469 0)
(1.87617 -1.08387 0)
(1.78619 -1.14566 0)
(1.75349 -1.14661 0)
(1.75034 -1.16317 0)
(1.72731 -1.20621 0)
(1.71235 -1.19879 0)
(1.87055 -1.07059 0)
(2.10809 -0.883524 0)
(2.51004 -0.572448 0)
(2.98893 -0.132476 0)
(3.07336 0.0298699 0)
(3.0081 0.00768788 0)
(3.00292 0.00383411 0)
(3.00123 0.00219322 0)
(3.00008 0.000482223 0)
(1.11822 0.041475 0)
(1.85861 0.230317 0)
(2.25277 -0.100886 0)
(2.23824 -0.519789 0)
(2.19812 -0.698177 0)
(2.14346 -0.785907 0)
(2.05313 -0.890883 0)
(1.96142 -0.969042 0)
(1.90691 -1.03616 0)
(1.84208 -1.12739 0)
(1.78704 -1.1583 0)
(1.79218 -1.15085 0)
(1.81425 -1.12919 0)
(1.85261 -1.08604 0)
(2.03775 -0.951918 0)
(2.25605 -0.830141 0)
(2.66542 -0.503506 0)
(3.03798 -0.0900431 0)
(3.05546 0.0243925 0)
(3.00405 0.00469906 0)
(1.38736 0.475202 0)
(1.90605 0.777053 0)
(2.28442 0.0312173 0)
(2.28549 0.0722655 0)
(2.34628 0.0522382 0)
(2.35866 -0.300722 0)
(2.27902 -0.575486 0)
(2.18359 -0.728634 0)
(2.12894 -0.797324 0)
(2.06866 -0.919227 0)
(1.96669 -1.01933 0)
(1.91454 -1.06582 0)
(1.88682 -1.07884 0)
(1.87043 -1.08782 0)
(1.87138 -1.05663 0)
(1.89591 -1.04907 0)
(1.96179 -1.02135 0)
(2.16398 -0.902763 0)
(2.38041 -0.792232 0)
(2.77774 -0.442145 0)
(1.37571 1.25717 0)
(1.51132 1.78121 0)
(2.12999 0.667258 0)
(2.33734 0.637848 0)
(2.44831 0.333807 0)
(2.45237 0.252671 0)
(2.42516 -0.0287016 0)
(2.38256 -0.219528 0)
(2.32489 -0.393077 0)
(2.30554 -0.53629 0)
(2.21657 -0.699776 0)
(2.14946 -0.809355 0)
(2.0933 -0.878664 0)
(2.03092 -0.948971 0)
(1.98515 -0.972271 0)
(1.95048 -0.996304 0)
(1.95401 -1.01945 0)
(1.969 -0.997115 0)
(1.99487 -0.995581 0)
(2.07137 -0.977736 0)
(1.12061 1.44146 0)
(1.67643 1.92062 0)
(2.06985 1.54794 0)
(2.25847 0.86559 0)
(2.54153 0.247589 0)
(2.45376 0.693793 0)
(2.51262 0.44157 0)
(2.49927 0.11265 0)
(2.47396 -0.0150651 0)
(2.45939 -0.196555 0)
(2.42234 -0.382483 0)
(2.35117 -0.560077 0)
(2.29449 -0.678298 0)
(2.20991 -0.798354 0)
(2.15229 -0.847416 0)
(2.10977 -0.861357 0)
(2.06937 -0.897139 0)
(2.0682 -0.889893 0)
(2.04258 -0.919616 0)
(2.06031 -0.949816 0)
(1.1603 1.64836 0)
(1.8578 1.9066 0)
(2.02632 1.8049 0)
(2.08784 1.07167 0)
(2.18852 1.08027 0)
(2.46775 0.785155 0)
(2.61743 0.456204 0)
(2.62125 0.15295 0)
(2.60885 0.084117 0)
(2.56912 -0.102572 0)
(2.54884 -0.237528 0)
(2.49593 -0.384334 0)
(2.45179 -0.47745 0)
(2.39279 -0.566799 0)
(2.34579 -0.598321 0)
(2.31524 -0.594652 0)
(2.2732 -0.620165 0)
(2.23805 -0.661774 0)
(2.16619 -0.758269 0)
(2.12946 -0.795586 0)
(1.36055 1.7904 0)
(1.72906 2.09121 0)
(1.93129 1.95997 0)
(2.1112 1.34877 0)
(2.21041 1.49217 0)
(2.29352 1.06012 0)
(2.40485 1.05448 0)
(2.5592 0.771064 0)
(2.57991 0.443111 0)
(2.59125 0.392001 0)
(2.60054 0.212547 0)
(2.59201 0.0755879 0)
(2.56625 -0.0457548 0)
(2.54515 -0.135517 0)
(2.49087 -0.255696 0)
(2.48299 -0.299859 0)
(2.41943 -0.424211 0)
(2.35756 -0.535416 0)
(2.2948 -0.607246 0)
(2.30141 -0.563016 0)
(1.50688 1.91491 0)
(1.64514 2.29771 0)
(1.7624 2.07495 0)
(1.9015 1.87399 0)
(2.0612 1.82804 0)
(2.24863 1.3307 0)
(2.22271 1.42516 0)
(2.3554 1.22953 0)
(2.43652 1.00095 0)
(2.46823 0.887894 0)
(2.54162 0.695347 0)
(2.58055 0.487389 0)
(2.60734 0.29539 0)
(2.63451 0.131585 0)
(2.58848 -0.096042 0)
(2.58138 -0.204764 0)
(2.52253 -0.366764 0)
(2.48758 -0.343811 0)
(2.4392 -0.366509 0)
(2.4718 -0.284956 0)
(1.54061 1.92862 0)
(1.70624 2.36289 0)
(1.81945 2.1548 0)
(1.84487 2.04733 0)
(2.00711 1.89627 0)
(2.11567 1.62725 0)
(2.21755 1.5068 0)
(2.31732 1.34988 0)
(2.39464 1.24064 0)
(2.49256 1.03279 0)
(2.61911 0.82759 0)
(2.67026 0.555499 0)
(2.70224 0.343372 0)
(2.70571 0.156942 0)
(2.67629 -0.0040884 0)
(2.65548 -0.0474078 0)
(2.63053 -0.0932239 0)
(2.61983 0.00469486 0)
(2.55572 -0.0923446 0)
(2.58589 -0.055021 0)
(1.49686 1.88317 0)
(1.73972 2.34828 0)
(1.95792 2.26896 0)
(2.02001 2.21948 0)
(2.08829 2.01492 0)
(2.16726 1.82819 0)
(2.37217 1.53425 0)
(2.45638 1.46571 0)
(2.62711 1.34882 0)
(2.70651 0.949007 0)
(2.76984 0.824917 0)
(2.77797 0.592638 0)
(2.76561 0.543867 0)
(2.75448 0.441083 0)
(2.7398 0.388163 0)
(2.70883 0.351388 0)
(2.68759 0.327368 0)
(2.68848 0.298232 0)
(2.64573 0.128933 0)
(2.61873 -0.0223686 0)
(1.33513 1.70434 0)
(1.67253 2.27283 0)
(2.00476 2.34584 0)
(2.15756 2.38789 0)
(2.36591 2.12355 0)
(2.43033 1.96479 0)
(2.56831 1.57033 0)
(2.6374 1.48353 0)
(2.7015 1.4203 0)
(2.73215 1.2384 0)
(2.71039 1.27433 0)
(2.72355 1.07077 0)
(2.67794 1.00017 0)
(2.68739 0.905186 0)
(2.68834 0.782249 0)
(2.69671 0.670801 0)
(2.73115 0.572311 0)
(2.74073 0.390091 0)
(2.72812 0.199436 0)
(2.68639 0.110288 0)
(1.19518 1.46491 0)
(1.50309 2.09623 0)
(1.85233 2.34379 0)
(2.1097 2.40698 0)
(2.35342 2.21604 0)
(2.45218 2.1353 0)
(2.43239 1.78089 0)
(2.37293 1.71684 0)
(2.3977 1.70726 0)
(2.42608 1.64897 0)
(2.46688 1.51472 0)
(2.53263 1.38874 0)
(2.56051 1.20849 0)
(2.64502 1.13019 0)
(2.68356 0.937331 0)
(2.74724 0.79044 0)
(2.78792 0.625885 0)
(2.80422 0.405323 0)
(2.7627 0.380487 0)
(2.71683 0.387969 0)
(1.20489 1.30935 0)
(1.39287 1.90581 0)
(1.63807 2.21129 0)
(1.81581 2.37285 0)
(2.13099 2.28265 0)
(2.16099 2.25594 0)
(2.15327 2.01964 0)
(2.10534 1.88456 0)