# Probe 0 (0 0 0)
#       Probe             0
#        Time
       0.0002             (-1.79769e+307 -1.79769e+307 -1.79769e+307)
       0.0004             (-1.79769e+307 -1.79769e+307 -1.79769e+307)
       0.0006             (-1.79769e+307 -1.79769e+307 -1.79769e+307)
       0.0008             (-1.79769e+307 -1.79769e+307 -1.79769e+307)
        0.001             (-1.79769e+307 -1.79769e+307 -1.79769e+307)
       0.0012             (-1.79769e+307 -1.79769e+307 -1.79769e+307)
       0.0014             (-1.79769e+307 -1.79769e+307 -1.79769e+307)
       0.0016             (-1.79769e+307 -1.79769e+307 -1.79769e+307)
       0.0018             (-1.79769e+307 -1.79769e+307 -1.79769e+307)
        0.002             (-1.79769e+307 -1.79769e+307 -1.79769e+307)
       0.0022             (-1.79769e+307 -1.79769e+307 -1.79769e+307)
       0.0024             (-1.79769e+307 -1.79769e+307 -1.79769e+307)
       0.0026             (-1.79769e+307 -1.79769e+307 -1.79769e+307)
       0.0028             (-1.79769e+307 -1.79769e+307 -1.79769e+307)
        0.003             (-1.79769e+307 -1.79769e+307 -1.79769e+307)
       0.0032             (-1.79769e+307 -1.79769e+307 -1.79769e+307)
       0.0034             (-1.79769e+307 -1.79769e+307 -1.79769e+307)
       0.0036             (-1.79769e+307 -1.79769e+307 -1.79769e+307)
       0.0038             (-1.79769e+307 -1.79769e+307 -1.79769e+307)
        0.004             (-1.79769e+307 -1.79769e+307 -1.79769e+307)
       0.0042             (-1.79769e+307 -1.79769e+307 -1.79769e+307)
       0.0044             (-1.79769e+307 -1.79769e+307 -1.79769e+307)
       0.0046             (-1.79769e+307 -1.79769e+307 -1.79769e+307)
       0.0048             (-1.79769e+307 -1.79769e+307 -1.79769e+307)
        0.005             (-1.79769e+307 -1.79769e+307 -1.79769e+307)
       0.0052             (-1.79769e+307 -1.79769e+307 -1.79769e+307)
       0.0054             (-1.79769e+307 -1.79769e+307 -1.79769e+307)
       0.0056             (-1.79769e+307 -1.79769e+307 -1.79769e+307)
       0.0058             (-1.79769e+307 -1.79769e+307 -1.79769e+307)
        0.006             (-1.79769e+307 -1.79769e+307 -1.79769e+307)
       0.0062             (-1.79769e+307 -1.79769e+307 -1.79769e+307)
       0.0064             (-1.79769e+307 -1.79769e+307 -1.79769e+307)
       0.0066             (-1.79769e+307 -1.79769e+307 -1.79769e+307)
       0.0068             (-1.79769e+307 -1.79769e+307 -1.79769e+307)
        0.007             (-1.79769e+307 -1.79769e+307 -1.79769e+307)
       0.0072             (-1.79769e+307 -1.79769e+307 -1.79769e+307)
       0.0074             (-1.79769e+307 -1.79769e+307 -1.79769e+307)
       0.0076             (-1.79769e+307 -1.79769e+307 -1.79769e+307)
       0.0078             (-1.79769e+307 -1.79769e+307 -1.79769e+307)
        0.008             (-1.79769e+307 -1.79769e+307 -1.79769e+307)
       0.0082             (-1.79769e+307 -1.79769e+307 -1.79769e+307)
       0.0084             (-1.79769e+307 -1.79769e+307 -1.79769e+307)
       0.0086             (-1.79769e+307 -1.79769e+307 -1.79769e+307)
       0.0088             (-1.79769e+307 -1.79769e+307 -1.79769e+307)
        0.009             (-1.79769e+307 -1.79769e+307 -1.79769e+307)
       0.0092             (-1.79769e+307 -1.79769e+307 -1.79769e+307)
       0.0094             (-1.79769e+307 -1.79769e+307 -1.79769e+307)
       0.0096             (-1.79769e+307 -1.79769e+307 -1.79769e+307)
       0.0098             (-1.79769e+307 -1.79769e+307 -1.79769e+307)
         0.01             (-1.79769e+307 -1.79769e+307 -1.79769e+307)
       0.0102             (-1.79769e+307 -1.79769e+307 -1.79769e+307)
       0.0104             (-1.79769e+307 -1.79769e+307 -1.79769e+307)
       0.0106             (-1.79769e+307 -1.79769e+307 -1.79769e+307)
       0.0108             (-1.79769e+307 -1.79769e+307 -1.79769e+307)
        0.011             (-1.79769e+307 -1.79769e+307 -1.79769e+307)
       0.0112             (-1.79769e+307 -1.79769e+307 -1.79769e+307)
       0.0114             (-1.79769e+307 -1.79769e+307 -1.79769e+307)
       0.0116             (-1.79769e+307 -1.79769e+307 -1.79769e+307)
       0.0118             (-1.79769e+307 -1.79769e+307 -1.79769e+307)
        0.012             (-1.79769e+307 -1.79769e+307 -1.79769e+307)
       0.0122             (-1.79769e+307 -1.79769e+307 -1.79769e+307)
       0.0124             (-1.79769e+307 -1.79769e+307 -1.79769e+307)
       0.0126             (-1.79769e+307 -1.79769e+307 -1.79769e+307)
       0.0128             (-1.79769e+307 -1.79769e+307 -1.79769e+307)
        0.013             (-1.79769e+307 -1.79769e+307 -1.79769e+307)
       0.0132             (-1.79769e+307 -1.79769e+307 -1.79769e+307)
       0.0134             (-1.79769e+307 -1.79769e+307 -1.79769e+307)
       0.0136             (-1.79769e+307 -1.79769e+307 -1.79769e+307)
       0.0138             (-1.79769e+307 -1.79769e+307 -1.79769e+307)
        0.014             (-1.79769e+307 -1.79769e+307 -1.79769e+307)
       0.0142             (-1.79769e+307 -1.79769e+307 -1.79769e+307)
       0.0144             (-1.79769e+307 -1.79769e+307 -1.79769e+307)
       0.0146             (-1.79769e+307 -1.79769e+307 -1.79769e+307)
       0.0148             (-1.79769e+307 -1.79769e+307 -1.79769e+307)
        0.015             (-1.79769e+307 -1.79769e+307 -1.79769e+307)
       0.0152             (-1.79769e+307 -1.79769e+307 -1.79769e+307)
       0.0154             (-1.79769e+307 -1.79769e+307 -1.79769e+307)
       0.0156             (-1.79769e+307 -1.79769e+307 -1.79769e+307)
       0.0158             (-1.79769e+307 -1.79769e+307 -1.79769e+307)
        0.016             (-1.79769e+307 -1.79769e+307 -1.79769e+307)
       0.0162             (-1.79769e+307 -1.79769e+307 -1.79769e+307)
       0.0164             (-1.79769e+307 -1.79769e+307 -1.79769e+307)
       0.0166             (-1.79769e+307 -1.79769e+307 -1.79769e+307)
       0.0168             (-1.79769e+307 -1.79769e+307 -1.79769e+307)
        0.017             (-1.79769e+307 -1.79769e+307 -1.79769e+307)
       0.0172             (-1.79769e+307 -1.79769e+307 -1.79769e+307)
       0.0174             (-1.79769e+307 -1.79769e+307 -1.79769e+307)
       0.0176             (-1.79769e+307 -1.79769e+307 -1.79769e+307)
       0.0178             (-1.79769e+307 -1.79769e+307 -1.79769e+307)
        0.018             (-1.79769e+307 -1.79769e+307 -1.79769e+307)
       0.0182             (-1.79769e+307 -1.79769e+307 -1.79769e+307)
       0.0184             (-1.79769e+307 -1.79769e+307 -1.79769e+307)
       0.0186             (-1.79769e+307 -1.79769e+307 -1.79769e+307)
       0.0188             (-1.79769e+307 -1.79769e+307 -1.79769e+307)
        0.019             (-1.79769e+307 -1.79769e+307 -1.79769e+307)
       0.0192             (-1.79769e+307 -1.79769e+307 -1.79769e+307)
       0.0194             (-1.79769e+307 -1.79769e+307 -1.79769e+307)
       0.0196             (-1.79769e+307 -1.79769e+307 -1.79769e+307)
       0.0198             (-1.79769e+307 -1.79769e+307 -1.79769e+307)
         0.02             (-1.79769e+307 -1.79769e+307 -1.79769e+307)
       0.0202             (-1.79769e+307 -1.79769e+307 -1.79769e+307)
       0.0204             (-1.79769e+307 -1.79769e+307 -1.79769e+307)
       0.0206             (-1.79769e+307 -1.79769e+307 -1.79769e+307)
       0.0208             (-1.79769e+307 -1.79769e+307 -1.79769e+307)
        0.021             (-1.79769e+307 -1.79769e+307 -1.79769e+307)
       0.0212             (-1.79769e+307 -1.79769e+307 -1.79769e+307)
       0.0214             (-1.79769e+307 -1.79769e+307 -1.79769e+307)
       0.0216             (-1.79769e+307 -1.79769e+307 -1.79769e+307)
       0.0218             (-1.79769e+307 -1.79769e+307 -1.79769e+307)
        0.022             (-1.79769e+307 -1.79769e+307 -1.79769e+307)
       0.0222             (-1.79769e+307 -1.79769e+307 -1.79769e+307)
       0.0224             (-1.79769e+307 -1.79769e+307 -1.79769e+307)
       0.0226             (-1.79769e+307 -1.79769e+307 -1.79769e+307)
       0.0228             (-1.79769e+307 -1.79769e+307 -1.79769e+307)
        0.023             (-1.79769e+307 -1.79769e+307 -1.79769e+307)
       0.0232             (-1.79769e+307 -1.79769e+307 -1.79769e+307)
       0.0234             (-1.79769e+307 -1.79769e+307 -1.79769e+307)
       0.0236             (-1.79769e+307 -1.79769e+307 -1.79769e+307)
       0.0238             (-1.79769e+307 -1.79769e+307 -1.79769e+307)
        0.024             (-1.79769e+307 -1.79769e+307 -1.79769e+307)
       0.0242             (-1.79769e+307 -1.79769e+307 -1.79769e+307)
       0.0244             (-1.79769e+307 -1.79769e+307 -1.79769e+307)
       0.0246             (-1.79769e+307 -1.79769e+307 -1.79769e+307)
       0.0248             (-1.79769e+307 -1.79769e+307 -1.79769e+307)
        0.025             (-1.79769e+307 -1.79769e+307 -1.79769e+307)
       0.0252             (-1.79769e+307 -1.79769e+307 -1.79769e+307)
       0.0254             (-1.79769e+307 -1.79769e+307 -1.79769e+307)
       0.0256             (-1.79769e+307 -1.79769e+307 -1.79769e+307)
       0.0258             (-1.79769e+307 -1.79769e+307 -1.79769e+307)
        0.026             (-1.79769e+307 -1.79769e+307 -1.79769e+307)
       0.0262             (-1.79769e+307 -1.79769e+307 -1.79769e+307)
       0.0264             (-1.79769e+307 -1.79769e+307 -1.79769e+307)
       0.0266             (-1.79769e+307 -1.79769e+307 -1.79769e+307)
       0.0268             (-1.79769e+307 -1.79769e+307 -1.79769e+307)
        0.027             (-1.79769e+307 -1.79769e+307 -1.79769e+307)
       0.0272             (-1.79769e+307 -1.79769e+307 -1.79769e+307)
       0.0274             (-1.79769e+307 -1.79769e+307 -1.79769e+307)
       0.0276             (-1.79769e+307 -1.79769e+307 -1.79769e+307)
       0.0278             (-1.79769e+307 -1.79769e+307 -1.79769e+307)
        0.028             (-1.79769e+307 -1.79769e+307 -1.79769e+307)
       0.0282             (-1.79769e+307 -1.79769e+307 -1.79769e+307)
       0.0284             (-1.79769e+307 -1.79769e+307 -1.79769e+307)
       0.0286             (-1.79769e+307 -1.79769e+307 -1.79769e+307)
       0.0288             (-1.79769e+307 -1.79769e+307 -1.79769e+307)
        0.029             (-1.79769e+307 -1.79769e+307 -1.79769e+307)
       0.0292             (-1.79769e+307 -1.79769e+307 -1.79769e+307)
       0.0294             (-1.79769e+307 -1.79769e+307 -1.79769e+307)
       0.0296             (-1.79769e+307 -1.79769e+307 -1.79769e+307)
       0.0298             (-1.79769e+307 -1.79769e+307 -1.79769e+307)
         0.03             (-1.79769e+307 -1.79769e+307 -1.79769e+307)
       0.0302             (-1.79769e+307 -1.79769e+307 -1.79769e+307)
       0.0304             (-1.79769e+307 -1.79769e+307 -1.79769e+307)
       0.0306             (-1.79769e+307 -1.79769e+307 -1.79769e+307)
       0.0308             (-1.79769e+307 -1.79769e+307 -1.79769e+307)
        0.031             (-1.79769e+307 -1.79769e+307 -1.79769e+307)
       0.0312             (-1.79769e+307 -1.79769e+307 -1.79769e+307)
       0.0314             (-1.79769e+307 -1.79769e+307 -1.79769e+307)
       0.0316             (-1.79769e+307 -1.79769e+307 -1.79769e+307)
       0.0318             (-1.79769e+307 -1.79769e+307 -1.79769e+307)
        0.032             (-1.79769e+307 -1.79769e+307 -1.79769e+307)
       0.0322             (-1.79769e+307 -1.79769e+307 -1.79769e+307)
       0.0324             (-1.79769e+307 -1.79769e+307 -1.79769e+307)
       0.0326             (-1.79769e+307 -1.79769e+307 -1.79769e+307)
       0.0328             (-1.79769e+307 -1.79769e+307 -1.79769e+307)
        0.033             (-1.79769e+307 -1.79769e+307 -1.79769e+307)
       0.0332             (-1.79769e+307 -1.79769e+307 -1.79769e+307)
       0.0334             (-1.79769e+307 -1.79769e+307 -1.79769e+307)
       0.0336             (-1.79769e+307 -1.79769e+307 -1.79769e+307)
       0.0338             (-1.79769e+307 -1.79769e+307 -1.79769e+307)
        0.034             (-1.79769e+307 -1.79769e+307 -1.79769e+307)
       0.0342             (-1.79769e+307 -1.79769e+307 -1.79769e+307)
       0.0344             (-1.79769e+307 -1.79769e+307 -1.79769e+307)
       0.0346             (-1.79769e+307 -1.79769e+307 -1.79769e+307)
       0.0348             (-1.79769e+307 -1.79769e+307 -1.79769e+307)
        0.035             (-1.79769e+307 -1.79769e+307 -1.79769e+307)
       0.0352             (-1.79769e+307 -1.79769e+307 -1.79769e+307)
       0.0354             (-1.79769e+307 -1.79769e+307 -1.79769e+307)
       0.0356             (-1.79769e+307 -1.79769e+307 -1.79769e+307)
       0.0358             (-1.79769e+307 -1.79769e+307 -1.79769e+307)
        0.036             (-1.79769e+307 -1.79769e+307 -1.79769e+307)
       0.0362             (-1.79769e+307 -1.79769e+307 -1.79769e+307)
       0.0364             (-1.79769e+307 -1.79769e+307 -1.79769e+307)
       0.0366             (-1.79769e+307 -1.79769e+307 -1.79769e+307)
       0.0368             (-1.79769e+307 -1.79769e+307 -1.79769e+307)
        0.037             (-1.79769e+307 -1.79769e+307 -1.79769e+307)
       0.0372             (-1.79769e+307 -1.79769e+307 -1.79769e+307)
       0.0374             (-1.79769e+307 -1.79769e+307 -1.79769e+307)
       0.0376             (-1.79769e+307 -1.79769e+307 -1.79769e+307)
       0.0378             (-1.79769e+307 -1.79769e+307 -1.79769e+307)
        0.038             (-1.79769e+307 -1.79769e+307 -1.79769e+307)
       0.0382             (-1.79769e+307 -1.79769e+307 -1.79769e+307)
       0.0384             (-1.79769e+307 -1.79769e+307 -1.79769e+307)
       0.0386             (-1.79769e+307 -1.79769e+307 -1.79769e+307)
       0.0388             (-1.79769e+307 -1.79769e+307 -1.79769e+307)
        0.039             (-1.79769e+307 -1.79769e+307 -1.79769e+307)
       0.0392             (-1.79769e+307 -1.79769e+307 -1.79769e+307)
       0.0394             (-1.79769e+307 -1.79769e+307 -1.79769e+307)
       0.0396             (-1.79769e+307 -1.79769e+307 -1.79769e+307)
       0.0398             (-1.79769e+307 -1.79769e+307 -1.79769e+307)
         0.04             (-1.79769e+307 -1.79769e+307 -1.79769e+307)
       0.0402             (-1.79769e+307 -1.79769e+307 -1.79769e+307)
       0.0404             (-1.79769e+307 -1.79769e+307 -1.79769e+307)
       0.0406             (-1.79769e+307 -1.79769e+307 -1.79769e+307)
       0.0408             (-1.79769e+307 -1.79769e+307 -1.79769e+307)
        0.041             (-1.79769e+307 -1.79769e+307 -1.79769e+307)
       0.0412             (-1.79769e+307 -1.79769e+307 -1.79769e+307)
       0.0414             (-1.79769e+307 -1.79769e+307 -1.79769e+307)
       0.0416             (-1.79769e+307 -1.79769e+307 -1.79769e+307)
       0.0418             (-1.79769e+307 -1.79769e+307 -1.79769e+307)
        0.042             (-1.79769e+307 -1.79769e+307 -1.79769e+307)
       0.0422             (-1.79769e+307 -1.79769e+307 -1.79769e+307)
       0.0424             (-1.79769e+307 -1.79769e+307 -1.79769e+307)
       0.0426             (-1.79769e+307 -1.79769e+307 -1.79769e+307)
       0.0428             (-1.79769e+307 -1.79769e+307 -1.79769e+307)
        0.043             (-1.79769e+307 -1.79769e+307 -1.79769e+307)
       0.0432             (-1.79769e+307 -1.79769e+307 -1.79769e+307)
       0.0434             (-1.79769e+307 -1.79769e+307 -1.79769e+307)
       0.0436             (-1.79769e+307 -1.79769e+307 -1.79769e+307)
       0.0438             (-1.79769e+307 -1.79769e+307 -1.79769e+307)
        0.044             (-1.79769e+307 -1.79769e+307 -1.79769e+307)
       0.0442             (-1.79769e+307 -1.79769e+307 -1.79769e+307)
       0.0444             (-1.79769e+307 -1.79769e+307 -1.79769e+307)
       0.0446             (-1.79769e+307 -1.79769e+307 -1.79769e+307)
       0.0448             (-1.79769e+307 -1.79769e+307 -1.79769e+307)
        0.045             (-1.79769e+307 -1.79769e+307 -1.79769e+307)
       0.0452             (-1.79769e+307 -1.79769e+307 -1.79769e+307)
       0.0454             (-1.79769e+307 -1.79769e+307 -1.79769e+307)
       0.0456             (-1.79769e+307 -1.79769e+307 -1.79769e+307)
       0.0458             (-1.79769e+307 -1.79769e+307 -1.79769e+307)
        0.046             (-1.79769e+307 -1.79769e+307 -1.79769e+307)
       0.0462             (-1.79769e+307 -1.79769e+307 -1.79769e+307)
       0.0464             (-1.79769e+307 -1.79769e+307 -1.79769e+307)
       0.0466             (-1.79769e+307 -1.79769e+307 -1.79769e+307)
       0.0468             (-1.79769e+307 -1.79769e+307 -1.79769e+307)
        0.047             (-1.79769e+307 -1.79769e+307 -1.79769e+307)
       0.0472             (-1.79769e+307 -1.79769e+307 -1.79769e+307)
       0.0474             (-1.79769e+307 -1.79769e+307 -1.79769e+307)
       0.0476             (-1.79769e+307 -1.79769e+307 -1.79769e+307)
       0.0478             (-1.79769e+307 -1.79769e+307 -1.79769e+307)
        0.048             (-1.79769e+307 -1.79769e+307 -1.79769e+307)
       0.0482             (-1.79769e+307 -1.79769e+307 -1.79769e+307)
       0.0484             (-1.79769e+307 -1.79769e+307 -1.79769e+307)
       0.0486             (-1.79769e+307 -1.79769e+307 -1.79769e+307)
       0.0488             (-1.79769e+307 -1.79769e+307 -1.79769e+307)
        0.049             (-1.79769e+307 -1.79769e+307 -1.79769e+307)
       0.0492             (-1.79769e+307 -1.79769e+307 -1.79769e+307)
       0.0494             (-1.79769e+307 -1.79769e+307 -1.79769e+307)
       0.0496             (-1.79769e+307 -1.79769e+307 -1.79769e+307)
       0.0498             (-1.79769e+307 -1.79769e+307 -1.79769e+307)
         0.05             (-1.79769e+307 -1.79769e+307 -1.79769e+307)
       0.0502             (-1.79769e+307 -1.79769e+307 -1.79769e+307)
       0.0504             (-1.79769e+307 -1.79769e+307 -1.79769e+307)
       0.0506             (-1.79769e+307 -1.79769e+307 -1.79769e+307)
       0.0508             (-1.79769e+307 -1.79769e+307 -1.79769e+307)
        0.051             (-1.79769e+307 -1.79769e+307 -1.79769e+307)
       0.0512             (-1.79769e+307 -1.79769e+307 -1.79769e+307)
       0.0514             (-1.79769e+307 -1.79769e+307 -1.79769e+307)
       0.0516             (-1.79769e+307 -1.79769e+307 -1.79769e+307)
       0.0518             (-1.79769e+307 -1.79769e+307 -1.79769e+307)
        0.052             (-1.79769e+307 -1.79769e+307 -1.79769e+307)
       0.0522             (-1.79769e+307 -1.79769e+307 -1.79769e+307)
       0.0524             (-1.79769e+307 -1.79769e+307 -1.79769e+307)
       0.0526             (-1.79769e+307 -1.79769e+307 -1.79769e+307)
       0.0528             (-1.79769e+307 -1.79769e+307 -1.79769e+307)
        0.053             (-1.79769e+307 -1.79769e+307 -1.79769e+307)
       0.0532             (-1.79769e+307 -1.79769e+307 -1.79769e+307)
       0.0534             (-1.79769e+307 -1.79769e+307 -1.79769e+307)
       0.0536             (-1.79769e+307 -1.79769e+307 -1.79769e+307)
       0.0538             (-1.79769e+307 -1.79769e+307 -1.79769e+307)
        0.054             (-1.79769e+307 -1.79769e+307 -1.79769e+307)
       0.0542             (-1.79769e+307 -1.79769e+307 -1.79769e+307)
       0.0544             (-1.79769e+307 -1.79769e+307 -1.79769e+307)
       0.0546             (-1.79769e+307 -1.79769e+307 -1.79769e+307)
       0.0548             (-1.79769e+307 -1.79769e+307 -1.79769e+307)
        0.055             (-1.79769e+307 -1.79769e+307 -1.79769e+307)
       0.0552             (-1.79769e+307 -1.79769e+307 -1.79769e+307)
       0.0554             (-1.79769e+307 -1.79769e+307 -1.79769e+307)
       0.0556             (-1.79769e+307 -1.79769e+307 -1.79769e+307)
       0.0558             (-1.79769e+307 -1.79769e+307 -1.79769e+307)
        0.056             (-1.79769e+307 -1.79769e+307 -1.79769e+307)
       0.0562             (-1.79769e+307 -1.79769e+307 -1.79769e+307)
       0.0564             (-1.79769e+307 -1.79769e+307 -1.79769e+307)
       0.0566             (-1.79769e+307 -1.79769e+307 -1.79769e+307)
       0.0568             (-1.79769e+307 -1.79769e+307 -1.79769e+307)
        0.057             (-1.79769e+307 -1.79769e+307 -1.79769e+307)
       0.0572             (-1.79769e+307 -1.79769e+307 -1.79769e+307)
       0.0574             (-1.79769e+307 -1.79769e+307 -1.79769e+307)
       0.0576             (-1.79769e+307 -1.79769e+307 -1.79769e+307)
       0.0578             (-1.79769e+307 -1.79769e+307 -1.79769e+307)
        0.058             (-1.79769e+307 -1.79769e+307 -1.79769e+307)
       0.0582             (-1.79769e+307 -1.79769e+307 -1.79769e+307)
       0.0584             (-1.79769e+307 -1.79769e+307 -1.79769e+307)
       0.0586             (-1.79769e+307 -1.79769e+307 -1.79769e+307)
       0.0588             (-1.79769e+307 -1.79769e+307 -1.79769e+307)
        0.059             (-1.79769e+307 -1.79769e+307 -1.79769e+307)
       0.0592             (-1.79769e+307 -1.79769e+307 -1.79769e+307)
       0.0594             (-1.79769e+307 -1.79769e+307 -1.79769e+307)
       0.0596             (-1.79769e+307 -1.79769e+307 -1.79769e+307)
       0.0598             (-1.79769e+307 -1.79769e+307 -1.79769e+307)
         0.06             (-1.79769e+307 -1.79769e+307 -1.79769e+307)
       0.0602             (-1.79769e+307 -1.79769e+307 -1.79769e+307)
       0.0604             (-1.79769e+307 -1.79769e+307 -1.79769e+307)
       0.0606             (-1.79769e+307 -1.79769e+307 -1.79769e+307)
       0.0608             (-1.79769e+307 -1.79769e+307 -1.79769e+307)
        0.061             (-1.79769e+307 -1.79769e+307 -1.79769e+307)
       0.0612             (-1.79769e+307 -1.79769e+307 -1.79769e+307)
       0.0614             (-1.79769e+307 -1.79769e+307 -1.79769e+307)
       0.0616             (-1.79769e+307 -1.79769e+307 -1.79769e+307)
       0.0618             (-1.79769e+307 -1.79769e+307 -1.79769e+307)
        0.062             (-1.79769e+307 -1.79769e+307 -1.79769e+307)
       0.0622             (-1.79769e+307 -1.79769e+307 -1.79769e+307)
       0.0624             (-1.79769e+307 -1.79769e+307 -1.79769e+307)
       0.0626             (-1.79769e+307 -1.79769e+307 -1.79769e+307)
       0.0628             (-1.79769e+307 -1.79769e+307 -1.79769e+307)
        0.063             (-1.79769e+307 -1.79769e+307 -1.79769e+307)
       0.0632             (-1.79769e+307 -1.79769e+307 -1.79769e+307)
       0.0634             (-1.79769e+307 -1.79769e+307 -1.79769e+307)
       0.0636             (-1.79769e+307 -1.79769e+307 -1.79769e+307)
       0.0638             (-1.79769e+307 -1.79769e+307 -1.79769e+307)
        0.064             (-1.79769e+307 -1.79769e+307 -1.79769e+307)
       0.0642             (-1.79769e+307 -1.79769e+307 -1.79769e+307)
       0.0644             (-1.79769e+307 -1.79769e+307 -1.79769e+307)
       0.0646             (-1.79769e+307 -1.79769e+307 -1.79769e+307)
       0.0648             (-1.79769e+307 -1.79769e+307 -1.79769e+307)
        0.065             (-1.79769e+307 -1.79769e+307 -1.79769e+307)
       0.0652             (-1.79769e+307 -1.79769e+307 -1.79769e+307)
       0.0654             (-1.79769e+307 -1.79769e+307 -1.79769e+307)
       0.0656             (-1.79769e+307 -1.79769e+307 -1.79769e+307)
       0.0658             (-1.79769e+307 -1.79769e+307 -1.79769e+307)
        0.066             (-1.79769e+307 -1.79769e+307 -1.79769e+307)
       0.0662             (-1.79769e+307 -1.79769e+307 -1.79769e+307)
       0.0664             (-1.79769e+307 -1.79769e+307 -1.79769e+307)
       0.0666             (-1.79769e+307 -1.79769e+307 -1.79769e+307)
       0.0668             (-1.79769e+307 -1.79769e+307 -1.79769e+307)
        0.067             (-1.79769e+307 -1.79769e+307 -1.79769e+307)
       0.0672             (-1.79769e+307 -1.79769e+307 -1.79769e+307)
       0.0674             (-1.79769e+307 -1.79769e+307 -1.79769e+307)
       0.0676             (-1.79769e+307 -1.79769e+307 -1.79769e+307)
       0.0678             (-1.79769e+307 -1.79769e+307 -1.79769e+307)
        0.068             (-1.79769e+307 -1.79769e+307 -1.79769e+307)
       0.0682             (-1.79769e+307 -1.79769e+307 -1.79769e+307)
       0.0684             (-1.79769e+307 -1.79769e+307 -1.79769e+307)
       0.0686             (-1.79769e+307 -1.79769e+307 -1.79769e+307)
       0.0688             (-1.79769e+307 -1.79769e+307 -1.79769e+307)
        0.069             (-1.79769e+307 -1.79769e+307 -1.79769e+307)
       0.0692             (-1.79769e+307 -1.79769e+307 -1.79769e+307)
       0.0694             (-1.79769e+307 -1.79769e+307 -1.79769e+307)
       0.0696             (-1.79769e+307 -1.79769e+307 -1.79769e+307)
       0.0698             (-1.79769e+307 -1.79769e+307 -1.79769e+307)
         0.07             (-1.79769e+307 -1.79769e+307 -1.79769e+307)
       0.0702             (-1.79769e+307 -1.79769e+307 -1.79769e+307)
       0.0704             (-1.79769e+307 -1.79769e+307 -1.79769e+307)
       0.0706             (-1.79769e+307 -1.79769e+307 -1.79769e+307)
       0.0708             (-1.79769e+307 -1.79769e+307 -1.79769e+307)
        0.071             (-1.79769e+307 -1.79769e+307 -1.79769e+307)
       0.0712             (-1.79769e+307 -1.79769e+307 -1.79769e+307)
       0.0714             (-1.79769e+307 -1.79769e+307 -1.79769e+307)
       0.0716             (-1.79769e+307 -1.79769e+307 -1.79769e+307)
       0.0718             (-1.79769e+307 -1.79769e+307 -1.79769e+307)
        0.072             (-1.79769e+307 -1.79769e+307 -1.79769e+307)
       0.0722             (-1.79769e+307 -1.79769e+307 -1.79769e+307)
       0.0724             (-1.79769e+307 -1.79769e+307 -1.79769e+307)
       0.0726             (-1.79769e+307 -1.79769e+307 -1.79769e+307)
       0.0728             (-1.79769e+307 -1.79769e+307 -1.79769e+307)
        0.073             (-1.79769e+307 -1.79769e+307 -1.79769e+307)
       0.0732             (-1.79769e+307 -1.79769e+307 -1.79769e+307)
       0.0734             (-1.79769e+307 -1.79769e+307 -1.79769e+307)
       0.0736             (-1.79769e+307 -1.79769e+307 -1.79769e+307)
       0.0738             (-1.79769e+307 -1.79769e+307 -1.79769e+307)
        0.074             (-1.79769e+307 -1.79769e+307 -1.79769e+307)
       0.0742             (-1.79769e+307 -1.79769e+307 -1.79769e+307)
       0.0744             (-1.79769e+307 -1.79769e+307 -1.79769e+307)
       0.0746             (-1.79769e+307 -1.79769e+307 -1.79769e+307)
       0.0748             (-1.79769e+307 -1.79769e+307 -1.79769e+307)
        0.075             (-1.79769e+307 -1.79769e+307 -1.79769e+307)
       0.0752             (-1.79769e+307 -1.79769e+307 -1.79769e+307)
       0.0754             (-1.79769e+307 -1.79769e+307 -1.79769e+307)
       0.0756             (-1.79769e+307 -1.79769e+307 -1.79769e+307)
       0.0758             (-1.79769e+307 -1.79769e+307 -1.79769e+307)
        0.076             (-1.79769e+307 -1.79769e+307 -1.79769e+307)
       0.0762             (-1.79769e+307 -1.79769e+307 -1.79769e+307)
       0.0764             (-1.79769e+307 -1.79769e+307 -1.79769e+307)
       0.0766             (-1.79769e+307 -1.79769e+307 -1.79769e+307)
       0.0768             (-1.79769e+307 -1.79769e+307 -1.79769e+307)
        0.077             (-1.79769e+307 -1.79769e+307 -1.79769e+307)
       0.0772             (-1.79769e+307 -1.79769e+307 -1.79769e+307)
       0.0774             (-1.79769e+307 -1.79769e+307 -1.79769e+307)
       0.0776             (-1.79769e+307 -1.79769e+307 -1.79769e+307)
       0.0778             (-1.79769e+307 -1.79769e+307 -1.79769e+307)
        0.078             (-1.79769e+307 -1.79769e+307 -1.79769e+307)
       0.0782             (-1.79769e+307 -1.79769e+307 -1.79769e+307)
       0.0784             (-1.79769e+307 -1.79769e+307 -1.79769e+307)
       0.0786             (-1.79769e+307 -1.79769e+307 -1.79769e+307)
       0.0788             (-1.79769e+307 -1.79769e+307 -1.79769e+307)
        0.079             (-1.79769e+307 -1.79769e+307 -1.79769e+307)
       0.0792             (-1.79769e+307 -1.79769e+307 -1.79769e+307)
       0.0794             (-1.79769e+307 -1.79769e+307 -1.79769e+307)
       0.0796             (-1.79769e+307 -1.79769e+307 -1.79769e+307)
       0.0798             (-1.79769e+307 -1.79769e+307 -1.79769e+307)
         0.08             (-1.79769e+307 -1.79769e+307 -1.79769e+307)
       0.0802             (-1.79769e+307 -1.79769e+307 -1.79769e+307)
       0.0804             (-1.79769e+307 -1.79769e+307 -1.79769e+307)
       0.0806             (-1.79769e+307 -1.79769e+307 -1.79769e+307)
       0.0808             (-1.79769e+307 -1.79769e+307 -1.79769e+307)
        0.081             (-1.79769e+307 -1.79769e+307 -1.79769e+307)
       0.0812             (-1.79769e+307 -1.79769e+307 -1.79769e+307)
       0.0814             (-1.79769e+307 -1.79769e+307 -1.79769e+307)
       0.0816             (-1.79769e+307 -1.79769e+307 -1.79769e+307)
       0.0818             (-1.79769e+307 -1.79769e+307 -1.79769e+307)
        0.082             (-1.79769e+307 -1.79769e+307 -1.79769e+307)
       0.0822             (-1.79769e+307 -1.79769e+307 -1.79769e+307)
       0.0824             (-1.79769e+307 -1.79769e+307 -1.79769e+307)
       0.0826             (-1.79769e+307 -1.79769e+307 -1.79769e+307)
       0.0828             (-1.79769e+307 -1.79769e+307 -1.79769e+307)
        0.083             (-1.79769e+307 -1.79769e+307 -1.79769e+307)
       0.0832             (-1.79769e+307 -1.79769e+307 -1.79769e+307)
       0.0834             (-1.79769e+307 -1.79769e+307 -1.79769e+307)
       0.0836             (-1.79769e+307 -1.79769e+307 -1.79769e+307)
       0.0838             (-1.79769e+307 -1.79769e+307 -1.79769e+307)
        0.084             (-1.79769e+307 -1.79769e+307 -1.79769e+307)
       0.0842             (-1.79769e+307 -1.79769e+307 -1.79769e+307)
       0.0844             (-1.79769e+307 -1.79769e+307 -1.79769e+307)
       0.0846             (-1.79769e+307 -1.79769e+307 -1.79769e+307)
       0.0848             (-1.79769e+307 -1.79769e+307 -1.79769e+307)
        0.085             (-1.79769e+307 -1.79769e+307 -1.79769e+307)
       0.0852             (-1.79769e+307 -1.79769e+307 -1.79769e+307)
       0.0854             (-1.79769e+307 -1.79769e+307 -1.79769e+307)