/*--------------------------------*- C++ -*----------------------------------*\
  =========                 |
  \\      /  F ield         | OpenFOAM: The Open Source CFD Toolbox
   \\    /   O peration     | Website:  https://openfoam.org
    \\  /    A nd           | Version:  7
     \\/     M anipulation  |
\*---------------------------------------------------------------------------*/
FoamFile
{
    version     2.0;
    format      ascii;
    class       volScalarField;
    location    "2.4";
    object      p;
}
// * * * * * * * * * * * * * * * * * * * * * * * * * * * * * * * * * * * * * //

dimensions      [1 -1 -2 0 0 0 0];

internalField   nonuniform List<scalar> 
3700
(
0.168661
0.244546
0.316939
0.343893
0.343461
0.354185
0.368803
0.374408
0.394348
0.410947
0.43146
0.461044
0.468884
0.486309
0.498866
0.504786
0.516361
0.507095
0.506818
0.522476
0.0952081
0.105342
0.113965
0.0969353
0.0798582
0.0789048
0.0900066
0.100672
0.116397
0.137316
0.166821
0.186288
0.176375
0.171026
0.176529
0.186959
0.191324
0.186834
0.189576
0.194449
0.0788525
0.0828253
0.0796146
0.0682425
0.0540305
0.04454
0.0456809
0.0526107
0.0630117
0.0711344
0.0823703
0.0881798
0.0918435
0.0938875
0.0959621
0.0979589
0.102635
0.111602
0.122866
0.136059
0.0712091
0.0753343
0.0745882
0.0632189
0.0446717
0.0430757
0.0445507
0.0521606
0.0620025
0.0718791
0.0912689
0.104956
0.120001
0.130238
0.138818
0.139713
0.138555
0.14137
0.152245
0.17979
0.0641241
0.0640736
0.0629973
0.0509166
0.0437758
0.0458376
0.0525826
0.0597031
0.0633322
0.0718698
0.0907531
0.108516
0.13109
0.151882
0.169594
0.1829
0.183241
0.186841
0.190078
0.212333
0.0555279
0.0529174
0.0530706
0.0470461
0.0520687
0.0631351
0.0770214
0.0834828
0.0866723
0.0950648
0.100255
0.110303
0.133953
0.164263
0.18944
0.215859
0.238822
0.260954
0.270423
0.292867
0.0422067
0.0453632
0.050272
0.0500316
0.0552421
0.0731599
0.0930322
0.104688
0.124016
0.14548
0.147665
0.154584
0.160216
0.176967
0.203468
0.241055
0.282419
0.323314
0.357482
0.410914
0.033084
0.042954
0.0496073
0.050678
0.0550191
0.0735777
0.0937634
0.112035
0.151507
0.18971
0.209715
0.229155
0.243085
0.264046
0.277974
0.300554
0.336577
0.398544
0.454025
0.556881
0.0275143
0.0417918
0.0526213
0.0541302
0.0545627
0.070623
0.0875233
0.109246
0.16074
0.213215
0.25732
0.295007
0.337779
0.376794
0.405724
0.438829
0.469093
0.523837
0.589035
0.738427
0.0252517
0.0435007
0.0554254
0.0571655
0.0631914
0.0869473
0.093291
0.112453
0.159072
0.219877
0.286899
0.348317
0.424743
0.483229
0.544945
0.605059
0.662486
0.720975
0.809661
0.954444
0.0280282
0.0428089
0.0513742
0.0611549
0.0872635
0.126541
0.136381
0.175829
0.230061
0.272754
0.345661
0.425031
0.521748
0.605025
0.698711
0.800101
0.902796
0.990759
1.15092
1.12035
0.0359792
0.0364795
0.0484415
0.079201
0.121253
0.162689
0.202436
0.289872
0.374329
0.466758
0.556109
0.640696
0.732807
0.820484
0.917545
1.05152
1.2099
1.34984
1.55709
1.50718
0.0404711
0.0326527
0.0520604
0.0933095
0.139858
0.176016
0.250422
0.376993
0.507311
0.671952
0.798631
0.929202
1.05498
1.17715
1.30873
1.46959
1.65182
1.82952
2.09837
2.08972
0.0415585
0.0354956
0.0533083
0.0860711
0.13664
0.167323
0.297025
0.455612
0.65576
0.895691
1.0984
1.29407
1.4784
1.66074
1.88116
2.11567
2.34022
2.57964
2.79628
2.98515
0.0348841
0.0339014
0.0451598
0.0674835
0.123184
0.261548
0.527462
0.79376
1.13719
1.43301
1.6858
1.91394
2.14279
2.38584
2.70002
2.98736
3.25766
3.50043
3.65359
3.78123
0.0192792
0.0259167
0.0443667
0.0934998
0.273924
0.701852
1.12584
1.56753
2.03042
2.39001
2.64666
2.89919
3.1649
3.45927
3.7866
3.98667
4.0911
4.12176
4.02669
3.90045
0.0108821
0.026652
0.0980344
0.380076
0.906017
1.49772
2.0323
2.6104
3.20427
3.56317
3.77995
4.01019
4.2182
4.38774
4.48489
4.40872
4.18758
3.6471
2.78416
1.88137
0.0252347
0.137166
0.514242
1.21409
2.12556
2.86997
3.53153
4.20471
4.76313
4.84873
4.75316
4.75219
4.70849
4.53967
4.02469
3.06202
2.08442
1.32791
1.01743
0.992947
0.311937
0.883392
1.99886
3.19734
4.16957
4.8131
5.40303
5.88682
5.75136
5.30461
4.86993
4.31907
3.39315
2.32196
1.42148
1.02806
0.989463
0.994986
0.997346
0.999448
2.31639
3.6319
4.86973
5.70376
6.2248
6.40028
6.55468
6.2318
4.54952
3.21109
2.36454
1.55737
1.07903
0.987493
0.992958
0.996322
0.999172
0.999972
1.00002
1.00001
6.95292
6.90195
6.85073
6.91473
7.02905
6.73205
6.00346
2.29089
0.659404
1
1
1
1
1
1
1
1
1
1
1
6.95229
6.87589
6.78791
6.73419
6.93437
5.72122
2.64102
1.02135
1
1
1
1
1
1
1
1
1
1
1
1
6.81438
6.86871
6.81371
6.62482
6.34299
3.44813
1.04876
0.998978
1
1
1
1
1
1
1
1
1
1
1
1
6.68792
6.86688
6.86759
6.57107
4.68899
1.46371
0.992969
1.00013
0.999999
1
1
1
1
1
1
1
1
1
1
1
6.50911
6.79761
6.85717
6.29206
2.66776
0.975552
1.00036
0.999994
1
1
1
1
1
1
1
1
1
1
1
1
6.41243
6.70369
6.71588
4.87837
1.40168
1
1
1
1
1
1
1
1
1
1
1
1
1
1
1
6.37988
6.675
6.58919
3.55638
0.991531
1
1
1
1
1
1
1
1
1
1
1
1
1
1
1
6.49339
6.70577
6.13485
2.02462
0.999982
1
1
1
1
1
1
1
1
1
1
1
1
1
1
1
6.94908
6.63584
4.86969
1.20025
1
1
1
1
1
1
1
1
1
1
1
1
1
1
1
1
7.26618
6.37735
3.49055
0.98747
1
1
1
1
1
1
1
1
1
1
1
1
1
1
1
1
7.47673
6.02689
2.266
1
1
1
1
1
1
1
1
1
1
1
1
1
1
1
1
1
7.53425
5.36111
1.5811
1
1
1
1
1
1
1
1
1
1
1
1
1
1
1
1
1
7.56608
4.72078
1.1498
1
1
1
1
1
1
1
1
1
1
1
1
1
1
1
1
1
7.3617
3.99397
1.0077
1
1
1
1
1
1
1
1
1
1
1
1
1
1
1
1
1
7.13184
3.2698
1
1
1
1
1
1
1
1
1
1
1
1
1
1
1
1
1
1
6.91832
2.57811
1
1
1
1
1
1
1
1
1
1
1
1
1
1
1
1
1
1
6.706
1.90039
1
1
1
1
1
1
1
1
1
1
1
1
1
1
1
1
1
1
6.3041
1.38355
1
1
1
1
1
1
1
1
1
1
1
1
1
1
1
1
1
1
5.73021
1.00648
1
1
1
1
1
1
1
1
1
1
1
1
1
1
1
1
1
1
4.58502
1.00006
1
1
1
1
1
1
1
1
1
1
1
1
1
1
1
1
1
1
4.58595
1.00006
1
1
1
1
1
1
1
1
1
1
1
1
1
1
1
1
1
1
5.73077
1.00647
1
1
1
1
1
1
1
1
1
1
1
1
1
1
1
1
1
1
6.30333
1.38333
1
1
1
1
1
1
1
1
1
1
1
1
1
1
1
1
1
1
6.70616
1.90037
1
1
1
1
1
1
1
1
1
1
1
1
1
1
1
1
1
1
6.91906
2.57833
1
1
1
1
1
1
1
1
1
1
1
1
1
1
1
1
1
1
7.13189
3.27006
1
1
1
1
1
1
1
1
1
1
1
1
1
1
1
1
1
1
7.36127
3.9938
1.00769
1
1
1
1
1
1
1
1
1
1
1
1
1
1
1
1
1
7.56581
4.72039
1.14974
1
1
1
1
1
1
1
1
1
1
1
1
1
1
1
1
1
7.53402
5.36109
1.58111
1
1
1
1
1
1
1
1
1
1
1
1
1
1
1
1
1
7.47655
6.02698
2.26622
1
1
1
1
1
1
1
1
1
1
1
1
1
1
1
1
1
7.26612
6.3776
3.49085
0.987468
1
1
1
1
1
1
1
1
1
1
1
1
1
1
1
1
6.94903
6.63574
4.86975
1.20038
1
1
1
1
1
1
1
1
1
1
1
1
1
1
1
1
6.49354
6.706
6.13515
2.02456
0.999981
1
1
1
1
1
1
1
1
1
1
1
1
1
1
1
6.37963
6.6748
6.58882
3.55617
0.991664
1
1
1
1
1
1
1
1
1
1
1
1
1
1
1
6.41211
6.70342
6.71585
4.87871
1.40164
1
1
1
1
1
1
1
1
1
1
1
1
1
1
1
6.50878
6.79737
6.85715
6.29268
2.66834
0.975542
1.00036
0.999994
1
1
1
1
1
1
1
1
1
1
1
1
6.68773
6.86673
6.86742
6.56961
4.68767
1.46383
0.992981
1.00013
0.999999
1
1
1
1
1
1
1
1
1
1
1
6.8143
6.8686
6.81434
6.62612
6.34581
3.44993
1.0484
0.998985
1
1
1
1
1
1
1
1
1
1
1
1
6.9523
6.87584
6.78841
6.735
6.93402
5.71571
2.64262
1.02202
1
1
1
1
1
1
1
1
1
1
1
1
6.95292
6.90186
6.85059
6.91418
7.02748
6.73171
6.00399
2.2878
0.660205
1
1
1
1
1
1
1
1
1
1
1
2.31444
3.63382
4.87881
5.7064
6.21827
6.39765
6.55686
6.2333
4.55196
3.2143
2.3682
1.56024
1.08003
0.987565
0.992978
0.996331
0.999173
0.999972
1.00002
1.00001
0.312979
0.869792
1.96832
3.19339
4.17866
4.81346
5.40141
5.88513
5.74898
5.30223
4.86855
4.31952
3.3943
2.32278
1.42171
1.02802
0.989469
0.994989
0.997346
0.999448
0.0269637
0.153458
0.545746
1.22271
2.12379
2.8731
3.53001
4.19901
4.75717
4.84437
4.74883
4.74824
4.70511
4.53763
4.02376
3.06165
2.08428
1.32779
1.0174
0.99294
0.00900077
0.0264124
0.0865754
0.379934
0.919639
1.50607
2.0367
2.6109
3.19815
3.55653
3.77431
4.00591
4.21472
4.38563
4.48422
4.40828
4.18762
3.64758
2.78502
1.88226
0.0153444
0.0229806
0.0374898
0.0940545
0.283647
0.721333
1.14659
1.57821
2.03212
2.38865
2.64466
2.89704
3.16275
3.45699
3.78445
3.98506
4.09146
4.12319
4.02827
3.90175
0.0316178
0.0293252
0.0459121
0.0603353
0.109747
0.259531
0.534815
0.807659
1.14952
1.44182
1.69092
1.91666
2.14393
2.38537
2.69806
2.98543
3.25713
3.50186
3.65562
3.7821
0.0454454
0.0378156
0.0524271
0.0739503
0.123252
0.157911
0.290663
0.454718
0.658842
0.901978
1.10547
1.30039
1.48264
1.66251
1.88059
2.1142
2.33926
2.5803
2.79788
2.98577
0.0452431
0.0345116
0.0508777
0.0876635
0.134358
0.167767
0.244625
0.36956
0.503385
0.671796
0.801362
0.932902
1.05817
1.17886
1.30891
1.469
1.65152
1.83007
2.09926
2.09016
0.04259
0.0340124
0.04173
0.0765929
0.120816
0.155825
0.196597
0.282721
0.370131
0.465076
0.556371
0.641764
0.733857
0.820913
0.917412
1.05113
1.20944
1.34964
1.5572
1.50725
0.0358596
0.0376088
0.0420401
0.0582192
0.0880696
0.120355
0.133341
0.173239
0.228942
0.271763
0.345051
0.424975
0.522191
0.605327
0.698646
0.799575
0.902016
0.989856
1.15045
1.12015
0.0311853
0.0407548
0.0470934
0.0541098
0.0655273
0.0866027
0.0953413
0.113925
0.157769
0.218582
0.286826
0.348776
0.425113
0.483323
0.544495
0.604183
0.661346
0.720004
0.809098
0.95434
0.032723
0.0435982
0.0505158
0.053702
0.0586784
0.0742051
0.0884432
0.108682
0.159565
0.213144
0.2577
0.295412
0.337836
0.376621
0.405143
0.437983
0.468155
0.523339
0.589172
0.738888
0.0374929
0.0461117
0.049988
0.0513819
0.058092
0.0757682
0.0925535
0.111922
0.152021
0.190243
0.210048
0.22899
0.24257
0.263479
0.277666
0.300539
0.337037
0.399278
0.454917
0.557689
0.0460938
0.0489055
0.0500558
0.0480253
0.0562099
0.0747553
0.0913163
0.105986
0.125638
0.146901
0.147251
0.153468
0.159348
0.176866
0.20382
0.241546
0.283078
0.324115
0.358247
0.411413
0.0579955
0.0558383
0.0524637
0.0437299
0.0509007
0.0652604
0.0766942
0.0854189
0.0890931
0.0966838
0.100561
0.11036
0.133905
0.163838
0.189091
0.215862
0.239017
0.261333
0.270479
0.292591
0.0651841
0.0673437
0.064254
0.0455571
0.0418916
0.0481051
0.054153
0.0614974
0.0651652
0.0735187
0.0922807
0.109228
0.130804
0.151045
0.16865
0.182237
0.182652
0.186255
0.189507
0.212024
0.0722481
0.0771669
0.076342
0.0590215
0.0423195
0.0420818
0.0438374
0.0553906
0.0639167
0.0738347
0.0926293
0.105405
0.119404
0.1291
0.137538
0.13877
0.13771
0.140661
0.151886
0.179695
0.0870665
0.0871619
0.0844439
0.0717325
0.0490394
0.042692
0.0437952
0.0555984
0.0646373
0.0725295
0.0829261
0.0877084
0.0907007
0.0926135
0.0946729
0.0967798
0.102179
0.111729
0.123108
0.136027
0.113405
0.112996
0.127616
0.151574
0.151262
0.132304
0.120584
0.131853
0.14668
0.154207
0.16249
0.176005
0.188251
0.191799
0.181139
0.166862
0.170768
0.18782
0.21668
0.22275
0.186569
0.252277
0.308133
0.390746
0.417697
0.407469
0.388851
0.391232
0.41235
0.422284
0.43124
0.463169
0.480239
0.497297
0.498644
0.490068
0.508025
0.516971
0.523934
0.525855
0.562901
0.636419
0.728215
0.787219
0.798178
0.840446
0.871451
0.886749
0.891257
0.88194
0.856582
0.835609
0.831547
0.844495
0.850985
0.852497
0.842709
0.806424
0.802925
0.815553
0.284417
0.416377
0.539448
0.675941
0.740406
0.812718
0.856301
0.875776
0.895892
0.891535
0.869405
0.848693
0.840205
0.841349
0.839446
0.83971
0.833598
0.808178
0.811114
0.836505
0.137303
0.15879
0.223862
0.335648
0.527171
0.685714
0.776918
0.839941
0.886567
0.881145
0.865062
0.855765
0.847862
0.838917
0.823353
0.818819
0.816248
0.797478
0.802968
0.839402
0.193726
0.212701
0.24225
0.243169
0.259895
0.335184
0.53255
0.720857
0.813964
0.858255
0.870134
0.867384
0.854952
0.83793
0.81185
0.802229
0.798808
0.784395
0.796004
0.844819
0.242068
0.259235
0.276653
0.300563
0.300519
0.288282
0.306586
0.400083
0.571053
0.754484
0.83696
0.850701
0.852523
0.839511
0.805712
0.789416
0.781147
0.774495
0.789395
0.844524
0.306162
0.323905
0.341516
0.347566
0.339062
0.329712
0.333365
0.330895
0.350884
0.457234
0.633676
0.785623
0.847818
0.842235
0.823648
0.79487
0.775887
0.773858
0.784949
0.839517
0.395142
0.40242
0.391888
0.395278
0.393412
0.381925
0.377712
0.373431
0.358705
0.359158
0.407337
0.540138
0.73129
0.837159
0.832996
0.81334
0.787626
0.780091
0.782803
0.827399
0.528442
0.500553
0.449778
0.445614
0.445382
0.431655
0.422946
0.413447
0.39927
0.373607
0.37219
0.382343
0.484992
0.682849
0.822995
0.818373
0.805638
0.789505
0.785935
0.81466
0.68654
0.620708
0.530419
0.481986
0.488469
0.484283
0.473387
0.461773
0.436041
0.41147
0.391979
0.380046
0.383723
0.471457
0.688569
0.804534
0.814268
0.800762
0.785708
0.804206
0.872937
0.769478
0.639613
0.560169
0.546257
0.539372
0.52365
0.504801
0.482334
0.441837
0.426588
0.410713
0.389208
0.397767
0.503754
0.698705
0.805439
0.800442
0.783809
0.802796
1.24834
1.00004
0.807489
0.656204
0.593065
0.588329
0.601149
0.597779
0.571648
0.527119
0.485386
0.458388
0.429751
0.400324
0.41355
0.492469
0.635175
0.75019
0.767032
0.812092
2.02682
1.49062
1.19777
0.996531
0.822565
0.702428
0.688614
0.682959
0.643667
0.596126
0.564515
0.52679
0.476166
0.439388
0.415373
0.41077
0.427675
0.520678
0.648309
0.783986
2.51013
2.15664
1.71255
1.36395
1.13482
0.93406
0.790333
0.726363
0.690435
0.68019
0.671623
0.640095
0.585785
0.524421
0.47524
0.42118
0.421299
0.43272
0.466981
0.595037
2.36522
2.34646
2.23917
1.91528
1.56368
1.31194
1.09431
0.920808
0.850712
0.805635
0.758713
0.710266
0.656098
0.599114
0.550303
0.495662
0.450972
0.44395
0.451481
0.50319
1.67919
2.14293
2.22393
2.19505
2.05397
1.79304
1.4962
1.2444
1.08502
0.953701
0.822233
0.756728
0.729484
0.694929
0.655267
0.604775
0.536745
0.509547
0.493292
0.508901
1.10901
1.43568
1.8485
2.11264
2.11101
2.07497
1.93402
1.68464
1.4465
1.2421
1.04635
0.946137
0.865999
0.776328
0.728356
0.69756
0.645912
0.594835
0.560501
0.560925
1.00452
1.0444
1.20477
1.54658
1.85936
2.01875
2.01467
1.97408
1.83432
1.62048
1.39648
1.19707
1.04851
0.88492
0.783015
0.751829
0.707201
0.653823
0.640116
0.651549
1.00009
1.00113
1.01034
1.078
1.26885
1.5669
1.82615
1.93815
1.92904
1.88289
1.75683
1.54364
1.35155
1.18287
1.01881
0.895154
0.806305
0.741336
0.733505
0.750944
1
1.00001
1.00014
1.00253
1.01856
1.10107
1.29021
1.55767
1.77561
1.84848
1.83216
1.77589
1.66136
1.50147
1.31606
1.15219
1.04452
0.947324
0.868064
0.864361
1
1
1
1.00003
1.00032
1.00396
1.02455
1.10871
1.29343
1.51884
1.69818
1.73754
1.71057
1.65257
1.56723
1.44939
1.3242
1.21471
1.11764
1.06051
1
1
1
1
1
1.00004
1.00053
1.00456
1.02815
1.10692
1.26187
1.44023
1.57495
1.60145
1.56972
1.51775
1.45187
1.37809
1.31192
1.22276
1
1
1
1
1
1
1
1.00006
1.00066
1.00461
1.02559
1.08304
1.19523
1.32276
1.41414
1.43857
1.41965
1.37933
1.32868
1.24194
1
1
1
1
1
1
1
1
1.00001
1.00006
1.00056
1.00336
1.01603
1.04877
1.11083
1.17681
1.22518
1.2406
1.23019
1.18023
1
1
1
1
1
1
1
1
1
1
1
1.00004
1.00029
1.00154
1.00619
1.01706
1.03467
1.05107
1.05788
1.04971
1
1
1
1
1
1
1
1
1
1
1
1
1
1.00002
1.00008
1.00033
1.00102
1.00217
1.00309
1.0029
1.62336
2.46994
2.58559
2.08673
1.31009
1.0368
1.00186
1.00005
1
1
1
1
1
1
1
2.34326
2.8181
2.52946
1.54209
1.04835
1.00081
1
1
1
1
1
1
1
1
1
2.92791
2.87062
1.98538
1.15339
1.00523
1.00005
1
1
1
1
1
1
1
1
1
3.2498
2.55943
1.36608
1.01925
1.00018
1
1
1
1
1
1
1
1
1
1
3.32177
1.6871
1.04794
1.00054
1
1
1
1
1
1
1
1
1
1
1
2.067
1.07398
1.0005
0.999999
0.999999
1
1
1
1
1
1
1
1
1
1
1.10047
1.00054
0.999997
1
1
1
1
1
1
1
1
1
1
1
1
0.998144
0.999863
0.999996
1
1
1
1
1
1
1
1
1
1
1
1
0.999967
1
1
1
1
1
1
1
1
1
1
1
1
1
1
1
1
1
1
1
1
1
1
1
1
1
1
1
1
1
1
1
1
1
1
1
1
1
1
1
1
1
1
1
1
1
1
1
1
1
1
1
1
1
1
1
1
1
1
1
1
1
1
1
1
1
1
1
1
1
1
1
1
1
1
1
1
1
1
1
1
1
1
1
1
1
1
1
1
1
1
1
1
1
1
1
1
1
1
1
1
1
1
1
1
1
1
1
1
1
1
1
1
1
1
1
1
1
1
1
1
1
1
1
1
1
1
1
1
1
1
1
1
1
1
1
1
1
1
1
1
1
1
1
1
1
1
1
1
1
1
1
1
1
1
1
1
1
1
1
1
1
1
1
1
1
1
1
1
1
1
1
1
1
1
1
1
1
1
1
1
1
1
1
1
1
1
1
1
1
1
1
1
1
1
1
1
1
1
1
1
1
1
1
1
1
1
1
1
1
1
1
1
1
1
1
1
1
1
1
1
1
1
1
1
1
1
1
1
1
1
1
1
1
1
1
1
1
1
1
1
1
1
1
1
1
1
1
1
1
1
1
1
1
1
1
1
1
1
1
1
1
1
1
1
1
1
1
1
1
1
1
1
1
1
1
1
1
1
1
1
1
1
1
1
1
1
1
1
1
1
1
1
1
1
1
1
1
1
1
1
1
1
1
1
1
1
1
1
1
1
1
1
1
1
1
1
1
1
1
1
1
1
1
1
1
1
1
1
1
1
1
1
1
1
1
1
1
1
1
1
1
1
1
1
1
1
1
1
1
1
1
1
1
1
1
1
1
1
1
1
1
1
1
1
1
1
1
1
1
1
1
1
1
1
1
1
1
1
1
1
1
1
1
1
1
1
1
1
1
1
1
1
1
1
1
1
1
1
1
1
1
1
1
1
1
1
1
1
1
1
1
1
1
1
1
1
1
1
1
1
1
1
1
1
1
1
1
1
1
1
1
1
1
1
1
1
1
1
1
1
1
1
1
1
1
1
1
1
1
1
1
1
1
1
1
1
1
1
1
1
1
1
1
1
1
1
1
1
1
1
1
1
1
1
1
1
1
1
1
1
1
1
1
1
1
1
1
1
1
1
1
1
1
1
1
1
1
1
1
1
1
1
1
1
1
1
1
1
1
1
1
1
1
1
1
1
1
1
1
1
1
1
1
1
1
1
1
1
1
1
1
1
1
1
1
1
1
1
1
1
1
1
1
1
1
1
1
1
1
1
1
1
1
1
1
1
1
1
1
1
1
1
1
1
1
1
1
1
1
1
1
1
1
1
1
1
1
1
1
1
1
1
1
1
1
1
1
1
1
1
1
1
1
1
1
1
1
1
1
1
1
1
1
1
1
1
1
1
1
1
1
1
1
1
1
1
1
1
1
1
1
1
1
1
1
1
1
1
1
1
1
1
1
1
1
1
1
1
1
1
1
1
1
1
1
1
1
1
1
1
1
1
1
1
1
1
1
1
1
1
1
1
1
1
1
1
1
1
1
1
1
1
1
1
1
1
1
1
1
1
1
1
1
1
1
1
1
1
1
1
1
1
1
1
1
1
1
1
1
1
1
1
1
1
1
1
1
1
1
1
1
1
1
1
1
1
1
1
1
1
1
1
1
1
1
1
1
1
1
1
1
1
1
1
1
1
1
1
1
1
1
1
1
1
1
1
1
1
1
1
1
1
1
1
1
1
1
1
1
1
1
1
1
1
1
1
1
1
1
1
1
1
1
1
1
1
1
1
1
1
1
1
1
1
1
1
1
1
1
1
1
1
1
1
1
1
1
1
1
1
1
1
1
1
1
1
1
1
1
1
1
1
1
1
1
1
1
1
1
1
1
1
1
1
1
1
1
1
1
1
1
1
1
1
1
1
1
1
1
1
1
1
1
1
0.999967
1
1
1
1
1
1
1
1
1
1
1
1
1
1
0.998141
0.999863
0.999996
1
1
1
1
1
1
1
1
1
1
1
1
1.10062
1.00054
0.999997
1
1
1
1
1
1
1
1
1
1
1
1
2.06742
1.074
1.0005
0.999999
0.999999
1
1
1
1
1
1
1
1
1
1
3.32191
1.687
1.04795
1.00054
1
1
1
1
1
1
1
1
1
1
1
3.24956
2.5592
1.36607
1.01927
1.00018
1
1
1
1
1
1
1
1
1
1
2.92758
2.87021
1.98536
1.15343
1.00523
1.00005
1
1
1
1
1
1
1
1
1
2.34284
2.81772
2.52932
1.54221
1.04838
1.00082
1
1
1
1
1
1
1
1
1
1.62343
2.46958
2.58544
2.08677
1.31016
1.03681
1.00186
1.00005
1
1
1
1
1
1
1
1.24754
2.0272
2.51027
2.36531
1.67923
1.10902
1.00452
1.00009
1
1
1
1
1
1
1
0.999672
1.48958
2.15642
2.34647
2.14279
1.43561
1.04439
1.00113
1.00001
1
1
1
1
1
1
0.807997
1.1963
1.7123
2.23914
2.22394
1.84843
1.20475
1.01034
1.00014
1
1
1
1
1
1
0.657784
0.998309
1.36386
1.91518
2.19503
2.11262
1.54655
1.078
1.00253
1.00003
1
1
1
1
1
0.592776
0.824375
1.13443
1.56337
2.05429
2.11103
1.85941
1.26885
1.01856
1.00032
1
1
1
1
1
0.587504
0.702866
0.934505
1.31187
1.79276
2.07496
2.01879
1.56699
1.10109
1.00396
1.00004
1
1
1
1
0.600421
0.688601
0.79108
1.09486
1.49608
1.93385
2.01466
1.82617
1.2903
1.02456
1.00053
1
1
1
1
0.597056
0.682333
0.726195
0.921433
1.24463
1.68459
1.97412
1.93819
1.55772
1.10874
1.00456
1.00006
1
1
1
0.571217
0.643036
0.68974
0.850393
1.08504
1.44659
1.83439
1.92909
1.77562
1.29341
1.02815
1.00066
1.00001
1
1
0.527259
0.595967
0.679773
0.805698
0.953867
1.24189
1.62036
1.88295
1.84855
1.51881
1.10688
1.0046
1.00006
1
1
0.485867
0.564622
0.671272
0.758649
0.822406
1.04645
1.39655
1.7569
1.83224
1.69821
1.26184
1.02558
1.00056
1
1
0.458567
0.527041
0.639833
0.709819
0.7566
0.946799
1.19726
1.54376
1.77598
1.73759
1.44023
1.08303
1.00336
1.00004
1
0.429623
0.476933
0.58663
0.655973
0.72884
0.866248
1.04886
1.35165
1.66148
1.71062
1.57497
1.19524
1.01603
1.00029
1
0.399455
0.439525
0.525675
0.599374
0.694313
0.775904
0.885742
1.18327
1.50162
1.65259
1.60146
1.32277
1.04877
1.00154
1.00002
0.412261
0.414344
0.475492
0.550938
0.655295
0.727629
0.782405
1.01924
1.31604
1.56721
1.5697
1.41414
1.11084
1.00619
1.00008
0.490508
0.409852
0.420205
0.495909
0.60579
0.697362
0.75107
0.895595
1.15198
1.44936
1.51773
1.43856
1.17681
1.01706
1.00033
0.634077
0.426992
0.42037
0.450466
0.538466
0.646953
0.706633
0.806358
1.0445
1.32412
1.45184
1.41964
1.22518
1.03466
1.00102
0.750952
0.519839
0.432214
0.442959
0.510351
0.596778
0.653774
0.739664
0.947209
1.21459
1.37807
1.37932
1.24059
1.05107
1.00217
0.771994
0.646965
0.466194
0.450419
0.492759
0.562364
0.640327
0.731712
0.868303
1.11759
1.31192
1.32868
1.23018
1.05788
1.00309
0.816041
0.786837
0.594156
0.502214
0.507724
0.562744
0.651958
0.749571
0.864567
1.06039
1.22273
1.24193
1.18022
1.04971
1.0029
0.87297
0.770496
0.640815
0.559909
0.545076
0.538666
0.523409
0.504603
0.482591
0.442332
0.427267
0.411346
0.388792
0.396868
0.501179
0.697817
0.805321
0.801346
0.787892
0.806726
0.687182
0.62119
0.531002
0.481157
0.487511
0.484015
0.473729
0.462174
0.436812
0.411951
0.392866
0.379866
0.38323
0.469867
0.684619
0.808543
0.814765
0.801178
0.786393
0.804814
0.52875
0.500682
0.449671
0.444795
0.444968
0.431436
0.423114
0.413797
0.399717
0.373938
0.372227
0.382116
0.483465
0.680828
0.823851
0.822192
0.808236
0.789084
0.783876
0.810638
0.394823
0.40288
0.391669
0.394646
0.393354
0.381719
0.378007
0.373685
0.358536
0.35862
0.405609
0.538127
0.72849
0.838388
0.834984
0.817417
0.789829
0.779981
0.780957
0.821264
0.305823
0.32424
0.341825
0.34728
0.339078
0.329613
0.333576
0.330991
0.350323
0.455085
0.631122
0.784256
0.848868
0.844925
0.826566
0.799314
0.77638
0.773084
0.783356
0.8364
0.24174
0.259538
0.276807
0.300249
0.300444
0.28831
0.306283
0.400881
0.569864
0.753073
0.836294
0.850622
0.85267
0.842179
0.808321
0.791222
0.780984
0.773589
0.78871
0.845362
0.193401
0.212822
0.242073
0.243015
0.25971
0.335275
0.531763
0.719501
0.818176
0.858856
0.869125
0.867267
0.855003
0.838732
0.812043
0.799224
0.795624
0.784539
0.798293
0.849445
0.137222
0.157253
0.22392
0.338834
0.528133
0.688035
0.775277
0.836458
0.888776
0.882741
0.867197
0.857819
0.849585
0.839433
0.821377
0.81513
0.813845
0.797844
0.806276
0.846238
0.279548
0.408139
0.538477
0.674776
0.742376
0.815286
0.856799
0.871301
0.892654
0.890769
0.868642
0.849139
0.839229
0.835393
0.833
0.834856
0.831794
0.809726
0.814228
0.842486
0.557678
0.635644
0.729073
0.786238
0.798938
0.843185
0.871959
0.885769
0.901401
0.898343
0.871447
0.84493
0.836118
0.84165
0.84692
0.849302
0.842032
0.811111
0.814114
0.834682
)
;

boundaryField
{
    inlet
    {
        type            fixedValue;
        value           uniform 1;
    }
    outlet
    {
        type            zeroGradient;
    }
    airfoil
    {
        type            zeroGradient;
    }
    top
    {
        type            symmetryPlane;
    }
    bottom
    {
        type            symmetryPlane;
    }
    defaultFaces
    {
        type            empty;
    }
}


// ************************************************************************* //
