/*--------------------------------*- C++ -*----------------------------------*\
  =========                 |
  \\      /  F ield         | OpenFOAM: The Open Source CFD Toolbox
   \\    /   O peration     | Website:  https://openfoam.org
    \\  /    A nd           | Version:  7
     \\/     M anipulation  |
\*---------------------------------------------------------------------------*/
FoamFile
{
    version     2.0;
    format      ascii;
    class       volScalarField;
    location    "2.4";
    object      T;
}
// * * * * * * * * * * * * * * * * * * * * * * * * * * * * * * * * * * * * * //

dimensions      [0 0 0 1 0 0 0];

internalField   nonuniform List<scalar> 
3700
(
100.612
100.744
100.882
100.931
100.932
100.956
100.989
100.992
101.015
101.056
101.108
101.123
101.114
101.103
101.104
101.101
101.094
101.067
101.038
101.039
100.239
100.301
100.37
100.265
100.195
100.277
100.42
100.41
100.414
100.478
100.603
100.638
100.591
100.516
100.522
100.555
100.542
100.453
100.377
100.371
100.175
100.175
100.131
100.049
99.9477
99.8637
99.8657
99.9092
99.958
99.9938
100.025
100.029
100.027
100.019
100.011
100.008
100.013
100.024
100.034
100.042
100.113
100.118
100.089
100.009
99.8661
99.8364
99.845
99.8871
99.9244
99.9727
100.033
100.05
100.073
100.082
100.08
100.067
100.041
100.036
100.049
100.084
100.051
100.032
100.005
99.9146
99.8394
99.8329
99.8516
99.8825
99.9086
99.9529
100.008
100.047
100.084
100.109
100.12
100.126
100.116
100.104
100.092
100.106
99.9927
99.9615
99.9433
99.8786
99.893
99.9436
99.9826
99.9703
99.9514
99.972
99.9991
100.032
100.074
100.111
100.132
100.152
100.168
100.177
100.177
100.187
99.9146
99.9276
99.9301
99.9209
99.9828
100.076
100.117
100.098
100.093
100.097
100.079
100.082
100.086
100.105
100.126
100.159
100.194
100.22
100.233
100.263
99.8611
99.9298
99.9522
99.9751
100.044
100.136
100.158
100.158
100.187
100.199
100.193
100.191
100.193
100.199
100.196
100.199
100.218
100.257
100.282
100.325
99.8392
99.9631
100.031
100.04
100.082
100.149
100.142
100.164
100.223
100.248
100.258
100.263
100.28
100.289
100.294
100.298
100.301
100.316
100.336
100.387
99.8508
100.029
100.068
100.048
100.083
100.143
100.128
100.158
100.22
100.258
100.284
100.301
100.331
100.344
100.36
100.371
100.381
100.394
100.414
100.45
99.9362
100.029
100.021
100.027
100.104
100.159
100.142
100.2
100.25
100.277
100.309
100.333
100.363
100.383
100.407
100.431
100.451
100.466
100.502
100.493
99.9711
99.8834
99.946
100.044
100.147
100.193
100.233
100.305
100.341
100.385
100.406
100.423
100.436
100.446
100.461
100.486
100.517
100.541
100.578
100.569
99.9403
99.7692
99.9264
100.082
100.163
100.203
100.287
100.367
100.42
100.468
100.483
100.5
100.514
100.528
100.548
100.571
100.596
100.618
100.653
100.654
99.9046
99.7489
99.8946
100.075
100.14
100.181
100.331
100.406
100.474
100.526
100.548
100.567
100.584
100.604
100.634
100.664
100.69
100.711
100.724
100.733
99.8392
99.7264
99.806
99.9865
100.116
100.339
100.48
100.539
100.598
100.623
100.637
100.65
100.666
100.689
100.723
100.752
100.773
100.784
100.779
100.774
99.6501
99.6743
99.7996
100.109
100.382
100.571
100.634
100.681
100.715
100.73
100.739
100.752
100.77
100.792
100.813
100.824
100.821
100.814
100.788
100.743
99.4266
99.709
100.1
100.435
100.629
100.701
100.736
100.771
100.796
100.809
100.82
100.835
100.851
100.855
100.854
100.843
100.791
100.678
100.514
100.274
99.4581
100.079
100.477
100.669
100.77
100.808
100.836
100.86
100.874
100.882
100.883
100.883
100.881
100.857
100.77
100.619
100.356
100.1
100.005
99.9979
100.118
100.527
100.739
100.838
100.883
100.902
100.918
100.922
100.918
100.908
100.895
100.842
100.727
100.469
100.146
100.01
99.9967
99.9985
99.9992
99.9998
100.695
100.835
100.911
100.947
100.961
100.953
100.952
100.929
100.844
100.764
100.576
100.233
100.03
99.9958
99.9978
99.9989
99.9998
100
100
100
100.997
100.994
100.991
100.989
100.982
100.949
100.882
100.45
99.8503
100
100
100
100
100
100
100
100
100
100
100
100.997
100.993
100.987
100.975
100.964
100.858
100.494
100.016
100
100
100
100
100
100
100
100
100
100
100
100
100.991
100.993
100.986
100.965
100.923
100.645
100.041
99.9992
100
100
100
100
100
100
100
100
100
100
100
100
100.987
100.993
100.987
100.952
100.788
100.251
99.9961
100
100
100
100
100
100
100
100
100
100
100
100
100
100.98
100.99
100.984
100.924
100.554
99.9922
100
100
100
100
100
100
100
100
100
100
100
100
100
100
100.976
100.985
100.978
100.826
100.246
100
100
100
100
100
100
100
100
100
100
100
100
100
100
100
100.975
100.983
100.969
100.705
100.006
100
100
100
100
100
100
100
100
100
100
100
100
100
100
100
100.983
100.982
100.926
100.463
99.9981
100
100
100
100
100
100
100
100
100
100
100
100
100
100
100
101.001
100.967
100.82
100.148
100
100
100
100
100
100
100
100
100
100
100
100
100
100
100
100
101.013
100.941
100.683
99.9964
100
100
100
100
100
100
100
100
100
100
100
100
100
100
100
100
101.023
100.904
100.497
100
100
100
100
100
100
100
100
100
100
100
100
100
100
100
100
100
101.028
100.848
100.308
100
100
100
100
100
100
100
100
100
100
100
100
100
100
100
100
100
101.032
100.793
100.104
100
100
100
100
100
100
100
100
100
100
100
100
100
100
100
100
100
101.033
100.735
100.007
100
100
100
100
100
100
100
100
100
100
100
100
100
100
100
100
100
101.017
100.676
100
100
100
100
100
100
100
100
100
100
100
100
100
100
100
100
100
100
100.993
100.582
100
100
100
100
100
100
100
100
100
100
100
100
100
100
100
100
100
100
100.955
100.434
100
100
100
100
100
100
100
100
100
100
100
100
100
100
100
100
100
100
100.906
100.245
100
100
100
100
100
100
100
100
100
100
100
100
100
100
100
100
100
100
100.853
100.005
100
100
100
100
100
100
100
100
100
100
100
100
100
100
100
100
100
100
100.794
100
100
100
100
100
100
100
100
100
100
100
100
100
100
100
100
100
100
100
100.795
100
100
100
100
100
100
100
100
100
100
100
100
100
100
100
100
100
100
100
100.853
100.005
100
100
100
100
100
100
100
100
100
100
100
100
100
100
100
100
100
100
100.906
100.245
100
100
100
100
100
100
100
100
100
100
100
100
100
100
100
100
100
100
100.955
100.434
100
100
100
100
100
100
100
100
100
100
100
100
100
100
100
100
100
100
100.993
100.582
100
100
100
100
100
100
100
100
100
100
100
100
100
100
100
100
100
100
101.017
100.676
100
100
100
100
100
100
100
100
100
100
100
100
100
100
100
100
100
100
101.033
100.735
100.007
100
100
100
100
100
100
100
100
100
100
100
100
100
100
100
100
100
101.032
100.793
100.104
100
100
100
100
100
100
100
100
100
100
100
100
100
100
100
100
100
101.028
100.848
100.308
100
100
100
100
100
100
100
100
100
100
100
100
100
100
100
100
100
101.023
100.904
100.497
100
100
100
100
100
100
100
100
100
100
100
100
100
100
100
100
100
101.013
100.941
100.683
99.9964
100
100
100
100
100
100
100
100
100
100
100
100
100
100
100
100
101.001
100.967
100.82
100.148
100
100
100
100
100
100
100
100
100
100
100
100
100
100
100
100
100.983
100.982
100.926
100.463
99.9981
100
100
100
100
100
100
100
100
100
100
100
100
100
100
100
100.975
100.983
100.969
100.705
100.006
100
100
100
100
100
100
100
100
100
100
100
100
100
100
100
100.976
100.985
100.978
100.826
100.246
100
100
100
100
100
100
100
100
100
100
100
100
100
100
100
100.98
100.99
100.984
100.924
100.554
99.9922
100
100
100
100
100
100
100
100
100
100
100
100
100
100
100.987
100.993
100.987
100.952
100.788
100.252
99.9961
100
100
100
100
100
100
100
100
100
100
100
100
100
100.991
100.993
100.987
100.965
100.924
100.645
100.041
99.9992
100
100
100
100
100
100
100
100
100
100
100
100
100.997
100.993
100.987
100.975
100.964
100.857
100.494
100.016
100
100
100
100
100
100
100
100
100
100
100
100
100.997
100.994
100.991
100.989
100.982
100.949
100.882
100.449
99.8507
100
100
100
100
100
100
100
100
100
100
100
100.695
100.835
100.911
100.947
100.961
100.953
100.952
100.929
100.844
100.764
100.578
100.234
100.03
99.9958
99.9978
99.9989
99.9998
100
100
100
100.12
100.524
100.734
100.837
100.884
100.902
100.918
100.922
100.918
100.908
100.895
100.842
100.728
100.469
100.146
100.01
99.9967
99.9985
99.9992
99.9998
99.4701
100.105
100.484
100.668
100.77
100.809
100.836
100.859
100.873
100.881
100.882
100.883
100.881
100.857
100.77
100.619
100.356
100.1
100.005
99.9979
99.4697
99.7495
100.127
100.447
100.633
100.702
100.737
100.771
100.795
100.808
100.819
100.835
100.85
100.855
100.854
100.843
100.791
100.678
100.515
100.275
99.6598
99.7168
99.7815
100.116
100.403
100.583
100.64
100.682
100.715
100.729
100.738
100.752
100.769
100.792
100.813
100.824
100.821
100.814
100.788
100.743
99.9061
99.772
99.8375
99.9697
100.119
100.356
100.49
100.545
100.602
100.625
100.638
100.65
100.666
100.689
100.723
100.752
100.773
100.784
100.779
100.774
99.9423
99.8132
99.8996
100.048
100.132
100.177
100.334
100.412
100.479
100.529
100.55
100.569
100.585
100.605
100.635
100.664
100.69
100.711
100.725
100.733
99.9461
99.8022
99.9004
100.067
100.153
100.195
100.285
100.366
100.422
100.471
100.486
100.502
100.515
100.529
100.548
100.571
100.596
100.618
100.654
100.654
99.9336
99.8149
99.8871
100.027
100.136
100.18
100.224
100.301
100.341
100.387
100.408
100.425
100.437
100.447
100.461
100.486
100.517
100.541
100.578
100.569
99.8807
99.8856
99.9099
99.9959
100.086
100.135
100.131
100.196
100.252
100.279
100.309
100.333
100.363
100.383
100.407
100.431
100.45
100.466
100.502
100.492
99.8155
99.9156
99.9684
100.012
100.073
100.125
100.121
100.152
100.213
100.252
100.281
100.299
100.331
100.343
100.359
100.37
100.38
100.393
100.414
100.45
99.8191
99.916
99.9709
100.017
100.077
100.131
100.129
100.148
100.212
100.24
100.254
100.261
100.279
100.288
100.293
100.297
100.3
100.315
100.336
100.387
99.8547
99.92
99.9459
99.9775
100.046
100.114
100.13
100.141
100.178
100.193
100.19
100.189
100.192
100.198
100.195
100.198
100.217
100.256
100.281
100.324
99.9282
99.94
99.9271
99.9122
99.9793
100.058
100.091
100.09
100.091
100.098
100.078
100.081
100.084
100.102
100.124
100.158
100.193
100.219
100.232
100.263
100.02
99.9915
99.9444
99.8626
99.8857
99.9447
99.974
99.9746
99.9622
99.9812
100.005
100.034
100.073
100.109
100.13
100.149
100.165
100.175
100.175
100.186
100.095
100.082
100.029
99.8884
99.8328
99.8404
99.8602
99.9023
99.9268
99.9656
100.016
100.05
100.083
100.107
100.116
100.121
100.112
100.1
100.088
100.104
100.189
100.194
100.144
100.011
99.8558
99.8397
99.8538
99.9133
99.9449
99.9888
100.04
100.051
100.071
100.078
100.074
100.06
100.033
100.029
100.045
100.084
100.298
100.268
100.196
100.082
99.9213
99.8582
99.8718
99.9424
99.9799
100.006
100.027
100.026
100.021
100.011
100.002
99.9997
100.007
100.021
100.035
100.043
100.37
100.374
100.423
100.589
100.704
100.68
100.608
100.596
100.61
100.575
100.541
100.571
100.628
100.634
100.589
100.456
100.405
100.436
100.493
100.484
100.678
100.783
100.887
101.038
101.069
101.055
101.022
101.017
101.053
101.077
101.084
101.117
101.132
101.133
101.119
101.079
101.056
101.065
101.073
101.069
101.05
101.03
101.008
100.985
100.952
100.929
100.916
100.908
100.895
100.873
100.844
100.815
100.795
100.795
100.797
100.792
100.752
100.613
100.398
100.129
100.578
100.646
100.685
100.728
100.767
100.79
100.804
100.81
100.808
100.797
100.778
100.757
100.742
100.743
100.753
100.759
100.733
100.618
100.434
100.171
100.023
100.06
100.153
100.279
100.436
100.519
100.578
100.62
100.641
100.644
100.644
100.639
100.631
100.634
100.653
100.687
100.682
100.612
100.485
100.246
100.084
100.091
100.1
100.096
100.123
100.21
100.356
100.447
100.478
100.511
100.533
100.531
100.523
100.523
100.541
100.593
100.612
100.583
100.508
100.31
100.133
100.134
100.136
100.146
100.139
100.128
100.153
100.24
100.335
100.42
100.457
100.466
100.463
100.457
100.464
100.506
100.539
100.532
100.495
100.334
100.184
100.18
100.183
100.183
100.175
100.17
100.171
100.166
100.181
100.258
100.348
100.422
100.434
100.431
100.436
100.457
100.478
100.477
100.459
100.329
100.24
100.231
100.215
100.216
100.215
100.211
100.208
100.201
100.178
100.171
100.203
100.289
100.379
100.415
100.429
100.437
100.437
100.431
100.411
100.301
100.307
100.285
100.252
100.25
100.25
100.242
100.237
100.227
100.208
100.173
100.164
100.166
100.239
100.341
100.415
100.417
100.412
100.397
100.369
100.263
100.369
100.343
100.302
100.275
100.275
100.268
100.261
100.251
100.228
100.2
100.173
100.156
100.152
100.211
100.34
100.393
100.391
100.374
100.339
100.23
100.433
100.405
100.356
100.316
100.301
100.29
100.279
100.267
100.25
100.218
100.194
100.173
100.147
100.146
100.219
100.331
100.366
100.351
100.314
100.206
100.529
100.466
100.408
100.349
100.312
100.3
100.302
100.296
100.279
100.252
100.222
100.196
100.167
100.138
100.138
100.185
100.269
100.287
100.267
100.18
100.616
100.543
100.486
100.44
100.387
100.335
100.319
100.309
100.287
100.264
100.245
100.219
100.182
100.146
100.121
100.096
100.098
100.141
100.167
100.127
100.608
100.585
100.537
100.482
100.436
100.387
100.334
100.301
100.281
100.274
100.264
100.242
100.213
100.175
100.134
100.09
100.066
100.045
100.021
100.008
100.488
100.546
100.541
100.514
100.471
100.428
100.382
100.335
100.307
100.286
100.262
100.236
100.21
100.18
100.146
100.105
100.064
100.027
99.9848
99.9258
100.25
100.377
100.446
100.482
100.473
100.449
100.41
100.365
100.329
100.291
100.247
100.219
100.203
100.184
100.158
100.123
100.076
100.032
99.9785
99.9086
100.043
100.145
100.254
100.336
100.387
100.415
100.406
100.38
100.345
100.306
100.265
100.235
100.205
100.169
100.141
100.117
100.081
100.037
99.9826
99.9105
100.002
100.015
100.065
100.154
100.232
100.289
100.329
100.349
100.339
100.316
100.282
100.242
100.206
100.16
100.118
100.095
100.061
100.024
99.9824
99.9312
100
100
100.003
100.025
100.078
100.148
100.209
100.25
100.281
100.291
100.28
100.253
100.22
100.184
100.141
100.098
100.054
100.018
99.9843
99.9519
100
100
100
100.001
100.006
100.031
100.08
100.139
100.188
100.217
100.238
100.236
100.223
100.199
100.164
100.122
100.085
100.046
100.008
99.9783
100
100
100
100
100
100.001
100.008
100.033
100.08
100.129
100.165
100.189
100.192
100.187
100.173
100.15
100.121
100.089
100.057
100.029
100
100
100
100
100
100
100
100.001
100.009
100.032
100.071
100.112
100.139
100.152
100.149
100.14
100.125
100.106
100.088
100.063
100
100
100
100
100
100
100
100
100
100.001
100.008
100.025
100.055
100.086
100.105
100.11
100.107
100.098
100.086
100.065
100
100
100
100
100
100
100
100
100
100
100
100.001
100.005
100.015
100.033
100.05
100.061
100.064
100.061
100.05
100
100
100
100
100
100
100
100
100
100
100
100
100
100
100.002
100.005
100.011
100.015
100.017
100.015
100
100
100
100
100
100
100
100
100
100
100
100
100
100
100
100
100
100.001
100.001
100.001
100.597
100.653
100.609
100.415
100.142
100.017
100.001
100
100
100
100
100
100
100
100
100.672
100.663
100.518
100.218
100.022
100
100
100
100
100
100
100
100
100
100
100.705
100.637
100.375
100.074
100.002
100
100
100
100
100
100
100
100
100
100
100.719
100.52
100.168
100.009
100
100
100
100
100
100
100
100
100
100
100
100.653
100.287
100.025
100
100
100
100
100
100
100
100
100
100
100
100
100.394
100.038
100
100
100
100
100
100
100
100
100
100
100
100
100
100.042
100
100
100
100
100
100
100
100
100
100
100
100
100
100
99.9995
100
100
100
100
100
100
100
100
100
100
100
100
100
100
100
100
100
100
100
100
100
100
100
100
100
100
100
100
100
100
100
100
100
100
100
100
100
100
100
100
100
100
100
100
100
100
100
100
100
100
100
100
100
100
100
100
100
100
100
100
100
100
100
100
100
100
100
100
100
100
100
100
100
100
100
100
100
100
100
100
100
100
100
100
100
100
100
100
100
100
100
100
100
100
100
100
100
100
100
100
100
100
100
100
100
100
100
100
100
100
100
100
100
100
100
100
100
100
100
100
100
100
100
100
100
100
100
100
100
100
100
100
100
100
100
100
100
100
100
100
100
100
100
100
100
100
100
100
100
100
100
100
100
100
100
100
100
100
100
100
100
100
100
100
100
100
100
100
100
100
100
100
100
100
100
100
100
100
100
100
100
100
100
100
100
100
100
100
100
100
100
100
100
100
100
100
100
100
100
100
100
100
100
100
100
100
100
100
100
100
100
100
100
100
100
100
100
100
100
100
100
100
100
100
100
100
100
100
100
100
100
100
100
100
100
100
100
100
100
100
100
100
100
100
100
100
100
100
100
100
100
100
100
100
100
100
100
100
100
100
100
100
100
100
100
100
100
100
100
100
100
100
100
100
100
100
100
100
100
100
100
100
100
100
100
100
100
100
100
100
100
100
100
100
100
100
100
100
100
100
100
100
100
100
100
100
100
100
100
100
100
100
100
100
100
100
100
100
100
100
100
100
100
100
100
100
100
100
100
100
100
100
100
100
100
100
100
100
100
100
100
100
100
100
100
100
100
100
100
100
100
100
100
100
100
100
100
100
100
100
100
100
100
100
100
100
100
100
100
100
100
100
100
100
100
100
100
100
100
100
100
100
100
100
100
100
100
100
100
100
100
100
100
100
100
100
100
100
100
100
100
100
100
100
100
100
100
100
100
100
100
100
100
100
100
100
100
100
100
100
100
100
100
100
100
100
100
100
100
100
100
100
100
100
100
100
100
100
100
100
100
100
100
100
100
100
100
100
100
100
100
100
100
100
100
100
100
100
100
100
100
100
100
100
100
100
100
100
100
100
100
100
100
100
100
100
100
100
100
100
100
100
100
100
100
100
100
100
100
100
100
100
100
100
100
100
100
100
100
100
100
100
100
100
100
100
100
100
100
100
100
100
100
100
100
100
100
100
100
100
100
100
100
100
100
100
100
100
100
100
100
100
100
100
100
100
100
100
100
100
100
100
100
100
100
100
100
100
100
100
100
100
100
100
100
100
100
100
100
100
100
100
100
100
100
100
100
100
100
100
100
100
100
100
100
100
100
100
100
100
100
100
100
100
100
100
100
100
100
100
100
100
100
100
100
100
100
100
100
100
100
100
100
100
100
100
100
100
100
100
100
100
100
100
100
100
100
100
100
100
100
100
100
100
100
100
100
100
100
100
100
100
100
100
100
100
100
100
100
100
100
100
100
100
100
100
100
100
100
100
100
100
100
100
100
100
100
100
100
100
100
100
100
100
100
100
100
100
100
100
100
100
100
100
100
100
100
100
100
100
100
100
100
100
100
100
100
100
100
100
100
100
100
100
100
100
100
100
100
100
100
100
100
100
100
100
100
100
100
100
100
100
100
100
100
100
100
100
100
100
100
100
100
100
100
100
100
100
100
100
100
100
100
100
100
100
100
100
100
100
100
100
100
100
100
100
100
100
100
100
100
100
100
100
100
100
100
100
100
100
100
100
100
100
100
100
100
100
100
100
100
100
100
100
100
100
100
100
100
100
100
100
100
100
100
100
100
100
100
100
100
100
100
100
100
100
100
100
100
100
100
100
100
100
100
100
100
100
100
100
100
100
100
100
100
100
100
100
100
100
100
100
100
100
100
100
100
100
100
100
100
100
100
100
100
100
100
100
100
100
100
100
100
100
100
100
100
100
100
100
100
100
100
100
100
100
100
100
100
100
100
100
100
100
100
100
100
100
100
100
100
100
100
100
99.9995
100
100
100
100
100
100
100
100
100
100
100
100
100
100
100.042
100
100
100
100
100
100
100
100
100
100
100
100
100
100
100.394
100.038
100
100
100
100
100
100
100
100
100
100
100
100
100
100.653
100.287
100.025
100
100
100
100
100
100
100
100
100
100
100
100
100.719
100.52
100.168
100.009
100
100
100
100
100
100
100
100
100
100
100
100.705
100.637
100.375
100.074
100.002
100
100
100
100
100
100
100
100
100
100
100.672
100.663
100.518
100.218
100.022
100
100
100
100
100
100
100
100
100
100
100.597
100.653
100.609
100.415
100.142
100.017
100.001
100
100
100
100
100
100
100
100
100.529
100.617
100.608
100.488
100.25
100.043
100.002
100
100
100
100
100
100
100
100
100.466
100.543
100.585
100.546
100.377
100.145
100.015
100
100
100
100
100
100
100
100
100.408
100.485
100.537
100.541
100.446
100.254
100.065
100.003
100
100
100
100
100
100
100
100.349
100.44
100.482
100.514
100.482
100.336
100.154
100.025
100.001
100
100
100
100
100
100
100.312
100.388
100.436
100.471
100.473
100.387
100.232
100.078
100.006
100
100
100
100
100
100
100.3
100.335
100.387
100.428
100.449
100.415
100.289
100.148
100.031
100.001
100
100
100
100
100
100.302
100.319
100.334
100.382
100.41
100.406
100.329
100.209
100.08
100.008
100
100
100
100
100
100.296
100.309
100.301
100.335
100.365
100.38
100.349
100.25
100.139
100.033
100.001
100
100
100
100
100.279
100.287
100.281
100.307
100.329
100.345
100.34
100.281
100.188
100.08
100.009
100
100
100
100
100.252
100.264
100.274
100.286
100.291
100.306
100.316
100.291
100.217
100.129
100.032
100.001
100
100
100
100.222
100.245
100.264
100.262
100.247
100.265
100.282
100.28
100.238
100.165
100.071
100.008
100
100
100
100.196
100.219
100.242
100.236
100.219
100.235
100.242
100.253
100.236
100.189
100.112
100.025
100.001
100
100
100.167
100.182
100.213
100.21
100.203
100.205
100.207
100.22
100.223
100.192
100.139
100.055
100.005
100
100
100.138
100.147
100.175
100.18
100.184
100.169
100.16
100.184
100.199
100.187
100.152
100.086
100.015
100
100
100.137
100.121
100.134
100.147
100.158
100.141
100.118
100.142
100.164
100.173
100.149
100.105
100.033
100.002
100
100.183
100.095
100.089
100.105
100.123
100.116
100.094
100.098
100.122
100.15
100.14
100.11
100.05
100.005
100
100.268
100.098
100.066
100.064
100.077
100.082
100.061
100.054
100.085
100.121
100.125
100.107
100.061
100.011
100
100.288
100.141
100.044
100.027
100.033
100.038
100.024
100.017
100.046
100.089
100.106
100.098
100.064
100.015
100.001
100.268
100.166
100.02
99.984
99.9782
99.9834
99.9824
99.9836
100.008
100.057
100.088
100.086
100.061
100.017
100.001
100.182
100.128
100.007
99.9249
99.908
99.9113
99.9314
99.9515
99.9784
100.029
100.063
100.065
100.05
100.015
100.001
100.433
100.405
100.356
100.316
100.3
100.289
100.279
100.266
100.25
100.218
100.195
100.173
100.147
100.145
100.217
100.33
100.367
100.352
100.316
100.208
100.369
100.343
100.302
100.274
100.274
100.268
100.261
100.251
100.229
100.201
100.173
100.156
100.152
100.21
100.338
100.394
100.392
100.375
100.339
100.23
100.307
100.285
100.252
100.25
100.25
100.242
100.237
100.227
100.208
100.174
100.164
100.166
100.238
100.34
100.414
100.419
100.413
100.397
100.368
100.262
100.24
100.231
100.215
100.216
100.215
100.211
100.208
100.201
100.178
100.17
100.202
100.288
100.379
100.415
100.429
100.438
100.438
100.432
100.41
100.3
100.184
100.181
100.183
100.183
100.175
100.17
100.171
100.166
100.181
100.257
100.346
100.421
100.434
100.432
100.437
100.458
100.478
100.477
100.459
100.329
100.132
100.134
100.137
100.146
100.139
100.128
100.152
100.24
100.334
100.418
100.455
100.465
100.463
100.458
100.465
100.507
100.539
100.532
100.495
100.334
100.084
100.092
100.101
100.096
100.123
100.21
100.356
100.446
100.479
100.51
100.532
100.531
100.524
100.524
100.542
100.593
100.611
100.582
100.508
100.311
100.024
100.053
100.151
100.284
100.436
100.52
100.577
100.619
100.643
100.644
100.645
100.642
100.636
100.638
100.656
100.687
100.681
100.611
100.485
100.249
100.561
100.629
100.683
100.733
100.771
100.791
100.803
100.81
100.811
100.801
100.782
100.763
100.748
100.748
100.756
100.76
100.733
100.617
100.435
100.176
101.046
101.02
101.007
100.988
100.955
100.931
100.916
100.909
100.901
100.883
100.853
100.821
100.8
100.797
100.798
100.793
100.752
100.614
100.403
100.138
)
;

boundaryField
{
    inlet
    {
        type            fixedValue;
        value           uniform 100;
    }
    outlet
    {
        type            inletOutlet;
        inletValue      uniform 100;
        value           nonuniform List<scalar> 
50
(
100.18
100.127
100.008
99.9256
99.9084
99.9103
99.9311
99.9519
99.9784
100.029
100.063
100.065
100.049
100.015
100.001
100.128
100.17
100.245
100.309
100.333
100.328
100.301
100.263
100.23
100.206
100.208
100.23
100.261
100.299
100.328
100.333
100.31
100.248
100.175
100.136
100.182
100.128
100.007
99.9248
99.9078
99.911
99.9312
99.9515
99.9785
100.029
100.063
100.065
100.049
100.015
100.001
)
;
    }
    airfoil
    {
        type            zeroGradient;
    }
    top
    {
        type            symmetryPlane;
    }
    bottom
    {
        type            symmetryPlane;
    }
    defaultFaces
    {
        type            empty;
    }
}


// ************************************************************************* //
