/*--------------------------------*- C++ -*----------------------------------*\
  =========                 |
  \\      /  F ield         | OpenFOAM: The Open Source CFD Toolbox
   \\    /   O peration     | Website:  https://openfoam.org
    \\  /    A nd           | Version:  7
     \\/     M anipulation  |
\*---------------------------------------------------------------------------*/
FoamFile
{
    version     2.0;
    format      ascii;
    class       volScalarField;
    location    "1.9";
    object      p;
}
// * * * * * * * * * * * * * * * * * * * * * * * * * * * * * * * * * * * * * //

dimensions      [1 -1 -2 0 0 0 0];

internalField   nonuniform List<scalar> 
3700
(
0.157369
0.224738
0.27159
0.314657
0.31851
0.323341
0.338209
0.364669
0.398189
0.427791
0.455017
0.466373
0.474434
0.467252
0.475849
0.49237
0.501151
0.504075
0.515789
0.520856
0.121066
0.100153
0.109177
0.11643
0.10816
0.108896
0.121481
0.14053
0.147413
0.14789
0.155373
0.162332
0.161216
0.153753
0.156356
0.17304
0.193646
0.200389
0.210338
0.204032
0.12865
0.0939476
0.0748519
0.062095
0.0583871
0.0592173
0.0624661
0.0688576
0.0694489
0.0712653
0.0673739
0.0684272
0.0710537
0.0789195
0.0900555
0.101735
0.11319
0.121681
0.128221
0.13007
0.127637
0.0839575
0.0577475
0.047889
0.0486404
0.054183
0.0654743
0.0795549
0.0909593
0.105547
0.102834
0.104633
0.103406
0.10413
0.109275
0.120339
0.134725
0.152435
0.170076
0.187567
0.121632
0.0763406
0.0494829
0.04224
0.0419213
0.0485124
0.0629201
0.0789401
0.094524
0.113327
0.132001
0.141995
0.146296
0.147101
0.144944
0.143874
0.149457
0.169856
0.196463
0.237265
0.113782
0.0715929
0.0464165
0.0411498
0.0407535
0.0476665
0.0601694
0.07454
0.0909891
0.111427
0.14105
0.160343
0.181413
0.199462
0.211704
0.21266
0.215143
0.220807
0.235676
0.292645
0.10384
0.0668228
0.0424555
0.0414677
0.0418224
0.0531476
0.0681086
0.0774708
0.0911108
0.108641
0.137722
0.164457
0.200325
0.23161
0.259283
0.285366
0.30487
0.321906
0.33342
0.392409
0.0852034
0.0560114
0.0376211
0.0418313
0.0502547
0.0728549
0.0949013
0.106884
0.120237
0.133463
0.147019
0.167408
0.210645
0.254509
0.296592
0.344794
0.389704
0.436188
0.464574
0.547919
0.0633595
0.0424583
0.0320788
0.0409272
0.0563843
0.0829731
0.114553
0.145068
0.174354
0.203679
0.224706
0.247423
0.271782
0.30929
0.353136
0.410442
0.479088
0.555856
0.617637
0.744836
0.046048
0.0323726
0.0282259
0.0414319
0.0581083
0.083434
0.118042
0.159541
0.213948
0.271889
0.319833
0.369289
0.419761
0.47069
0.508449
0.556248
0.619795
0.712351
0.822858
0.966026
0.0339999
0.024883
0.0256975
0.0411879
0.0593574
0.0839789
0.112834
0.155763
0.230568
0.316889
0.394556
0.475458
0.565773
0.641426
0.714758
0.791401
0.869794
0.955974
1.14463
1.13623
0.0263576
0.0200587
0.0214372
0.0392984
0.0691695
0.118058
0.152647
0.197153
0.2758
0.375943
0.490912
0.60284
0.729341
0.835805
0.9609
1.09082
1.21859
1.33089
1.53691
1.49396
0.0211993
0.0167523
0.0181193
0.0451583
0.106119
0.195163
0.2755
0.387458
0.519417
0.646606
0.778569
0.893948
1.0182
1.13663
1.29269
1.48622
1.68071
1.8568
2.09889
2.0795
0.016568
0.0144933
0.0199191
0.0781626
0.172069
0.279898
0.411076
0.586564
0.803395
1.02476
1.19747
1.35608
1.51185
1.66463
1.86368
2.0965
2.34212
2.59321
2.80965
3.00508
0.0127503
0.0144016
0.0427749
0.133861
0.24252
0.356228
0.554292
0.807455
1.13264
1.47093
1.71661
1.94637
2.16793
2.40492
2.70306
2.99568
3.27944
3.53373
3.67512
3.78466
0.00806823
0.0285759
0.0906374
0.189896
0.347086
0.628532
0.990357
1.41126
1.87717
2.26725
2.56386
2.84107
3.11679
3.41944
3.74123
3.95276
4.09015
4.14059
4.04731
3.91836
0.00734623
0.0544129
0.176533
0.345734
0.790798
1.43754
2.02582
2.61971
3.22063
3.58271
3.77868
4.00198
4.21382
4.38094
4.47569
4.40265
4.18943
3.65605
2.79371
1.88716
0.0366185
0.165255
0.488533
1.19113
2.12197
2.88894
3.55424
4.25129
4.79377
4.82916
4.72706
4.72199
4.6792
4.5152
4.01751
3.07468
2.10485
1.339
1.01925
0.992961
0.304899
0.871807
1.98554
3.17064
4.2475
4.91145
5.43882
5.87187
5.73004
5.28472
4.85365
4.30641
3.38485
2.32279
1.42774
1.03042
0.989271
0.994888
0.997319
0.999443
2.32216
3.63047
4.89747
5.71909
6.3479
6.45042
6.53562
6.21447
4.52332
3.20571
2.37019
1.56342
1.08093
0.987499
0.992855
0.996254
0.999145
0.999972
1.00002
1.00001
6.95414
6.91117
6.85914
6.95081
7.07899
6.79043
5.9946
2.31961
0.642813
1
1
1
1
1
1
1
1
1
1
1
6.90412
6.87095
6.76357
6.68597
6.85429
5.85491
2.62309
1.0185
1
1
1
1
1
1
1
1
1
1
1
1
6.82109
6.85673
6.81739
6.60195
6.25234
3.36209
1.03965
0.999279
1
1
1
1
1
1
1
1
1
1
1
1
6.6802
6.84662
6.84108
6.6183
4.7037
1.44508
0.993545
1.00011
0.999999
1
1
1
1
1
1
1
1
1
1
1
6.51256
6.77093
6.80088
6.18068
2.71606
0.975066
1.00036
0.999994
1
1
1
1
1
1
1
1
1
1
1
1
6.43007
6.72756
6.73341
4.93167
1.48472
1
1
1
1
1
1
1
1
1
1
1
1
1
1
1
6.39639
6.73301
6.72462
3.59052
0.972753
1
1
1
1
1
1
1
1
1
1
1
1
1
1
1
6.53816
6.65485
6.03715
2.05163
1
1
1
1
1
1
1
1
1
1
1
1
1
1
1
1
7.00749
6.71219
4.87519
1.16541
1
1
1
1
1
1
1
1
1
1
1
1
1
1
1
1
7.25189
6.354
3.45037
0.988001
1
1
1
1
1
1
1
1
1
1
1
1
1
1
1
1
7.4126
6.00307
2.27636
1
1
1
1
1
1
1
1
1
1
1
1
1
1
1
1
1
7.46434
5.35375
1.61372
1
1
1
1
1
1
1
1
1
1
1
1
1
1
1
1
1
7.50901
4.75787
1.17266
1
1
1
1
1
1
1
1
1
1
1
1
1
1
1
1
1
7.37212
4.0257
1.01736
1
1
1
1
1
1
1
1
1
1
1
1
1
1
1
1
1
7.25756
3.23121
1
1
1
1
1
1
1
1
1
1
1
1
1
1
1
1
1
1
6.95156
2.53239
1
1
1
1
1
1
1
1
1
1
1
1
1
1
1
1
1
1
6.69912
1.83326
1
1
1
1
1
1
1
1
1
1
1
1
1
1
1
1
1
1
6.25177
1.33456
1
1
1
1
1
1
1
1
1
1
1
1
1
1
1
1
1
1
5.77118
1.00473
1
1
1
1
1
1
1
1
1
1
1
1
1
1
1
1
1
1
4.6497
1.00022
1
1
1
1
1
1
1
1
1
1
1
1
1
1
1
1
1
1
4.6497
1.00022
1
1
1
1
1
1
1
1
1
1
1
1
1
1
1
1
1
1
5.7712
1.00473
1
1
1
1
1
1
1
1
1
1
1
1
1
1
1
1
1
1
6.25173
1.33456
1
1
1
1
1
1
1
1
1
1
1
1
1
1
1
1
1
1
6.69914
1.83329
1
1
1
1
1
1
1
1
1
1
1
1
1
1
1
1
1
1
6.95154
2.53242
1
1
1
1
1
1
1
1
1
1
1
1
1
1
1
1
1
1
7.25753
3.2312
1
1
1
1
1
1
1
1
1
1
1
1
1
1
1
1
1
1
7.37214
4.02568
1.01736
1
1
1
1
1
1
1
1
1
1
1
1
1
1
1
1
1
7.50901
4.75788
1.17266
1
1
1
1
1
1
1
1
1
1
1
1
1
1
1
1
1
7.46434
5.35377
1.61373
1
1
1
1
1
1
1
1
1
1
1
1
1
1
1
1
1
7.41259
6.00306
2.27635
1
1
1
1
1
1
1
1
1
1
1
1
1
1
1
1
1
7.25187
6.35398
3.45039
0.988001
1
1
1
1
1
1
1
1
1
1
1
1
1
1
1
1
7.00754
6.71229
4.87524
1.16536
1
1
1
1
1
1
1
1
1
1
1
1
1
1
1
1
6.53814
6.65479
6.03709
2.05174
1
1
1
1
1
1
1
1
1
1
1
1
1
1
1
1
6.39635
6.73292
6.7246
3.59056
0.972751
1
1
1
1
1
1
1
1
1
1
1
1
1
1
1
6.43007
6.72761
6.73346
4.93167
1.48474
1
1
1
1
1
1
1
1
1
1
1
1
1
1
1
6.51258
6.77101
6.80094
6.18061
2.71607
0.975066
1.00036
0.999994
1
1
1
1
1
1
1
1
1
1
1
1
6.68021
6.84664
6.84109
6.6183
4.70369
1.44505
0.993546
1.00011
0.999999
1
1
1
1
1
1
1
1
1
1
1
6.82108
6.85671
6.8174
6.60196
6.25231
3.36204
1.03964
0.999279
1
1
1
1
1
1
1
1
1
1
1
1
6.9041
6.87094
6.76357
6.68597
6.85425
5.85475
2.62302
1.01851
1
1
1
1
1
1
1
1
1
1
1
1
6.95414
6.91117
6.85914
6.95083
7.079
6.79068
5.9947
2.3192
0.642881
1
1
1
1
1
1
1
1
1
1
1
2.32185
3.63095
4.89584
5.71745
6.34581
6.45043
6.5368
6.21549
4.52423
3.20621
2.37039
1.56345
1.08091
0.987498
0.992856
0.996254
0.999145
0.999972
1.00002
1.00001
0.305827
0.869626
1.98872
3.17476
4.24804
4.91017
5.43708
5.87111
5.72959
5.28471
4.85378
4.30666
3.38504
2.32281
1.42769
1.03039
0.989272
0.99489
0.99732
0.999443
0.0364947
0.172417
0.485491
1.18793
2.12259
2.89046
3.5557
4.25242
4.79328
4.8287
4.72679
4.72188
4.67917
4.51528
4.01753
3.07463
2.10472
1.33889
1.01922
0.992961
0.00596062
0.0486222
0.179018
0.348317
0.789713
1.43678
2.02551
2.61935
3.22001
3.58221
3.7785
4.0019
4.21363
4.38076
4.47573
4.40273
4.18951
3.65604
2.79362
1.88706
0.00774406
0.0271027
0.0921439
0.188344
0.349065
0.628232
0.988723
1.41012
1.87657
2.26699
2.56343
2.84049
3.11617
3.41892
3.74105
3.95297
4.09052
4.14073
4.04737
3.91833
0.0130812
0.0149218
0.044313
0.132857
0.244055
0.35867
0.556685
0.809633
1.13454
1.47207
1.7171
1.94652
2.16797
2.40491
2.70316
2.99599
3.27989
3.53398
3.67512
3.78456
0.0164408
0.0147305
0.0207386
0.0772671
0.171932
0.280617
0.412229
0.587442
0.804457
1.02545
1.19798
1.3563
1.51188
1.66457
1.8636
2.09649
2.34225
2.59335
2.80968
3.00498
0.0206154
0.0168791
0.0188529
0.0444106
0.104116
0.19367
0.2743
0.38649
0.518808
0.646303
0.778311
0.893781
1.01801
1.13647
1.29269
1.48631
1.68084
1.8569
2.09883
2.07939
0.0253144
0.0199162
0.0222982
0.0392039
0.0674286
0.116562
0.150752
0.19565
0.274828
0.376014
0.491297
0.603276
0.729692
0.835972
0.960939
1.0908
1.21851
1.33078
1.53683
1.49384
0.0328834
0.0245226
0.0265375
0.0411662
0.0581804
0.0836171
0.112795
0.15596
0.230969
0.317399
0.395187
0.475842
0.565898
0.641401
0.714594
0.791178
0.869568
0.955744
1.14469
1.13637
0.0452594
0.0322167
0.0286064
0.0416727
0.0573866
0.0835427
0.118374
0.159934
0.214463
0.272104
0.319908
0.36916
0.419388
0.470252
0.508069
0.555946
0.619703
0.712466
0.823013
0.966246
0.0627096
0.0425812
0.0323924
0.0415603
0.0559398
0.0830263
0.114947
0.1453
0.174469
0.203415
0.22411
0.246785
0.271404
0.309323
0.353435
0.410801
0.479414
0.556139
0.617839
0.744943
0.0841734
0.0561155
0.0379949
0.0426881
0.0502028
0.0726668
0.0950809
0.106656
0.119915
0.133016
0.146883
0.167966
0.211576
0.255167
0.297024
0.345102
0.389912
0.436328
0.464642
0.547794
0.102268
0.0665412
0.0424892
0.0416691
0.0419609
0.052869
0.0680334
0.0775315
0.0912679
0.109162
0.13868
0.165302
0.20082
0.231883
0.259397
0.28537
0.304816
0.321804
0.333253
0.392006
0.112144
0.0710396
0.0461715
0.0411955
0.0409177
0.047694
0.0602604
0.0749183
0.0914676
0.11233
0.141813
0.160704
0.181437
0.199297
0.211453
0.212388
0.214843
0.220469
0.235341
0.292374
0.120225
0.0758842
0.0493903
0.0423315
0.0422122
0.0486975
0.063185
0.0795282
0.0951022
0.113905
0.132094
0.141634
0.145855
0.146653
0.144616
0.143624
0.149313
0.169809
0.196445
0.237203
0.126593
0.0842848
0.0581398
0.048078
0.0491191
0.0547119
0.0656889
0.0800034
0.0913257
0.105272
0.102197
0.103936
0.10301
0.10391
0.10936
0.120451
0.134809
0.152513
0.17018
0.187672
0.127733
0.0935915
0.0757245
0.0630265
0.0589347
0.0593462
0.0624407
0.0686714
0.0691667
0.0706196
0.0667864
0.0679409
0.0710084
0.0793228
0.0903906
0.101877
0.113289
0.121811
0.128313
0.130238
0.119579
0.101565
0.104899
0.107272
0.120146
0.122043
0.127462
0.139722
0.15624
0.167599
0.163254
0.146557
0.146213
0.160729
0.17786
0.181002
0.185038
0.197066
0.212484
0.202319
0.157413
0.230389
0.26823
0.298597
0.328501
0.345298
0.34592
0.365627
0.400774
0.430951
0.450647
0.455612
0.467719
0.475674
0.489211
0.488338
0.493783
0.506491
0.517513
0.518415
0.56104
0.643938
0.713132
0.76763
0.820604
0.857875
0.836776
0.814667
0.79931
0.787611
0.781844
0.775537
0.776
0.779644
0.78745
0.816868
0.848872
0.889108
0.917365
0.906071
0.275408
0.410093
0.543023
0.662772
0.75261
0.819306
0.832952
0.82165
0.813091
0.806295
0.795058
0.781419
0.77525
0.773141
0.781459
0.807062
0.849484
0.89982
0.90827
0.898833
0.136321
0.160262
0.234718
0.357104
0.512347
0.667134
0.758741
0.775368
0.803066
0.820887
0.807861
0.795101
0.779091
0.754066
0.756458
0.776774
0.820539
0.880127
0.918909
0.908085
0.190787
0.215337
0.242141
0.238345
0.248284
0.311756
0.468923
0.621719
0.733185
0.796116
0.821703
0.810304
0.781999
0.744164
0.743431
0.755839
0.79804
0.871205
0.916073
0.90616
0.242127
0.257029
0.282482
0.290695
0.281435
0.281489
0.288708
0.330927
0.455723
0.662329
0.799346
0.797812
0.78229
0.748655
0.736935
0.744868
0.789042
0.869622
0.911019
0.900782
0.310529
0.324252
0.343535
0.333878
0.31167
0.312309
0.316177
0.312441
0.315892
0.388349
0.624288
0.763934
0.772774
0.760725
0.7413
0.75135
0.797722
0.870483
0.902765
0.894087
0.391476
0.402633
0.413608
0.398086
0.363704
0.363814
0.363168
0.352526
0.333437
0.335377
0.385338
0.595198
0.749756
0.749483
0.75276
0.77457
0.822263
0.87731
0.894165
0.8865
0.516821
0.488337
0.488945
0.47129
0.416363
0.407373
0.402631
0.387743
0.370244
0.349278
0.339808
0.3937
0.591166
0.720249
0.758517
0.798652
0.842667
0.889182
0.887389
0.876826
0.673223
0.600015
0.57384
0.548827
0.474441
0.463523
0.452281
0.427822
0.397534
0.384996
0.354519
0.346866
0.399404
0.583129
0.733484
0.785964
0.845159
0.899088
0.896816
0.873408
0.870492
0.731369
0.672448
0.644825
0.571809
0.526393
0.498924
0.463592
0.429097
0.408781
0.389471
0.352305
0.350321
0.401413
0.555606
0.708221
0.827221
0.890916
0.893714
0.870576
1.29351
0.939714
0.740608
0.688426
0.671764
0.64589
0.618715
0.568443
0.479116
0.428408
0.415588
0.392246
0.36048
0.366969
0.396087
0.477053
0.598394
0.736159
0.830881
0.853282
2.03637
1.52771
1.15012
0.892491
0.818068
0.778252
0.737939
0.681194
0.606823
0.543426
0.491551
0.445712
0.402998
0.388896
0.393306
0.409468
0.445496
0.522979
0.6507
0.788419
2.50022
2.17977
1.73102
1.34329
1.10464
0.915592
0.768683
0.731143
0.711637
0.667806
0.621832
0.564417
0.484204
0.445934
0.439211
0.436056
0.450388
0.506478
0.60335
0.76619
2.36733
2.35204
2.23771
1.92181
1.58663
1.2909
1.01576
0.911592
0.829427
0.738838
0.695838
0.662981
0.600611
0.534097
0.502121
0.489642
0.492393
0.519714
0.595062
0.752331
1.68483
2.14205
2.22429
2.19739
2.0546
1.78206
1.47546
1.22335
1.0421
0.845424
0.75431
0.71895
0.665785
0.597651
0.579032
0.586801
0.605759
0.633502
0.663478
0.765606
1.10713
1.43496
1.85239
2.11711
2.11285
2.06698
1.91352
1.64015
1.40396
1.19165
0.993768
0.861259
0.76039
0.684252
0.675155
0.682408
0.699506
0.734213
0.778745
0.860875
1.0044
1.04489
1.20862
1.55287
1.87364
2.0069
1.9876
1.918
1.77152
1.56515
1.32917
1.1395
1.01738
0.898518
0.806298
0.790852
0.797197
0.823526
0.873586
0.951782
1.00009
1.00113
1.01096
1.0801
1.27668
1.56784
1.81492
1.87192
1.8398
1.76433
1.65411
1.49578
1.33426
1.19704
1.07396
1.00707
1.00589
1.01874
1.04504
1.05525
1
1.00001
1.00017
1.00244
1.02046
1.10122
1.28669
1.51591
1.69475
1.71218
1.67047
1.60198
1.51549
1.42575
1.33032
1.24702
1.19722
1.16686
1.13916
1.07901
1
1
1
1.00002
1.00039
1.00359
1.02549
1.09436
1.2395
1.40349
1.51322
1.52558
1.49857
1.44074
1.37396
1.30424
1.2398
1.18307
1.13418
1.0617
1
1
1
1
1
1.00004
1.0005
1.00355
1.01982
1.06388
1.15144
1.23719
1.29908
1.31187
1.29325
1.25157
1.19701
1.13851
1.08203
1.02461
1
1
1
1
1
1
1
1.00004
1.00035
1.00206
1.00925
1.0265
1.05464
1.08064
1.09133
1.0863
1.06926
1.04318
1.0188
1.00332
1
1
1
1
1
1
1
1
1
1.00002
1.00012
1.00056
1.00186
1.00416
1.00617
1.00641
1.00546
1.00321
1.00108
1.00012
1
1
1
1
1
1
1
1
1
1
1
1
1.00002
1.00005
1.00009
1.0001
1.00009
1.00005
1.00002
1
1
1
1
1
1
1
1
1
1
1
1
1
1
1
1
1
1
1
1
1
1.61341
2.45765
2.5843
2.08639
1.31043
1.0371
1.00189
1.00005
1
1
1
1
1
1
1
2.34385
2.8122
2.52635
1.54075
1.04821
1.0008
1
1
1
1
1
1
1
1
1
2.93029
2.86749
1.97761
1.15221
1.00522
1.00005
1
1
1
1
1
1
1
1
1
3.25036
2.5546
1.36512
1.01957
1.0002
1
1
1
1
1
1
1
1
1
1
3.31791
1.68106
1.04666
1.00048
1
1
1
1
1
1
1
1
1
1
1
2.06511
1.07235
1.00048
0.999999
1
1
1
1
1
1
1
1
1
1
1
1.10121
1.00055
0.999997
1
1
1
1
1
1
1
1
1
1
1
1
0.998164
0.999866
0.999996
1
1
1
1
1
1
1
1
1
1
1
1
0.999967
1
1
1
1
1
1
1
1
1
1
1
1
1
1
1
1
1
1
1
1
1
1
1
1
1
1
1
1
1
1
1
1
1
1
1
1
1
1
1
1
1
1
1
1
1
1
1
1
1
1
1
1
1
1
1
1
1
1
1
1
1
1
1
1
1
1
1
1
1
1
1
1
1
1
1
1
1
1
1
1
1
1
1
1
1
1
1
1
1
1
1
1
1
1
1
1
1
1
1
1
1
1
1
1
1
1
1
1
1
1
1
1
1
1
1
1
1
1
1
1
1
1
1
1
1
1
1
1
1
1
1
1
1
1
1
1
1
1
1
1
1
1
1
1
1
1
1
1
1
1
1
1
1
1
1
1
1
1
1
1
1
1
1
1
1
1
1
1
1
1
1
1
1
1
1
1
1
1
1
1
1
1
1
1
1
1
1
1
1
1
1
1
1
1
1
1
1
1
1
1
1
1
1
1
1
1
1
1
1
1
1
1
1
1
1
1
1
1
1
1
1
1
1
1
1
1
1
1
1
1
1
1
1
1
1
1
1
1
1
1
1
1
1
1
1
1
1
1
1
1
1
1
1
1
1
1
1
1
1
1
1
1
1
1
1
1
1
1
1
1
1
1
1
1
1
1
1
1
1
1
1
1
1
1
1
1
1
1
1
1
1
1
1
1
1
1
1
1
1
1
1
1
1
1
1
1
1
1
1
1
1
1
1
1
1
1
1
1
1
1
1
1
1
1
1
1
1
1
1
1
1
1
1
1
1
1
1
1
1
1
1
1
1
1
1
1
1
1
1
1
1
1
1
1
1
1
1
1
1
1
1
1
1
1
1
1
1
1
1
1
1
1
1
1
1
1
1
1
1
1
1
1
1
1
1
1
1
1
1
1
1
1
1
1
1
1
1
1
1
1
1
1
1
1
1
1
1
1
1
1
1
1
1
1
1
1
1
1
1
1
1
1
1
1
1
1
1
1
1
1
1
1
1
1
1
1
1
1
1
1
1
1
1
1
1
1
1
1
1
1
1
1
1
1
1
1
1
1
1
1
1
1
1
1
1
1
1
1
1
1
1
1
1
1
1
1
1
1
1
1
1
1
1
1
1
1
1
1
1
1
1
1
1
1
1
1
1
1
1
1
1
1
1
1
1
1
1
1
1
1
1
1
1
1
1
1
1
1
1
1
1
1
1
1
1
1
1
1
1
1
1
1
1
1
1
1
1
1
1
1
1
1
1
1
1
1
1
1
1
1
1
1
1
1
1
1
1
1
1
1
1
1
1
1
1
1
1
1
1
1
1
1
1
1
1
1
1
1
1
1
1
1
1
1
1
1
1
1
1
1
1
1
1
1
1
1
1
1
1
1
1
1
1
1
1
1
1
1
1
1
1
1
1
1
1
1
1
1
1
1
1
1
1
1
1
1
1
1
1
1
1
1
1
1
1
1
1
1
1
1
1
1
1
1
1
1
1
1
1
1
1
1
1
1
1
1
1
1
1
1
1
1
1
1
1
1
1
1
1
1
1
1
1
1
1
1
1
1
1
1
1
1
1
1
1
1
1
1
1
1
1
1
1
1
1
1
1
1
1
1
1
1
1
1
1
1
1
1
1
1
1
1
1
1
1
1
1
1
1
1
1
1
1
1
1
1
1
1
1
1
1
1
1
1
1
1
1
1
1
1
1
1
1
1
1
1
1
1
1
1
1
1
1
1
1
1
1
1
1
1
1
1
1
1
1
1
1
1
1
1
1
1
1
1
1
1
1
1
1
1
1
1
1
1
1
1
1
1
1
1
1
1
1
1
1
1
1
1
1
1
1
1
1
1
1
1
1
1
1
1
1
1
1
1
1
1
1
1
1
1
1
1
1
1
1
1
1
1
1
1
1
1
1
1
1
1
1
1
1
1
1
1
1
1
0.999967
1
1
1
1
1
1
1
1
1
1
1
1
1
1
0.998164
0.999866
0.999996
1
1
1
1
1
1
1
1
1
1
1
1
1.1012
1.00055
0.999997
1
1
1
1
1
1
1
1
1
1
1
1
2.06508
1.07234
1.00048
0.999999
1
1
1
1
1
1
1
1
1
1
1
3.31783
1.68107
1.04666
1.00048
1
1
1
1
1
1
1
1
1
1
1
3.25028
2.55455
1.36512
1.01957
1.0002
1
1
1
1
1
1
1
1
1
1
2.93026
2.86748
1.97762
1.15221
1.00522
1.00005
1
1
1
1
1
1
1
1
1
2.34378
2.81222
2.52633
1.54074
1.04821
1.0008
1
1
1
1
1
1
1
1
1
1.61355
2.4577
2.58431
2.08633
1.3104
1.0371
1.00189
1.00005
1
1
1
1
1
1
1
1.29313
2.0364
2.50018
2.36745
1.68494
1.10712
1.00439
1.00009
1
1
1
1
1
1
1
0.939313
1.52723
2.18007
2.35206
2.14203
1.43502
1.04491
1.00113
1.00001
1
1
1
1
1
1
0.74221
1.15125
1.73035
2.23762
2.22428
1.85241
1.20866
1.01096
1.00017
1
1
1
1
1
1
0.687962
0.892882
1.34322
1.92183
2.19755
2.11716
1.55284
1.08009
1.00244
1.00002
1
1
1
1
1
0.670655
0.817647
1.10486
1.58668
2.05464
2.11284
1.87355
1.27658
1.02044
1.00039
1
1
1
1
1
0.645039
0.778398
0.917108
1.29081
1.78165
2.067
2.00689
1.56774
1.10116
1.00359
1.00004
1
1
1
1
0.618582
0.737298
0.76688
1.01648
1.47606
1.91347
1.9876
1.81486
1.28663
1.02549
1.0005
1
1
1
1
0.567889
0.680641
0.731516
0.912193
1.22411
1.64043
1.91806
1.87195
1.51592
1.09437
1.00356
1.00004
1
1
1
0.480998
0.607922
0.711209
0.829014
1.0424
1.40449
1.77178
1.83984
1.69478
1.23953
1.01983
1.00035
1
1
1
0.429522
0.544848
0.667127
0.737924
0.845666
1.19202
1.56519
1.76433
1.71218
1.40351
1.06389
1.00206
1.00002
1
1
0.414621
0.492469
0.622289
0.695192
0.753781
0.994448
1.32874
1.654
1.67046
1.51323
1.15145
1.00925
1.00012
1
1
0.390089
0.444483
0.566516
0.663048
0.717923
0.861439
1.13962
1.4958
1.60197
1.52558
1.23719
1.0265
1.00056
1
1
0.359546
0.401633
0.486899
0.60268
0.665017
0.759139
1.01746
1.33416
1.51548
1.49856
1.29907
1.05464
1.00186
1.00002
1
0.36652
0.388151
0.446899
0.537246
0.597327
0.681997
0.898483
1.19687
1.42574
1.44073
1.31186
1.08063
1.00416
1.00005
1
0.394973
0.392342
0.438287
0.503249
0.579857
0.673374
0.806682
1.07399
1.33034
1.37396
1.29324
1.09133
1.00617
1.00009
1
0.474678
0.408034
0.433954
0.491542
0.588014
0.680917
0.790894
1.00709
1.24709
1.30424
1.25157
1.08629
1.00641
1.0001
1
0.597017
0.444629
0.447214
0.494863
0.607895
0.698438
0.797125
1.0058
1.19717
1.23979
1.197
1.06926
1.00546
1.00009
1
0.735
0.522017
0.505617
0.521556
0.636683
0.733843
0.823114
1.0184
1.16672
1.18302
1.13849
1.04318
1.00321
1.00005
1
0.826199
0.650494
0.603231
0.596092
0.666407
0.779025
0.872813
1.04446
1.13899
1.13409
1.08202
1.0188
1.00108
1.00002
1
0.850411
0.788301
0.766415
0.752613
0.76686
0.860938
0.950937
1.05476
1.07886
1.06164
1.02461
1.00333
1.00012
1
1
0.870387
0.731517
0.673081
0.644511
0.570525
0.525761
0.499183
0.464265
0.428552
0.408601
0.389155
0.350744
0.349487
0.40073
0.553439
0.708491
0.826471
0.893935
0.897674
0.872581
0.67341
0.599864
0.574029
0.548566
0.473652
0.463424
0.45271
0.428426
0.397467
0.384847
0.353981
0.345368
0.396563
0.577356
0.732169
0.788731
0.845341
0.902183
0.901567
0.877976
0.517294
0.487172
0.488751
0.471064
0.416091
0.407894
0.403153
0.387925
0.370167
0.349454
0.339199
0.390989
0.587399
0.720612
0.761202
0.800721
0.845845
0.892571
0.889988
0.877413
0.391402
0.402231
0.413518
0.397896
0.363689
0.364154
0.36358
0.352627
0.332874
0.334963
0.384969
0.591625
0.751595
0.753075
0.75866
0.779914
0.82699
0.878451
0.893077
0.885378
0.310484
0.324183
0.343062
0.333985
0.311977
0.312394
0.316507
0.312321
0.315576
0.388351
0.620406
0.769434
0.775973
0.764216
0.746218
0.755942
0.80116
0.868564
0.899076
0.892158
0.242298
0.256749
0.282204
0.291159
0.282264
0.282029
0.289166
0.331205
0.456976
0.661501
0.799155
0.801313
0.785638
0.750515
0.738138
0.745375
0.788124
0.867186
0.908025
0.89957
0.190879
0.215129
0.24161
0.238104
0.248178
0.311399
0.468465
0.619703
0.734218
0.795234
0.822791
0.810084
0.782509
0.744875
0.742171
0.753605
0.795842
0.871851
0.916611
0.906401
0.136309
0.160326
0.235185
0.357473
0.511902
0.665863
0.758294
0.773426
0.802641
0.823057
0.809335
0.796437
0.779195
0.752173
0.752313
0.771367
0.815312
0.881557
0.921664
0.909621
0.272871
0.410049
0.544268
0.663442
0.753547
0.819971
0.832407
0.820379
0.809862
0.805122
0.794722
0.782346
0.776138
0.766911
0.774663
0.797178
0.837211
0.883633
0.909998
0.900788
0.560239
0.644015
0.713434
0.767826
0.821087
0.8581
0.847466
0.828866
0.81305
0.797123
0.781969
0.775619
0.77684
0.781277
0.792495
0.821089
0.861467
0.898901
0.917942
0.906646
)
;

boundaryField
{
    inlet
    {
        type            fixedValue;
        value           uniform 1;
    }
    outlet
    {
        type            zeroGradient;
    }
    airfoil
    {
        type            zeroGradient;
    }
    top
    {
        type            symmetryPlane;
    }
    bottom
    {
        type            symmetryPlane;
    }
    defaultFaces
    {
        type            empty;
    }
}


// ************************************************************************* //
