/*--------------------------------*- C++ -*----------------------------------*\
  =========                 |
  \\      /  F ield         | OpenFOAM: The Open Source CFD Toolbox
   \\    /   O peration     | Website:  https://openfoam.org
    \\  /    A nd           | Version:  7
     \\/     M anipulation  |
\*---------------------------------------------------------------------------*/
FoamFile
{
    version     2.0;
    format      ascii;
    class       volScalarField;
    location    "1.9";
    object      rho;
}
// * * * * * * * * * * * * * * * * * * * * * * * * * * * * * * * * * * * * * //

dimensions      [1 -3 0 0 0 0 0];

internalField   nonuniform List<scalar> 
3700
(
0.219069
0.31232
0.37715
0.436841
0.442237
0.44884
0.469125
0.505305
0.551326
0.592253
0.629838
0.645574
0.656789
0.647023
0.659049
0.68185
0.693997
0.698106
0.714404
0.721522
0.169157
0.139953
0.152429
0.16248
0.150984
0.151949
0.16926
0.195575
0.205151
0.205859
0.216211
0.225818
0.22432
0.214198
0.218007
0.241195
0.269811
0.279254
0.293104
0.284387
0.179683
0.131293
0.104655
0.0868729
0.0817112
0.0828901
0.0874441
0.0963848
0.0972358
0.0997975
0.0943797
0.0958609
0.0995343
0.110527
0.126087
0.142408
0.158422
0.170297
0.179446
0.182044
0.178172
0.117326
0.080796
0.0670567
0.06811
0.0758574
0.0916353
0.111309
0.127252
0.147646
0.143889
0.146439
0.144761
0.1458
0.152993
0.168435
0.188537
0.213275
0.237919
0.262348
0.169752
0.106705
0.0692902
0.059195
0.0587536
0.067965
0.0880869
0.110454
0.13222
0.158484
0.184573
0.198553
0.20458
0.205746
0.202784
0.201339
0.209154
0.237642
0.274776
0.33171
0.158801
0.100108
0.065027
0.0576861
0.0571363
0.0667982
0.0842698
0.104346
0.127317
0.15584
0.197194
0.224153
0.253562
0.278783
0.295902
0.297278
0.300799
0.308755
0.329542
0.409008
0.14499
0.0934816
0.0595073
0.0581385
0.0586406
0.074483
0.0953956
0.108463
0.127513
0.151981
0.192584
0.229911
0.279961
0.323622
0.362247
0.398645
0.425889
0.449695
0.465783
0.548058
0.119085
0.0784203
0.0527587
0.0586521
0.0704452
0.10203
0.132846
0.1496
0.168254
0.186696
0.205604
0.234067
0.294409
0.355606
0.414299
0.481497
0.544103
0.608929
0.648521
0.764606
0.0886502
0.0595022
0.0450108
0.0573844
0.0789949
0.116123
0.160222
0.202838
0.243729
0.284648
0.31401
0.345711
0.37972
0.432064
0.493198
0.573048
0.668659
0.775583
0.861652
1.03869
0.0644839
0.0454007
0.0396144
0.0580856
0.0813883
0.116731
0.165035
0.222956
0.298845
0.379642
0.446507
0.515471
0.585811
0.656822
0.709468
0.776095
0.864603
0.993433
1.14721
1.34633
0.0476427
0.034913
0.0360634
0.0577294
0.083082
0.117422
0.157715
0.21763
0.321944
0.442279
0.550526
0.663254
0.789032
0.894448
0.996573
1.10328
1.21235
1.33224
1.59453
1.5829
0.0369532
0.0281522
0.0300812
0.0550558
0.0967012
0.164908
0.213193
0.275265
0.384909
0.524516
0.684695
0.840577
1.01666
1.16487
1.33892
1.51961
1.69721
1.85322
2.13933
2.07976
0.0297375
0.0235205
0.0254232
0.0632022
0.148225
0.272385
0.384397
0.540323
0.724035
0.901027
1.08475
1.24539
1.41834
1.58315
1.80014
2.06902
2.33903
2.5834
2.91927
2.8924
0.0232606
0.0203591
0.0279245
0.10928
0.240214
0.390423
0.573109
0.817307
1.1189
1.42667
1.66691
1.88747
2.10407
2.31639
2.59282
2.916
3.25675
3.60494
3.90515
4.17642
0.0179208
0.0202349
0.0599074
0.186993
0.33842
0.496741
0.772341
1.12443
1.57643
2.04647
2.38791
2.70709
3.01472
3.3435
3.75692
4.16258
4.55601
4.90872
5.10534
5.25782
0.0113575
0.0401101
0.126815
0.265154
0.483975
0.87534
1.37828
1.96305
2.61005
3.15181
3.56362
3.94822
4.33043
4.74964
5.19553
5.48867
5.67954
5.74996
5.62183
5.44516
0.0103478
0.0762667
0.246604
0.482126
1.10071
1.99874
2.81538
3.63945
4.47318
4.97544
5.24713
5.55644
5.84962
6.08127
6.21284
6.11211
5.81902
5.08393
3.89111
2.63474
0.0515016
0.231045
0.680885
1.65664
2.94799
4.01195
4.93461
5.90094
6.65303
6.70173
6.5601
6.55303
6.49372
6.26757
5.58145
4.2778
2.93608
1.87265
1.42687
1.39018
0.426336
1.21416
2.75937
4.40201
5.89406
6.81416
7.54498
8.14557
7.94915
7.33206
6.73495
5.9789
4.70483
3.23676
1.9959
1.44244
1.38503
1.39287
1.39626
1.39923
3.22852
5.04051
6.79435
7.93128
8.80213
8.94511
9.06365
8.62037
6.27988
4.45417
3.29938
2.18373
1.51285
1.38256
1.39003
1.39478
1.39881
1.39997
1.40003
1.40002
9.63959
9.58022
9.50843
9.63563
9.81407
9.41771
8.32009
3.23298
0.901321
1.40001
1.40001
1.40001
1.40001
1.40001
1.40001
1.40001
1.40001
1.40001
1.40001
1.40001
9.57066
9.52484
9.37659
9.27009
9.50466
8.12598
3.65411
1.4257
1.40001
1.40001
1.40001
1.40001
1.40001
1.40001
1.40001
1.40001
1.40001
1.40001
1.40001
1.40001
9.45598
9.50528
9.45123
9.15459
8.6739
4.67738
1.455
1.399
1.40001
1.40001
1.40001
1.40001
1.40001
1.40001
1.40001
1.40001
1.40001
1.40001
1.40001
1.40001
9.26117
9.49135
9.48411
9.17817
6.53385
2.01825
1.39102
1.40016
1.4
1.40001
1.40001
1.40001
1.40001
1.40001
1.40001
1.40001
1.40001
1.40001
1.40001
1.40001
9.02932
9.38667
9.42856
8.57374
3.78101
1.36521
1.40051
1.4
1.40001
1.40001
1.40001
1.40001
1.40001
1.40001
1.40001
1.40001
1.40001
1.40001
1.40001
1.40001
8.91521
9.32673
9.33531
6.84718
2.07274
1.40001
1.40001
1.40001
1.40001
1.40001
1.40001
1.40001
1.40001
1.40001
1.40001
1.40001
1.40001
1.40001
1.40001
1.40001
8.86859
9.33434
9.32355
4.99154
1.36196
1.40001
1.40001
1.40001
1.40001
1.40001
1.40001
1.40001
1.40001
1.40001
1.40001
1.40001
1.40001
1.40001
1.40001
1.40001
9.0644
9.22686
8.37527
2.8588
1.40001
1.40001
1.40001
1.40001
1.40001
1.40001
1.40001
1.40001
1.40001
1.40001
1.40001
1.40001
1.40001
1.40001
1.40001
1.40001
9.71315
9.30688
6.77
1.62954
1.40001
1.40001
1.40001
1.40001
1.40001
1.40001
1.40001
1.40001
1.40001
1.40001
1.40001
1.40001
1.40001
1.40001
1.40001
1.40001
10.0508
8.81285
4.79799
1.38325
1.40001
1.40001
1.40001
1.40001
1.40001
1.40001
1.40001
1.40001
1.40001
1.40001
1.40001
1.40001
1.40001
1.40001
1.40001
1.40001
10.2725
8.32892
3.17108
1.40001
1.40001
1.40001
1.40001
1.40001
1.40001
1.40001
1.40001
1.40001
1.40001
1.40001
1.40001
1.40001
1.40001
1.40001
1.40001
1.40001
10.3437
7.43198
2.252
1.40001
1.40001
1.40001
1.40001
1.40001
1.40001
1.40001
1.40001
1.40001
1.40001
1.40001
1.40001
1.40001
1.40001
1.40001
1.40001
1.40001
10.4051
6.60822
1.6398
1.40001
1.40001
1.40001
1.40001
1.40001
1.40001
1.40001
1.40001
1.40001
1.40001
1.40001
1.40001
1.40001
1.40001
1.40001
1.40001
1.40001
10.2155
5.59462
1.42414
1.40001
1.40001
1.40001
1.40001
1.40001
1.40001
1.40001
1.40001
1.40001
1.40001
1.40001
1.40001
1.40001
1.40001
1.40001
1.40001
1.40001
10.0589
4.49363
1.40001
1.40001
1.40001
1.40001
1.40001
1.40001
1.40001
1.40001
1.40001
1.40001
1.40001
1.40001
1.40001
1.40001
1.40001
1.40001
1.40001
1.40001
9.63752
3.52502
1.40001
1.40001
1.40001
1.40001
1.40001
1.40001
1.40001
1.40001
1.40001
1.40001
1.40001
1.40001
1.40001
1.40001
1.40001
1.40001
1.40001
1.40001
9.29091
2.55594
1.40001
1.40001
1.40001
1.40001
1.40001
1.40001
1.40001
1.40001
1.40001
1.40001
1.40001
1.40001
1.40001
1.40001
1.40001
1.40001
1.40001
1.40001
8.67422
1.86434
1.40001
1.40001
1.40001
1.40001
1.40001
1.40001
1.40001
1.40001
1.40001
1.40001
1.40001
1.40001
1.40001
1.40001
1.40001
1.40001
1.40001
1.40001
8.00981
1.40657
1.40001
1.40001
1.40001
1.40001
1.40001
1.40001
1.40001
1.40001
1.40001
1.40001
1.40001
1.40001
1.40001
1.40001
1.40001
1.40001
1.40001
1.40001
6.45704
1.40032
1.40001
1.40001
1.40001
1.40001
1.40001
1.40001
1.40001
1.40001
1.40001
1.40001
1.40001
1.40001
1.40001
1.40001
1.40001
1.40001
1.40001
1.40001
6.45704
1.40032
1.40001
1.40001
1.40001
1.40001
1.40001
1.40001
1.40001
1.40001
1.40001
1.40001
1.40001
1.40001
1.40001
1.40001
1.40001
1.40001
1.40001
1.40001
8.00983
1.40657
1.40001
1.40001
1.40001
1.40001
1.40001
1.40001
1.40001
1.40001
1.40001
1.40001
1.40001
1.40001
1.40001
1.40001
1.40001
1.40001
1.40001
1.40001
8.67417
1.86434
1.40001
1.40001
1.40001
1.40001
1.40001
1.40001
1.40001
1.40001
1.40001
1.40001
1.40001
1.40001
1.40001
1.40001
1.40001
1.40001
1.40001
1.40001
9.29094
2.55597
1.40001
1.40001
1.40001
1.40001
1.40001
1.40001
1.40001
1.40001
1.40001
1.40001
1.40001
1.40001
1.40001
1.40001
1.40001
1.40001
1.40001
1.40001
9.6375
3.52506
1.40001
1.40001
1.40001
1.40001
1.40001
1.40001
1.40001
1.40001
1.40001
1.40001
1.40001
1.40001
1.40001
1.40001
1.40001
1.40001
1.40001
1.40001
10.0588
4.49362
1.40001
1.40001
1.40001
1.40001
1.40001
1.40001
1.40001
1.40001
1.40001
1.40001
1.40001
1.40001
1.40001
1.40001
1.40001
1.40001
1.40001
1.40001
10.2155
5.59459
1.42414
1.40001
1.40001
1.40001
1.40001
1.40001
1.40001
1.40001
1.40001
1.40001
1.40001
1.40001
1.40001
1.40001
1.40001
1.40001
1.40001
1.40001
10.4051
6.60823
1.6398
1.40001
1.40001
1.40001
1.40001
1.40001
1.40001
1.40001
1.40001
1.40001
1.40001
1.40001
1.40001
1.40001
1.40001
1.40001
1.40001
1.40001
10.3437
7.432
2.25201
1.40001
1.40001
1.40001
1.40001
1.40001
1.40001
1.40001
1.40001
1.40001
1.40001
1.40001
1.40001
1.40001
1.40001
1.40001
1.40001
1.40001
10.2725
8.3289
3.17108
1.40001
1.40001
1.40001
1.40001
1.40001
1.40001
1.40001
1.40001
1.40001
1.40001
1.40001
1.40001
1.40001
1.40001
1.40001
1.40001
1.40001
10.0507
8.81282
4.798
1.38326
1.40001
1.40001
1.40001
1.40001
1.40001
1.40001
1.40001
1.40001
1.40001
1.40001
1.40001
1.40001
1.40001
1.40001
1.40001
1.40001
9.71322
9.307
6.77007
1.62947
1.40001
1.40001
1.40001
1.40001
1.40001
1.40001
1.40001
1.40001
1.40001
1.40001
1.40001
1.40001
1.40001
1.40001
1.40001
1.40001
9.06437
9.22678
8.37519
2.85895
1.40001
1.40001
1.40001
1.40001
1.40001
1.40001
1.40001
1.40001
1.40001
1.40001
1.40001
1.40001
1.40001
1.40001
1.40001
1.40001
8.86853
9.33421
9.32352
4.99158
1.36196
1.40001
1.40001
1.40001
1.40001
1.40001
1.40001
1.40001
1.40001
1.40001
1.40001
1.40001
1.40001
1.40001
1.40001
1.40001
8.9152
9.3268
9.33539
6.84718
2.07277
1.40001
1.40001
1.40001
1.40001
1.40001
1.40001
1.40001
1.40001
1.40001
1.40001
1.40001
1.40001
1.40001
1.40001
1.40001
9.02935
9.38677
9.42865
8.57364
3.78103
1.36521
1.40051
1.4
1.40001
1.40001
1.40001
1.40001
1.40001
1.40001
1.40001
1.40001
1.40001
1.40001
1.40001
1.40001
9.26119
9.49138
9.48411
9.17817
6.53384
2.01821
1.39102
1.40016
1.4
1.40001
1.40001
1.40001
1.40001
1.40001
1.40001
1.40001
1.40001
1.40001
1.40001
1.40001
9.45597
9.50525
9.45124
9.15461
8.67387
4.67731
1.45498
1.399
1.40001
1.40001
1.40001
1.40001
1.40001
1.40001
1.40001
1.40001
1.40001
1.40001
1.40001
1.40001
9.57063
9.52481
9.37659
9.27009
9.50461
8.12576
3.65401
1.42572
1.40001
1.40001
1.40001
1.40001
1.40001
1.40001
1.40001
1.40001
1.40001
1.40001
1.40001
1.40001
9.63958
9.58022
9.50843
9.63565
9.81409
9.41806
8.32023
3.23241
0.901415
1.40001
1.40001
1.40001
1.40001
1.40001
1.40001
1.40001
1.40001
1.40001
1.40001
1.40001
3.22809
5.04117
6.79209
7.929
8.79925
8.94513
9.06528
8.62177
6.28114
4.45487
3.29966
2.18377
1.51283
1.38256
1.39003
1.39478
1.39881
1.39997
1.40003
1.40002
0.427634
1.21115
2.76379
4.40771
5.8948
6.81239
7.54257
8.14451
7.94853
7.33204
6.73513
5.97925
4.70508
3.2368
1.99583
1.44241
1.38503
1.39287
1.39626
1.39923
0.0513239
0.241027
0.676659
1.65222
2.94887
4.01407
4.93664
5.9025
6.65234
6.7011
6.55971
6.55287
6.49369
6.26768
5.58148
4.27774
2.9359
1.8725
1.42683
1.39018
0.00840172
0.0681487
0.250065
0.485714
1.09921
1.99769
2.81497
3.63896
4.47232
4.97475
5.24688
5.55633
5.84936
6.08102
6.2129
6.11221
5.81912
5.08392
3.89099
2.6346
0.0109016
0.0380325
0.128922
0.262991
0.486724
0.874926
1.37602
1.96146
2.60922
3.15146
3.56303
3.94741
4.32957
4.74893
5.19527
5.48897
5.68005
5.75015
5.62192
5.44512
0.0183856
0.0209616
0.0620642
0.185595
0.340558
0.500141
0.775672
1.12746
1.57906
2.04805
2.38859
2.70729
3.01477
3.34348
3.75706
4.16302
4.55663
4.90906
5.10534
5.25768
0.0230872
0.0206922
0.0290744
0.108031
0.240024
0.391423
0.574713
0.818527
1.12037
1.42763
1.66762
1.88778
2.10411
2.3163
2.59271
2.91598
3.25693
3.60514
3.90519
4.17628
0.0289285
0.0237021
0.0264519
0.0621577
0.145431
0.270303
0.382723
0.538972
0.723184
0.900604
1.08439
1.24516
1.41808
1.58293
1.80013
2.06915
2.33921
2.58353
2.91918
2.89224
0.0355033
0.0279572
0.031287
0.0549239
0.0942705
0.162822
0.210548
0.273168
0.383555
0.524615
0.68523
0.841182
1.01715
1.16511
1.33898
1.51959
1.6971
1.85307
2.13921
2.07958
0.046091
0.0344119
0.0372391
0.0577002
0.0814407
0.116922
0.157665
0.217907
0.322503
0.442989
0.551405
0.663787
0.789207
0.894414
0.996345
1.10297
1.21204
1.33192
1.59461
1.58309
0.0633901
0.0451846
0.0401465
0.0584233
0.0803814
0.116885
0.165501
0.223505
0.299564
0.379942
0.446611
0.515291
0.585292
0.656212
0.708939
0.775675
0.864475
0.993593
1.14742
1.34664
0.0877495
0.0596748
0.0454489
0.0582706
0.0783743
0.116198
0.160772
0.203162
0.243889
0.28428
0.313179
0.344822
0.379194
0.43211
0.493613
0.573547
0.669113
0.775977
0.861933
1.03884
0.117655
0.0785665
0.0532812
0.0598511
0.0703735
0.101767
0.133096
0.14928
0.167803
0.18607
0.205412
0.234845
0.295706
0.356521
0.414899
0.481925
0.544392
0.609124
0.648616
0.764433
0.142803
0.0930897
0.0595542
0.0584202
0.0588345
0.0740927
0.0952887
0.108546
0.127731
0.152708
0.19392
0.231089
0.28065
0.324002
0.362406
0.39865
0.425815
0.449553
0.465551
0.547498
0.15652
0.0993366
0.0646847
0.0577502
0.0573663
0.0668365
0.084396
0.104874
0.127984
0.157099
0.198259
0.224656
0.253595
0.278552
0.295552
0.296899
0.300382
0.308285
0.329077
0.40863
0.167793
0.106068
0.0691607
0.0593227
0.0591601
0.068223
0.0884554
0.111274
0.133026
0.159291
0.184702
0.198049
0.203965
0.205122
0.202328
0.20099
0.208953
0.237575
0.274751
0.331624
0.176718
0.117782
0.0813431
0.0673205
0.0687779
0.0765956
0.091935
0.111935
0.127763
0.147262
0.143001
0.145467
0.14421
0.145494
0.153112
0.168592
0.188654
0.213384
0.238064
0.262495
0.178405
0.130796
0.105871
0.0881714
0.0824751
0.0830711
0.087409
0.0961255
0.096842
0.0988964
0.0935595
0.0951818
0.0994712
0.11109
0.126554
0.142607
0.158561
0.170478
0.179574
0.18228
0.167085
0.14192
0.146516
0.149787
0.167565
0.170082
0.17761
0.19458
0.217299
0.232998
0.227033
0.204065
0.203713
0.223839
0.247663
0.252178
0.25794
0.274663
0.296086
0.282013
0.219152
0.32009
0.372674
0.414772
0.455975
0.479
0.479725
0.506695
0.554873
0.596471
0.62376
0.630785
0.647686
0.65862
0.677291
0.676181
0.683823
0.70148
0.716814
0.718151
0.777339
0.892341
0.988353
1.0641
1.13789
1.18987
1.16096
1.13067
1.10976
1.09371
1.0857
1.07699
1.07798
1.08436
1.09768
1.14116
1.18753
1.24456
1.28443
1.26882
0.383421
0.570537
0.754913
0.92096
1.04563
1.13816
1.15712
1.14155
1.12985
1.12041
1.10464
1.08557
1.07721
1.07534
1.08897
1.12692
1.18792
1.25934
1.27172
1.25872
0.190795
0.224251
0.328038
0.498367
0.714303
0.929418
1.05653
1.07942
1.11777
1.14233
1.12381
1.10553
1.08327
1.04905
1.05374
1.08379
1.14668
1.23142
1.2865
1.27165
0.26688
0.301185
0.338637
0.333364
0.347223
0.435681
0.654535
0.867095
1.02205
1.10932
1.14442
1.12784
1.08825
1.03582
1.03552
1.0541
1.11464
1.21851
1.2824
1.26897
0.338524
0.359352
0.394924
0.406411
0.393536
0.393613
0.403675
0.462498
0.636305
0.923792
1.11416
1.1114
1.08949
1.04273
1.02678
1.03876
1.10184
1.21602
1.27522
1.26146
0.433946
0.453122
0.480058
0.466623
0.435688
0.436581
0.441978
0.436775
0.44159
0.542559
0.870995
1.06488
1.07688
1.06014
1.03334
1.04801
1.11395
1.21713
1.26359
1.2521
0.546803
0.562386
0.577711
0.556107
0.508199
0.508353
0.50746
0.492653
0.466084
0.468827
0.538465
0.830533
1.04536
1.04502
1.0498
1.08074
1.14836
1.22667
1.25152
1.24148
0.721394
0.681793
0.682646
0.658066
0.581544
0.569027
0.562444
0.541743
0.517403
0.488238
0.475079
0.550207
0.825104
1.00473
1.05826
1.11469
1.17707
1.24332
1.24204
1.22795
0.939099
0.837247
0.800811
0.766002
0.66243
0.647238
0.631614
0.5976
0.555455
0.538035
0.495616
0.485007
0.55828
0.814118
1.02379
1.09739
1.1808
1.25723
1.25516
1.22316
1.21344
1.01995
0.938019
0.899627
0.798036
0.734813
0.6966
0.647451
0.599453
0.5712
0.54436
0.492614
0.489932
0.561225
0.776233
0.989433
1.15605
1.24593
1.2508
1.21919
1.8012
1.30971
1.03294
0.960403
0.937262
0.901276
0.863494
0.79355
0.669183
0.598591
0.5808
0.548352
0.504132
0.513304
0.554115
0.667403
0.837295
1.03028
1.16318
1.19501
2.83341
2.12711
1.60247
1.24437
1.14101
1.0857
1.02966
0.950728
0.847188
0.758925
0.686738
0.62297
0.563514
0.543997
0.550372
0.573309
0.624203
0.732826
0.911672
1.10444
3.47915
3.03386
2.41036
1.8716
1.53988
1.27705
1.07272
1.02053
0.993388
0.932397
0.868464
0.788587
0.676883
0.623712
0.614608
0.610609
0.631164
0.709878
0.845587
1.07343
3.29818
3.27493
3.11594
2.67676
2.21079
1.79964
1.4169
1.27204
1.15776
1.03168
0.971906
0.926263
0.839485
0.746926
0.702613
0.685641
0.690029
0.728474
0.834031
1.05408
2.35288
2.98764
3.1002
3.06158
2.8629
2.48377
2.05726
1.70657
1.45435
1.18053
1.05375
1.00467
0.930767
0.835906
0.810258
0.821587
0.848587
0.88767
0.92973
1.07264
1.54933
2.00604
2.58676
2.95399
2.94655
2.88187
2.66818
2.2877
1.95897
1.66345
1.38797
1.20353
1.06315
0.957143
0.944814
0.955411
0.97979
1.02852
1.09089
1.20575
1.40614
1.46263
1.69095
2.17063
2.61694
2.80159
2.77351
2.6762
2.47209
2.18471
1.85613
1.59207
1.42213
1.25664
1.12825
1.10716
1.11643
1.15335
1.2234
1.33269
1.40013
1.40158
1.4153
1.51176
1.78594
2.19173
2.53568
2.61436
2.569
2.46368
2.3101
2.08958
1.86468
1.67366
1.50228
1.40927
1.40795
1.42603
1.46282
1.47712
1.40001
1.40002
1.40024
1.40342
1.42855
1.54123
1.79996
2.11948
2.36863
2.39247
2.33422
2.2387
2.11821
1.99329
1.86041
1.74442
1.6751
1.63283
1.59422
1.51029
1.40001
1.40001
1.40001
1.40004
1.40055
1.40502
1.43558
1.53169
1.73416
1.96283
2.11579
2.133
2.09534
2.0147
1.92162
1.82446
1.73462
1.65549
1.58727
1.48612
1.40001
1.40001
1.40001
1.40001
1.40001
1.40006
1.40071
1.40497
1.42767
1.48915
1.61131
1.73096
1.81732
1.83519
1.80921
1.75106
1.67494
1.59332
1.51451
1.43436
1.40001
1.40001
1.40001
1.40001
1.40001
1.40001
1.40001
1.40006
1.40049
1.40287
1.41292
1.43699
1.47626
1.51254
1.52747
1.52045
1.49668
1.46027
1.42624
1.40464
1.40001
1.40001
1.40001
1.40001
1.40001
1.40001
1.40001
1.40001
1.40001
1.40003
1.40018
1.40079
1.4026
1.40581
1.40861
1.40895
1.40763
1.40449
1.40152
1.40018
1.40001
1.40001
1.40001
1.40001
1.40001
1.40001
1.40001
1.40001
1.40001
1.40001
1.40001
1.40001
1.40003
1.40007
1.40012
1.40014
1.40013
1.40008
1.40003
1.40001
1.40001
1.40001
1.40001
1.40001
1.40001
1.40001
1.40001
1.40001
1.40001
1.40001
1.40001
1.40001
1.40001
1.40001
1.40001
1.40001
1.40001
1.40001
1.40001
1.40001
2.24542
3.41841
3.59609
2.90884
1.832
1.4517
1.40264
1.40007
1.40001
1.40001
1.40001
1.40001
1.40001
1.40001
1.40001
3.25956
3.9112
3.51866
2.15238
1.46718
1.40112
1.40001
1.4
1.40001
1.40001
1.40001
1.40001
1.40001
1.40001
1.40001
4.07375
3.98917
2.75836
1.61191
1.40728
1.40008
1.40001
1.40001
1.40001
1.40001
1.40001
1.40001
1.40001
1.40001
1.40001
4.51804
3.55806
1.90799
1.42727
1.40028
1.40001
1.40001
1.40001
1.40001
1.40001
1.40001
1.40001
1.40001
1.40001
1.40001
4.61513
2.34688
1.46498
1.40067
1.40001
1.40001
1.40001
1.40001
1.40001
1.40001
1.40001
1.40001
1.40001
1.40001
1.40001
2.87983
1.50073
1.40068
1.4
1.4
1.40001
1.40001
1.40001
1.40001
1.40001
1.40001
1.40001
1.40001
1.40001
1.40001
1.54105
1.40078
1.4
1.4
1.40001
1.40001
1.40001
1.40001
1.40001
1.40001
1.40001
1.40001
1.40001
1.40001
1.40001
1.39744
1.39982
1.4
1.40001
1.40001
1.40001
1.40001
1.40001
1.40001
1.40001
1.40001
1.40001
1.40001
1.40001
1.40001
1.39996
1.40001
1.40001
1.40001
1.40001
1.40001
1.40001
1.40001
1.40001
1.40001
1.40001
1.40001
1.40001
1.40001
1.40001
1.40001
1.40001
1.40001
1.40001
1.40001
1.40001
1.40001
1.40001
1.40001
1.40001
1.40001
1.40001
1.40001
1.40001
1.40001
1.40001
1.40001
1.40001
1.40001
1.40001
1.40001
1.40001
1.40001
1.40001
1.40001
1.40001
1.40001
1.40001
1.40001
1.40001
1.40001
1.40001
1.40001
1.40001
1.40001
1.40001
1.40001
1.40001
1.40001
1.40001
1.40001
1.40001
1.40001
1.40001
1.40001
1.40001
1.40001
1.40001
1.40001
1.40001
1.40001
1.40001
1.40001
1.40001
1.40001
1.40001
1.40001
1.40001
1.40001
1.40001
1.40001
1.40001
1.40001
1.40001
1.40001
1.40001
1.40001
1.40001
1.40001
1.40001
1.40001
1.40001
1.40001
1.40001
1.40001
1.40001
1.40001
1.40001
1.40001
1.40001
1.40001
1.40001
1.40001
1.40001
1.40001
1.40001
1.40001
1.40001
1.40001
1.40001
1.40001
1.40001
1.40001
1.40001
1.40001
1.40001
1.40001
1.40001
1.40001
1.40001
1.40001
1.40001
1.40001
1.40001
1.40001
1.40001
1.40001
1.40001
1.40001
1.40001
1.40001
1.40001
1.40001
1.40001
1.40001
1.40001
1.40001
1.40001
1.40001
1.40001
1.40001
1.40001
1.40001
1.40001
1.40001
1.40001
1.40001
1.40001
1.40001
1.40001
1.40001
1.40001
1.40001
1.40001
1.40001
1.40001
1.40001
1.40001
1.40001
1.40001
1.40001
1.40001
1.40001
1.40001
1.40001
1.40001
1.40001
1.40001
1.40001
1.40001
1.40001
1.40001
1.40001
1.40001
1.40001
1.40001
1.40001
1.40001
1.40001
1.40001
1.40001
1.40001
1.40001
1.40001
1.40001
1.40001
1.40001
1.40001
1.40001
1.40001
1.40001
1.40001
1.40001
1.40001
1.40001
1.40001
1.40001
1.40001
1.40001
1.40001
1.40001
1.40001
1.40001
1.40001
1.40001
1.40001
1.40001
1.40001
1.40001
1.40001
1.40001
1.40001
1.40001
1.40001
1.40001
1.40001
1.40001
1.40001
1.40001
1.40001
1.40001
1.40001
1.40001
1.40001
1.40001
1.40001
1.40001
1.40001
1.40001
1.40001
1.40001
1.40001
1.40001
1.40001
1.40001
1.40001
1.40001
1.40001
1.40001
1.40001
1.40001
1.40001
1.40001
1.40001
1.40001
1.40001
1.40001
1.40001
1.40001
1.40001
1.40001
1.40001
1.40001
1.40001
1.40001
1.40001
1.40001
1.40001
1.40001
1.40001
1.40001
1.40001
1.40001
1.40001
1.40001
1.40001
1.40001
1.40001
1.40001
1.40001
1.40001
1.40001
1.40001
1.40001
1.40001
1.40001
1.40001
1.40001
1.40001
1.40001
1.40001
1.40001
1.40001
1.40001
1.40001
1.40001
1.40001
1.40001
1.40001
1.40001
1.40001
1.40001
1.40001
1.40001
1.40001
1.40001
1.40001
1.40001
1.40001
1.40001
1.40001
1.40001
1.40001
1.40001
1.40001
1.40001
1.40001
1.40001
1.40001
1.40001
1.40001
1.40001
1.40001
1.40001
1.40001
1.40001
1.40001
1.40001
1.40001
1.40001
1.40001
1.40001
1.40001
1.40001
1.40001
1.40001
1.40001
1.40001
1.40001
1.40001
1.40001
1.40001
1.40001
1.40001
1.40001
1.40001
1.40001
1.40001
1.40001
1.40001
1.40001
1.40001
1.40001
1.40001
1.40001
1.40001
1.40001
1.40001
1.40001
1.40001
1.40001
1.40001
1.40001
1.40001
1.40001
1.40001
1.40001
1.40001
1.40001
1.40001
1.40001
1.40001
1.40001
1.40001
1.40001
1.40001
1.40001
1.40001
1.40001
1.40001
1.40001
1.40001
1.40001
1.40001
1.40001
1.40001
1.40001
1.40001
1.40001
1.40001
1.40001
1.40001
1.40001
1.40001
1.40001
1.40001
1.40001
1.40001
1.40001
1.40001
1.40001
1.40001
1.40001
1.40001
1.40001
1.40001
1.40001
1.40001
1.40001
1.40001
1.40001
1.40001
1.40001
1.40001
1.40001
1.40001
1.40001
1.40001
1.40001
1.40001
1.40001
1.40001
1.40001
1.40001
1.40001
1.40001
1.40001
1.40001
1.40001
1.40001
1.40001
1.40001
1.40001
1.40001
1.40001
1.40001
1.40001
1.40001
1.40001
1.40001
1.40001
1.40001
1.40001
1.40001
1.40001
1.40001
1.40001
1.40001
1.40001
1.40001
1.40001
1.40001
1.40001
1.40001
1.40001
1.40001
1.40001
1.40001
1.40001
1.40001
1.40001
1.40001
1.40001
1.40001
1.40001
1.40001
1.40001
1.40001
1.40001
1.40001
1.40001
1.40001
1.40001
1.40001
1.40001
1.40001
1.40001
1.40001
1.40001
1.40001
1.40001
1.40001
1.40001
1.40001
1.40001
1.40001
1.40001
1.40001
1.40001
1.40001
1.40001
1.40001
1.40001
1.40001
1.40001
1.40001
1.40001
1.40001
1.40001
1.40001
1.40001
1.40001
1.40001
1.40001
1.40001
1.40001
1.40001
1.40001
1.40001
1.40001
1.40001
1.40001
1.40001
1.40001
1.40001
1.40001
1.40001
1.40001
1.40001
1.40001
1.40001
1.40001
1.40001
1.40001
1.40001
1.40001
1.40001
1.40001
1.40001
1.40001
1.40001
1.40001
1.40001
1.40001
1.40001
1.40001
1.40001
1.40001
1.40001
1.40001
1.40001
1.40001
1.40001
1.40001
1.40001
1.40001
1.40001
1.40001
1.40001
1.40001
1.40001
1.40001
1.40001
1.40001
1.40001
1.40001
1.40001
1.40001
1.40001
1.40001
1.40001
1.40001
1.40001
1.40001
1.40001
1.40001
1.40001
1.40001
1.40001
1.40001
1.40001
1.40001
1.40001
1.40001
1.40001
1.40001
1.40001
1.40001
1.40001
1.40001
1.40001
1.40001
1.40001
1.40001
1.40001
1.40001
1.40001
1.40001
1.40001
1.40001
1.40001
1.40001
1.40001
1.40001
1.40001
1.40001
1.40001
1.40001
1.40001
1.40001
1.40001
1.40001
1.40001
1.40001
1.40001
1.40001
1.40001
1.40001
1.40001
1.40001
1.40001
1.40001
1.40001
1.40001
1.40001
1.40001
1.40001
1.40001
1.40001
1.40001
1.40001
1.40001
1.40001
1.40001
1.40001
1.40001
1.40001
1.40001
1.40001
1.40001
1.40001
1.40001
1.40001
1.40001
1.40001
1.40001
1.40001
1.40001
1.40001
1.40001
1.40001
1.40001
1.40001
1.40001
1.40001
1.40001
1.40001
1.40001
1.40001
1.40001
1.40001
1.40001
1.40001
1.40001
1.40001
1.40001
1.40001
1.40001
1.40001
1.40001
1.40001
1.40001
1.40001
1.40001
1.40001
1.40001
1.40001
1.40001
1.40001
1.40001
1.40001
1.40001
1.40001
1.40001
1.40001
1.40001
1.40001
1.40001
1.40001
1.40001
1.40001
1.40001
1.40001
1.40001
1.40001
1.40001
1.40001
1.40001
1.40001
1.40001
1.40001
1.40001
1.40001
1.40001
1.40001
1.40001
1.40001
1.40001
1.40001
1.40001
1.40001
1.40001
1.40001
1.40001
1.40001
1.40001
1.40001
1.40001
1.40001
1.40001
1.40001
1.40001
1.40001
1.40001
1.40001
1.40001
1.40001
1.40001
1.40001
1.40001
1.40001
1.40001
1.40001
1.40001
1.40001
1.40001
1.40001
1.40001
1.40001
1.40001
1.40001
1.40001
1.40001
1.40001
1.40001
1.40001
1.40001
1.40001
1.40001
1.40001
1.40001
1.40001
1.40001
1.40001
1.40001
1.40001
1.40001
1.40001
1.40001
1.40001
1.40001
1.40001
1.40001
1.40001
1.40001
1.40001
1.40001
1.40001
1.40001
1.40001
1.40001
1.40001
1.40001
1.40001
1.40001
1.40001
1.40001
1.40001
1.40001
1.40001
1.40001
1.40001
1.40001
1.40001
1.40001
1.40001
1.40001
1.40001
1.40001
1.40001
1.40001
1.40001
1.40001
1.40001
1.40001
1.40001
1.40001
1.40001
1.40001
1.40001
1.40001
1.40001
1.40001
1.40001
1.40001
1.40001
1.40001
1.40001
1.40001
1.40001
1.40001
1.40001
1.40001
1.40001
1.40001
1.40001
1.40001
1.40001
1.40001
1.40001
1.40001
1.40001
1.40001
1.40001
1.40001
1.40001
1.40001
1.40001
1.40001
1.40001
1.40001
1.40001
1.40001
1.40001
1.40001
1.40001
1.40001
1.40001
1.40001
1.40001
1.40001
1.40001
1.40001
1.40001
1.40001
1.40001
1.40001
1.40001
1.40001
1.40001
1.40001
1.40001
1.40001
1.40001
1.40001
1.40001
1.40001
1.40001
1.40001
1.40001
1.40001
1.40001
1.40001
1.40001
1.40001
1.40001
1.40001
1.40001
1.40001
1.40001
1.39996
1.40001
1.40001
1.40001
1.40001
1.40001
1.40001
1.40001
1.40001
1.40001
1.40001
1.40001
1.40001
1.40001
1.40001
1.39744
1.39982
1.4
1.40001
1.40001
1.40001
1.40001
1.40001
1.40001
1.40001
1.40001
1.40001
1.40001
1.40001
1.40001
1.54103
1.40078
1.4
1.4
1.40001
1.40001
1.40001
1.40001
1.40001
1.40001
1.40001
1.40001
1.40001
1.40001
1.40001
2.87978
1.50072
1.40068
1.4
1.4
1.40001
1.40001
1.40001
1.40001
1.40001
1.40001
1.40001
1.40001
1.40001
1.40001
4.61503
2.34688
1.46498
1.40067
1.40001
1.40001
1.40001
1.40001
1.40001
1.40001
1.40001
1.40001
1.40001
1.40001
1.40001
4.51794
3.55799
1.90798
1.42727
1.40028
1.40001
1.40001
1.40001
1.40001
1.40001
1.40001
1.40001
1.40001
1.40001
1.40001
4.07371
3.98915
2.75838
1.61191
1.40728
1.40008
1.40001
1.40001
1.40001
1.40001
1.40001
1.40001
1.40001
1.40001
1.40001
3.25946
3.91122
3.51864
2.15236
1.46718
1.40112
1.40001
1.4
1.40001
1.40001
1.40001
1.40001
1.40001
1.40001
1.40001
2.24562
3.41848
3.59611
2.90877
1.83196
1.45169
1.40264
1.40007
1.40001
1.40001
1.40001
1.40001
1.40001
1.40001
1.40001
1.80067
2.83345
3.47909
3.29835
2.35302
1.54931
1.40614
1.40013
1.40001
1.40001
1.40001
1.40001
1.40001
1.40001
1.40001
1.30915
2.12644
3.03428
3.27496
2.98761
2.00613
1.46265
1.40158
1.40002
1.40001
1.40001
1.40001
1.40001
1.40001
1.40001
1.03517
1.60404
2.40944
3.11582
3.10018
2.58679
1.69101
1.41531
1.40024
1.40001
1.40001
1.40001
1.40001
1.40001
1.40001
0.959757
1.24492
1.87151
2.67679
3.06179
2.95407
2.17059
1.51175
1.40342
1.40004
1.40001
1.40001
1.40001
1.40001
1.40001
0.935719
1.14042
1.54019
2.21086
2.86296
2.94653
2.61682
1.78579
1.42854
1.40055
1.40001
1.40001
1.40001
1.40001
1.40001
0.900093
1.0859
1.27916
1.79952
2.4832
2.8819
2.80158
2.19158
1.54116
1.40501
1.40006
1.40001
1.40001
1.40001
1.40001
0.86331
1.02877
1.07021
1.4179
2.0581
2.66812
2.77351
2.53561
1.79988
1.43557
1.40071
1.40001
1.40001
1.40001
1.40001
0.79278
0.949959
1.02104
1.27287
1.70763
2.28809
2.67629
2.61442
2.11949
1.53169
1.40497
1.40006
1.40001
1.40001
1.40001
0.671805
0.84872
0.992793
1.15718
1.45477
1.9597
2.47246
2.56905
2.36868
1.7342
1.42768
1.40049
1.40001
1.40001
1.40001
0.600141
0.760907
0.931453
1.03041
1.18087
1.66397
2.18477
2.46369
2.39247
1.96287
1.48916
1.40287
1.40003
1.40001
1.40001
0.579451
0.688016
0.869099
0.971006
1.05302
1.38891
1.85553
2.30995
2.33421
2.1158
1.61132
1.41292
1.40018
1.40001
1.40001
0.545343
0.621252
0.791513
0.926358
1.00323
1.20378
1.59224
2.08962
2.23869
2.13299
1.73095
1.43699
1.40079
1.40001
1.40001
0.50283
0.561608
0.680641
0.84237
0.929697
1.06141
1.42225
1.86455
2.1182
2.09532
1.81731
1.47625
1.4026
1.40003
1.40001
0.512678
0.542956
0.625056
0.751318
0.835456
0.953998
1.25659
1.67341
1.99328
2.01469
1.83518
1.51254
1.40581
1.40007
1.40001
0.552565
0.549027
0.613317
0.704185
0.811413
0.942329
1.12878
1.50232
1.86044
1.92162
1.8092
1.52747
1.40861
1.40012
1.40001
0.664095
0.571309
0.607672
0.688294
0.823279
0.953328
1.10722
1.40929
1.74452
1.82446
1.75106
1.52044
1.40895
1.40014
1.40001
0.835373
0.622995
0.626726
0.693475
0.851569
0.978298
1.11633
1.40783
1.67503
1.7346
1.67493
1.49667
1.40763
1.40013
1.40001
1.02867
0.731483
0.708668
0.731051
0.892117
1.02801
1.15278
1.42556
1.63263
1.65541
1.59329
1.46028
1.40449
1.40008
1.40001
1.15665
0.911389
0.84542
0.835471
0.933823
1.09128
1.22233
1.46201
1.59399
1.58715
1.51449
1.42625
1.40152
1.40003
1.40001
1.19101
1.10428
1.07375
1.05448
1.07439
1.20583
1.33151
1.47643
1.51008
1.48604
1.43436
1.40465
1.40018
1.40001
1.40001
1.21329
1.02016
0.9389
0.89919
0.796249
0.733935
0.696963
0.64839
0.598694
0.570948
0.543919
0.490435
0.488773
0.560278
0.773222
0.989819
1.155
1.25013
1.25632
1.22199
0.939358
0.837037
0.801074
0.765639
0.661332
0.647101
0.632213
0.598443
0.555361
0.537827
0.494865
0.48292
0.554325
0.806092
1.02196
1.10125
1.18105
1.26155
1.26179
1.22954
0.722052
0.680172
0.682375
0.657752
0.581166
0.569755
0.563172
0.541996
0.517295
0.488481
0.474232
0.546435
0.819867
1.00523
1.06199
1.11757
1.1815
1.24805
1.24567
1.22877
0.5467
0.561825
0.577586
0.555843
0.508179
0.508827
0.508035
0.492792
0.465299
0.468249
0.537955
0.825579
1.04792
1.05001
1.05799
1.08816
1.15494
1.22827
1.25001