/*--------------------------------*- C++ -*----------------------------------*\
  =========                 |
  \\      /  F ield         | OpenFOAM: The Open Source CFD Toolbox
   \\    /   O peration     | Website:  https://openfoam.org
    \\  /    A nd           | Version:  7
     \\/     M anipulation  |
\*---------------------------------------------------------------------------*/
FoamFile
{
    version     2.0;
    format      ascii;
    class       volScalarField;
    location    "1.9";
    object      T;
}
// * * * * * * * * * * * * * * * * * * * * * * * * * * * * * * * * * * * * * //

dimensions      [0 0 0 1 0 0 0];

internalField   nonuniform List<scalar> 
3700
(
100.57
100.741
100.816
100.842
100.832
100.855
100.931
101.036
101.114
101.124
101.141
101.139
101.13
101.102
101.084
101.096
101.097
101.089
101.078
101.064
100.199
100.187
100.275
100.321
100.292
100.332
100.481
100.597
100.599
100.577
100.607
100.641
100.616
100.493
100.409
100.44
100.48
100.462
100.467
100.443
100.238
100.179
100.132
100.07
100.038
100.017
100.01
100.017
99.9929
99.9742
99.9408
99.9349
99.9409
99.9641
99.9933
100.015
100.028
100.034
100.036
100.03
100.292
100.183
100.063
99.9823
99.9808
99.9988
100.032
100.061
100.072
100.082
100.055
100.033
100.005
99.9876
99.9953
100.023
100.042
100.063
100.079
100.094
100.314
100.162
99.9799
99.9007
99.8916
99.9303
100.002
100.056
100.086
100.11
100.124
100.121
100.115
100.095
100.068
100.042
100.041
100.066
100.099
100.139
100.311
100.123
99.9328
99.8678
99.8577
99.9028
99.9617
100.01
100.053
100.102
100.14
100.146
100.165
100.167
100.164
100.151
100.134
100.122
100.123
100.17
100.267
100.076
99.8834
99.8562
99.8483
99.8978
99.9547
99.9967
100.034
100.077
100.118
100.143
100.177
100.195
100.207
100.218
100.219
100.217
100.216
100.24
100.168
99.9947
99.8312
99.85
99.8746
99.9679
100.012
100.026
100.046
100.082
100.109
100.13
100.168
100.199
100.225
100.253
100.273
100.285
100.291
100.325
100.06
99.8987
99.7772
99.85
99.9283
100.034
100.095
100.127
100.151
100.177
100.185
100.197
100.204
100.218
100.242
100.274
100.309
100.338
100.353
100.393
99.9744
99.8263
99.7527
99.861
99.9552
100.066
100.136
100.181
100.228
100.265
100.282
100.298
100.317
100.327
100.333
100.342
100.36
100.389
100.418
100.454
99.9103
99.7802
99.7594
99.8854
100.022
100.126
100.16
100.202
100.265
100.309
100.337
100.36
100.387
100.397
100.411
100.424
100.442
100.46
100.499
100.495
99.8583
99.7515
99.7704
99.9314
100.141
100.226
100.241
100.273
100.315
100.344
100.377
100.405
100.435
100.451
100.474
100.496
100.52
100.542
100.578
100.567
99.8034
99.7144
99.7794
100.031
100.231
100.31
100.339
100.392
100.435
100.469
100.484
100.493
100.503
100.514
100.535
100.565
100.597
100.625
100.657
100.654
99.7192
99.6641
99.865
100.136
100.285
100.368
100.419
100.475
100.524
100.561
100.573
100.585
100.595
100.609
100.63
100.655
100.683
100.709
100.726
100.735
99.608
99.6412
99.9629
100.221
100.328
100.399
100.475
100.534
100.589
100.627
100.643
100.659
100.677
100.7
100.729
100.754
100.773
100.785
100.78
100.774
99.4545
99.7415
100.061
100.265
100.402
100.526
100.596
100.648
100.69
100.709
100.724
100.742
100.764
100.791
100.813
100.824
100.822
100.815
100.79
100.745
99.3909
99.8841
100.22
100.395
100.583
100.692
100.738
100.774
100.799
100.811
100.82
100.834
100.85
100.856
100.856
100.845
100.794
100.68
100.516
100.277
99.5428
100.135
100.45
100.661
100.772
100.812
100.838
100.863
100.876
100.882
100.881
100.882
100.88
100.857
100.772
100.626
100.365
100.104
100.006
99.9979
100.123
100.525
100.739
100.838
100.89
100.908
100.92
100.922
100.918
100.908
100.894
100.838
100.722
100.468
100.147
100.01
99.9966
99.9985
99.9992
99.9998
100.697
100.836
100.914
100.952
100.965
100.956
100.952
100.927
100.841
100.76
100.573
100.232
100.03
99.9958
99.9977
99.9989
99.9998
100
100
100
100.998
100.996
100.993
100.992
100.984
100.944
100.87
100.448
99.847
100
100
100
100
100
100
100
100
100
100
100
100.994
100.992
100.986
100.974
100.961
100.873
100.499
100.014
100
100
100
100
100
100
100
100
100
100
100
100
100.99
100.991
100.986
100.963
100.915
100.632
100.035
99.9994
100
100
100
100
100
100
100
100
100
100
100
100
100.984
100.99
100.985
100.953
100.786
100.241
99.9964
100
100
100
100
100
100
100
100
100
100
100
100
100
100.978
100.987
100.983
100.924
100.568
99.992
100
100
100
100
100
100
100
100
100
100
100
100
100
100
100.975
100.985
100.98
100.835
100.283
100
100
100
100
100
100
100
100
100
100
100
100
100
100
100
100.974
100.985
100.975
100.705
99.9925
100
100
100
100
100
100
100
100
100
100
100
100
100
100
100
100.983
100.975
100.917
100.472
100
100
100
100
100
100
100
100
100
100
100
100
100
100
100
100
101.002
100.97
100.817
100.125
100
100
100
100
100
100
100
100
100
100
100
100
100
100
100
100
101.014
100.939
100.678
99.9965
100
100
100
100
100
100
100
100
100
100
100
100
100
100
100
100
101.024
100.905
100.499
100
100
100
100
100
100
100
100
100
100
100
100
100
100
100
100
100
101.029
100.852
100.321
100
100
100
100
100
100
100
100
100
100
100
100
100
100
100
100
100
101.034
100.799
100.117
100
100
100
100
100
100
100
100
100
100
100
100
100
100
100
100
100
101.033
100.74
100.012
100
100
100
100
100
100
100
100
100
100
100
100
100
100
100
100
100
101.012
100.669
100
100
100
100
100
100
100
100
100
100
100
100
100
100
100
100
100
100
100.983
100.577
100
100
100
100
100
100
100
100
100
100
100
100
100
100
100
100
100
100
100.946
100.416
100
100
100
100
100
100
100
100
100
100
100
100
100
100
100
100
100
100
100.903
100.218
100
100
100
100
100
100
100
100
100
100
100
100
100
100
100
100
100
100
100.872
100.004
100
100
100
100
100
100
100
100
100
100
100
100
100
100
100
100
100
100
100.814
100
100
100
100
100
100
100
100
100
100
100
100
100
100
100
100
100
100
100
100.814
100
100
100
100
100
100
100
100
100
100
100
100
100
100
100
100
100
100
100
100.872
100.004
100
100
100
100
100
100
100
100
100
100
100
100
100
100
100
100
100
100
100.903
100.218
100
100
100
100
100
100
100
100
100
100
100
100
100
100
100
100
100
100
100.946
100.416
100
100
100
100
100
100
100
100
100
100
100
100
100
100
100
100
100
100
100.983
100.577
100
100
100
100
100
100
100
100
100
100
100
100
100
100
100
100
100
100
101.012
100.669
100
100
100
100
100
100
100
100
100
100
100
100
100
100
100
100
100
100
101.033
100.74
100.012
100
100
100
100
100
100
100
100
100
100
100
100
100
100
100
100
100
101.034
100.799
100.117
100
100
100
100
100
100
100
100
100
100
100
100
100
100
100
100
100
101.029
100.852
100.321
100
100
100
100
100
100
100
100
100
100
100
100
100
100
100
100
100
101.024
100.905
100.499
100
100
100
100
100
100
100
100
100
100
100
100
100
100
100
100
100
101.014
100.939
100.678
99.9965
100
100
100
100
100
100
100
100
100
100
100
100
100
100
100
100
101.002
100.97
100.817
100.125
100
100
100
100
100
100
100
100
100
100
100
100
100
100
100
100
100.983
100.975
100.917
100.472
100
100
100
100
100
100
100
100
100
100
100
100
100
100
100
100
100.974
100.985
100.975
100.705
99.9925
100
100
100
100
100
100
100
100
100
100
100
100
100
100
100
100.975
100.985
100.98
100.835
100.283
100
100
100
100
100
100
100
100
100
100
100
100
100
100
100
100.978
100.987
100.983
100.924
100.568
99.992
100
100
100
100
100
100
100
100
100
100
100
100
100
100
100.984
100.99
100.985
100.953
100.786
100.241
99.9964
100
100
100
100
100
100
100
100
100
100
100
100
100
100.99
100.991
100.986
100.963
100.915
100.632
100.035
99.9994
100
100
100
100
100
100
100
100
100
100
100
100
100.994
100.992
100.986
100.974
100.961
100.873
100.499
100.014
100
100
100
100
100
100
100
100
100
100
100
100
100.998
100.996
100.993
100.992
100.984
100.944
100.87
100.448
99.8471
100
100
100
100
100
100
100
100
100
100
100
100.697
100.837
100.914
100.952
100.965
100.956
100.952
100.927
100.841
100.76
100.573
100.232
100.03
99.9958
99.9977
99.9989
99.9998
100
100
100
100.123
100.522
100.739
100.839
100.89
100.908
100.92
100.922
100.917
100.908
100.894
100.838
100.722
100.468
100.147
100.01
99.9966
99.9985
99.9992
99.9998
99.5498
100.148
100.448
100.659
100.772
100.812
100.838
100.863
100.876
100.882
100.881
100.882
100.88
100.857
100.772
100.626
100.365
100.104
100.006
99.9979
99.3237
99.8865
100.225
100.398
100.582
100.691
100.738
100.774
100.798
100.811
100.82
100.834
100.85
100.856
100.856
100.845
100.794
100.68
100.516
100.277
99.4504
99.7671
100.062
100.263
100.405
100.526
100.595
100.648
100.689
100.709
100.724
100.742
100.764
100.791
100.813
100.824
100.822
100.815
100.79
100.745
99.609
99.6611
99.9583
100.218
100.329
100.4
100.476
100.535
100.589
100.628
100.643
100.659
100.677
100.7
100.729
100.754
100.773
100.785
100.78
100.774
99.6969
99.6641
99.8617
100.132
100.284
100.368
100.419
100.476
100.524
100.561
100.573
100.585
100.595
100.609
100.63
100.655
100.683
100.709
100.727
100.735
99.7691
99.6995
99.7815
100.028
100.228
100.309
100.339
100.392
100.435
100.469
100.484
100.493
100.503
100.514
100.535
100.565
100.597
100.625
100.657
100.654
99.8225
99.7337
99.7782
99.9303
100.138
100.225
100.24
100.272
100.314
100.344
100.378
100.405
100.435
100.451
100.474
100.496
100.52
100.542
100.578
100.567
99.8828
99.7671
99.7679
99.8833
100.015
100.122
100.157
100.201
100.265
100.309
100.337
100.361
100.387
100.397
100.411
100.424
100.442
100.46
100.499
100.495
99.958
99.8206
99.7575
99.8607
99.9503
100.065
100.135
100.181
100.229
100.265
100.282
100.298
100.317
100.327
100.333
100.342
100.36
100.389
100.418
100.454
100.051
99.898
99.7814
99.8524
99.9256
100.034
100.096
100.127
100.151
100.177
100.184
100.197
100.204
100.219
100.243
100.275
100.309
100.338
100.353
100.393
100.16
99.9943
99.8348
99.8538
99.8731
99.9671
100.013
100.026
100.047
100.082
100.109
100.131
100.169
100.2
100.226
100.253
100.273
100.285
100.291
100.325
100.26
100.073
99.8841
99.8573
99.8486
99.8977
99.9563
99.9984
100.035
100.078
100.12
100.145
100.178
100.196
100.207
100.218
100.218
100.217
100.216
100.24
100.308
100.12
99.9314
99.868
99.8583
99.9031
99.9632
100.012
100.056
100.104
100.142
100.147
100.165
100.167
100.163
100.15
100.133
100.121
100.122
100.17
100.312
100.161
99.9796
99.9016
99.8939
99.9322
100.004
100.059
100.088
100.111
100.125
100.121
100.114
100.094
100.067
100.042
100.041
100.067
100.099
100.139
100.29
100.184
100.065
99.9836
99.9842
100.002
100.032
100.063
100.073
100.081
100.053
100.03
100.003
99.9868
99.9955
100.024
100.042
100.063
100.079
100.094
100.237
100.178
100.136
100.075
100.041
100.017
100.009
100.015
99.9914
99.9711
99.9377
99.9325
99.9406
99.9658
99.9948
100.015
100.028
100.034
100.036
100.03
100.195
100.191
100.235
100.263
100.382
100.458
100.472
100.53
100.661
100.705
100.671
100.547
100.484
100.528
100.542
100.486
100.432
100.448
100.47
100.438
100.56
100.767
100.765
100.787
100.862
100.923
100.952
101.023
101.12
101.15
101.146
101.121
101.1
101.112
101.123
101.108
101.093
101.085
101.075
101.063
101.045
101.028
101.015
100.995
100.963
100.938
100.907
100.872
100.836
100.818
100.818
100.814
100.781
100.659
100.433
100.215
100.075
100.016
99.9914
99.9754
100.561
100.63
100.705
100.752
100.768
100.779
100.779
100.767
100.751
100.75
100.764
100.776
100.756
100.657
100.466
100.264
100.115
100.033
99.9892
99.9724
100.029
100.052
100.173
100.317
100.418
100.492
100.541
100.565
100.584
100.606
100.64
100.689
100.689
100.633
100.503
100.341
100.182
100.062
99.9983
99.9745
100.083
100.096
100.107
100.096
100.109
100.179
100.299
100.382
100.432
100.473
100.522
100.584
100.602
100.581
100.51
100.387
100.235
100.097
100.008
99.9732
100.135
100.137
100.14
100.139
100.12
100.12
100.128
100.173
100.269
100.376
100.442
100.498
100.525
100.517
100.481
100.391
100.256
100.12
100.017
99.9713
100.183
100.184
100.186
100.173
100.15
100.15
100.152
100.148
100.149
100.209
100.346
100.435
100.465
100.46
100.434
100.371
100.257
100.127
100.022
99.9701
100.231
100.232
100.232
100.218
100.194
100.195
100.192
100.18
100.156
100.15
100.188
100.331
100.412
100.408
100.388
100.339
100.245
100.128
100.025
99.9695
100.299
100.276
100.275
100.265
100.235
100.228
100.221
100.203
100.182
100.154
100.138
100.177
100.307
100.361
100.347
100.307
100.226
100.124
100.025
99.9681
100.364
100.332
100.321
100.308
100.27
100.262
100.25
100.226
100.197
100.179
100.144
100.125
100.159
100.278
100.302
100.27
100.205
100.119
100.031
99.9685
100.433
100.389
100.364
100.348
100.313
100.291
100.272
100.244
100.214
100.192
100.166
100.125
100.106
100.134
100.208
100.21
100.179
100.109
100.032
99.969
100.54
100.45
100.379
100.354
100.343
100.33
100.314
100.286
100.236
100.198
100.177
100.145
100.107
100.089
100.074
100.071
100.055
100.034
100.005
99.9654
100.618
100.55
100.481
100.411
100.376
100.356
100.336
100.31
100.279
100.247
100.209
100.165
100.122
100.085
100.047
99.991
99.9188
99.9109
99.9244
99.941
100.609
100.588
100.543
100.481
100.43
100.374
100.321
100.302
100.293
100.272
100.242
100.203
100.148
100.096
100.047
99.979
99.9019
99.8865
99.8943
99.9291
100.488
100.548
100.541
100.515
100.475
100.424
100.364
100.33
100.298
100.261
100.234
100.207
100.164
100.109
100.051
99.9796
99.9021
99.8803
99.887
99.9224
100.251
100.376
100.446
100.483
100.473
100.448
100.408
100.359
100.316
100.259
100.217
100.186
100.143
100.097
100.048
99.9925
99.9386
99.9139
99.9079
99.9268
100.042
100.145
100.255
100.337
100.389
100.414
100.403
100.372
100.336
100.292
100.239
100.186
100.131
100.085
100.043
99.9961
99.9512
99.9396
99.9413
99.9572
100.002
100.015
100.066
100.156
100.235
100.288
100.33
100.337
100.325
100.298
100.254
100.203
100.155
100.103
100.051
100.003
99.9686
99.9644
99.969
99.9858
100
100
100.003
100.025
100.08
100.149
100.206
100.242
100.262
100.259
100.245
100.216
100.176
100.132
100.085
100.045
100.021
100.015
100.016
100.016
100
100
100
100.001
100.006
100.031
100.079
100.132
100.17
100.192
100.19
100.182
100.164
100.139
100.109
100.081
100.06
100.048
100.038
100.022
100
100
100
100
100
100.001
100.008
100.028
100.066
100.105
100.129
100.132
100.128
100.116
100.1
100.081
100.064
100.049
100.037
100.018
100
100
100
100
100
100
100
100.001
100.006
100.019
100.044
100.065
100.077
100.078
100.074
100.065
100.052
100.038
100.023
100.007
100
100
100
100
100
100
100
100
100
100.001
100.003
100.008
100.016
100.023
100.026
100.025
100.02
100.012
100.005
100.001
100
100
100
100
100
100
100
100
100
100
100
100
100.001
100.001
100.002
100.002
100.002
100.001
100
100
100
100
100
100
100
100
100
100
100
100
100
100
100
100
100
100
100
100
100
100
100
100
100
100
100
100
100
100
100
100
100
100
100
100
100
100
100
100
100
100
100.595
100.653
100.61
100.416
100.143
100.017
100.001
100
100
100
100
100
100
100
100
100.67
100.662
100.518
100.218
100.022
100
100
100
100
100
100
100
100
100
100
100.704
100.635
100.373
100.074
100.002
100
100
100
100
100
100
100
100
100
100
100.719
100.517
100.167
100.009
100
100
100
100
100
100
100
100
100
100
100
100.649
100.282
100.024
100
100
100
100
100
100
100
100
100
100
100
100
100.394
100.038
100
100
100
100
100
100
100
100
100
100
100
100
100
100.042
100
100
100
100
100
100
100
100
100
100
100
100
100
100
99.9995
100
100
100
100
100
100
100
100
100
100
100
100
100
100
100
100
100
100
100
100
100
100
100
100
100
100
100
100
100
100
100
100
100
100
100
100
100
100
100
100
100
100
100
100
100
100
100
100
100
100
100
100
100
100
100
100
100
100
100
100
100
100
100
100
100
100
100
100
100
100
100
100
100
100
100
100
100
100
100
100
100
100
100
100
100
100
100
100
100
100
100
100
100
100
100
100
100
100
100
100
100
100
100
100
100
100
100
100
100
100
100
100
100
100
100
100
100
100
100
100
100
100
100
100
100
100
100
100
100
100
100
100
100
100
100
100
100
100
100
100
100
100
100
100
100
100
100
100
100
100
100
100
100
100
100
100
100
100
100
100
100
100
100
100
100
100
100
100
100
100
100
100
100
100
100
100
100
100
100
100
100
100
100
100
100
100
100
100
100
100
100
100
100
100
100
100
100
100
100
100
100
100
100
100
100
100
100
100
100
100
100
100
100
100
100
100
100
100
100
100
100
100
100
100
100
100
100
100
100
100
100
100
100
100
100
100
100
100
100
100
100
100
100
100
100
100
100
100
100
100
100
100
100
100
100
100
100
100
100
100
100
100
100
100
100
100
100
100
100
100
100
100
100
100
100
100
100
100
100
100
100
100
100
100
100
100
100
100
100
100
100
100
100
100
100
100
100
100
100
100
100
100
100
100
100
100
100
100
100
100
100
100
100
100
100
100
100
100
100
100
100
100
100
100
100
100
100
100
100
100
100
100
100
100
100
100
100
100
100
100
100
100
100
100
100
100
100
100
100
100
100
100
100
100
100
100
100
100
100
100
100
100
100
100
100
100
100
100
100
100
100
100
100
100
100
100
100
100
100
100
100
100
100
100
100
100
100
100
100
100
100
100
100
100
100
100
100
100
100
100
100
100
100
100
100
100
100
100
100
100
100
100
100
100
100
100
100
100
100
100
100
100
100
100
100
100
100
100
100
100
100
100
100
100
100
100
100
100
100
100
100
100
100
100
100
100
100
100
100
100
100
100
100
100
100
100
100
100
100
100
100
100
100
100
100
100
100
100
100
100
100
100
100
100
100
100
100
100
100
100
100
100
100
100
100
100
100
100
100
100
100
100
100
100
100
100
100
100
100
100
100
100
100
100
100
100
100
100
100
100
100
100
100
100
100
100
100
100
100
100
100
100
100
100
100
100
100
100
100
100
100
100
100
100
100
100
100
100
100
100
100
100
100
100
100
100
100
100
100
100
100
100
100
100
100
100
100
100
100
100
100
100
100
100
100
100
100
100
100
100
100
100
100
100
100
100
100
100
100
100
100
100
100
100
100
100
100
100
100
100
100
100
100
100
100
100
100
100
100
100
100
100
100
100
100
100
100
100
100
100
100
100
100
100
100
100
100
100
100
100
100
100
100
100
100
100
100
100
100
100
100
100
100
100
100
100
100
100
100
100
100
100
100
100
100
100
100
100
100
100
100
100
100
100
100
100
100
100
100
100
100
100
100
100
100
100
100
100
100
100
100
100
100
100
100
100
100
100
100
100
100
100
100
100
100
100
100
100
100
100
100
100
100
100
100
100
100
100
100
100
100
100
100
100
100
100
100
100
100
100
100
100
100
100
100
100
100
100
100
100
100
100
100
100
100
100
100
100
100
100
100
100
100
100
100
100
100
100
100
100
100
100
100
100
100
100
100
100
100
100
100
100
100
100
100
100
100
100
100
100
100
100
100
100
100
100
100
100
100
100
100
100
100
100
100
100
100
100
100
100
100
100
100
100
100
100
100
100
100
100
100
100
100
100
100
100
100
100
100
100
100
100
100
100
100
100
100
100
100
100
100
100
100
100
100
100
100
100
100
100
100
100
100
100
100
100
100
100
100
100
100
100
100
100
100
100
100
100
100
100
100
100
100
100
100
100
100
100
100
100
100
100
100
100
100
100
100
100
100
100
100
100
100
100
100
100
100
100
100
100
100
100
100
100
99.9995
100
100
100
100
100
100
100
100
100
100
100
100
100
100
100.042
100
100
100
100
100
100
100
100
100
100
100
100
100
100
100.394
100.038
100
100
100
100
100
100
100
100
100
100
100
100
100
100.649
100.282
100.024
100
100
100
100
100
100
100
100
100
100
100
100
100.719
100.517
100.167
100.009
100
100
100
100
100
100
100
100
100
100
100
100.704
100.635
100.373
100.074
100.002
100
100
100
100
100
100
100
100
100
100
100.67
100.662
100.518
100.218
100.022
100
100
100
100
100
100
100
100
100
100
100.595
100.653
100.61
100.416
100.142
100.017
100.001
100
100
100
100
100
100
100
100
100.539
100.618
100.609
100.488
100.251
100.042
100.002
100
100
100
100
100
100
100
100
100.45
100.55
100.588
100.548
100.376
100.145
100.015
100
100
100
100
100
100
100
100
100.379
100.481
100.542
100.541
100.446
100.255
100.066
100.003
100
100
100
100
100
100
100
100.354
100.411
100.481
100.515
100.483
100.337
100.156
100.025
100.001
100
100
100
100
100
100
100.342
100.376
100.43
100.475
100.473
100.389
100.235
100.08
100.006
100
100
100
100
100
100
100.329
100.356
100.375
100.424
100.448
100.413
100.288
100.149
100.031
100.001
100
100
100
100
100
100.314
100.336
100.32
100.365
100.408
100.403
100.33
100.205
100.079
100.008
100
100
100
100
100
100.286
100.31
100.302
100.33
100.359
100.372
100.337
100.242
100.132
100.028
100.001
100
100
100
100
100.237
100.28
100.292
100.298
100.316
100.336
100.325
100.262
100.17
100.066
100.006
100
100
100
100
100.198
100.247
100.272
100.261
100.26
100.292
100.298
100.259
100.192
100.105
100.019
100.001
100
100
100
100.176
100.21
100.243
100.233
100.217
100.239
100.254
100.245
100.19
100.129
100.044
100.003
100
100
100
100.144
100.165
100.204
100.206
100.186
100.186
100.203
100.216
100.182
100.132
100.065
100.008
100
100
100
100.107
100.121
100.15
100.164
100.143
100.131
100.155
100.176
100.164
100.128
100.077
100.016
100.001
100
100
100.088
100.084
100.097
100.11
100.096
100.084
100.103
100.132
100.139
100.116
100.078
100.023
100.001
100
100
100.072
100.046
100.047
100.052
100.048
100.042
100.051
100.085
100.109
100.1
100.074
100.026
100.002
100
100
100.069
99.9896
99.9778
99.9808
99.9932
99.9956
100.003
100.045
100.081
100.081
100.065
100.025
100.002
100
100
100.054
99.9177
99.9005
99.9041
99.9397
99.9509
99.9685
100.021
100.06
100.064
100.052
100.02
100.002
100
100
100.033
99.9102
99.887
99.8811
99.9152
99.9395
99.9642
100.015
100.048
100.049
100.038
100.012
100.001
100
100
100.003
99.9238
99.8943
99.8877
99.909
99.9413
99.9687
100.016
100.038
100.036
100.023
100.005
100
100
100
99.9641
99.9408
99.9291
99.9226
99.9274
99.9572
99.9855
100.016
100.022
100.018
100.007
100.001
100
100
100
100.433
100.389
100.364
100.348
100.313
100.291
100.272
100.244
100.214
100.192
100.166
100.124
100.104
100.133
100.206
100.209
100.179
100.11
100.034
99.9697
100.364
100.332
100.321
100.308
100.27
100.262
100.25
100.227
100.197
100.179
100.144
100.124
100.156
100.274
100.301
100.271
100.206
100.12
100.032
99.9697
100.299
100.275
100.275
100.265
100.235
100.228
100.221
100.203
100.182
100.155
100.137
100.174
100.304
100.361
100.348
100.308
100.227
100.124
100.025
99.9684
100.231
100.231
100.232
100.218
100.194
100.195
100.193
100.18
100.156
100.15
100.187
100.327
100.412
100.409
100.391
100.342
100.247
100.128
100.024
99.9694
100.183
100.184
100.186
100.173
100.15
100.15
100.152
100.148
100.149
100.209
100.344
100.437
100.466
100.461
100.437
100.374
100.259
100.127
100.021
99.9699
100.135
100.136
100.139
100.139
100.121
100.121
100.129
100.173
100.27
100.376
100.442
100.5
100.525
100.517
100.481
100.392
100.257
100.12
100.016
99.9712
100.084
100.095
100.107
100.096
100.108
100.178
100.299
100.381
100.432
100.474
100.522
100.584
100.601
100.58
100.508
100.385
100.234
100.098
100.009
99.9734
100.029
100.053
100.174
100.318
100.417
100.49
100.54
100.564
100.585
100.607
100.642
100.69
100.688
100.631
100.5
100.337
100.179
100.063
99.9998
99.9748
100.556
100.629
100.707
100.753
100.768
100.778
100.779
100.77
100.755
100.753
100.765
100.776
100.756
100.653
100.463
100.262
100.115
100.03
99.9899
99.9727
101.044
101.027
101.015
100.995
100.964
100.937
100.911
100.881
100.847
100.824
100.819
100.814
100.782
100.659
100.435
100.219
100.084
100.021
99.9917
99.9752
)
;

boundaryField
{
    inlet
    {
        type            fixedValue;
        value           uniform 100;
    }
    outlet
    {
        type            inletOutlet;
        inletValue      uniform 100;
        value           nonuniform List<scalar> 
50
(
99.9651
99.9409
99.9293
99.9226
99.927
99.9574
99.986
100.016
100.022
100.018
100.007
100.001
100
100
100
99.9753
99.9723
99.9744
99.9731
99.9711
99.97
99.9693
99.9679
99.9682
99.9687
99.9694
99.9695
99.9682
99.9692
99.9697
99.9711
99.9733
99.9747
99.9727
99.9751
99.9639
99.9407
99.9293
99.9228
99.9276
99.9574
99.9858
100.016
100.022
100.018
100.007
100.001
100
100
100
)
;
    }
    airfoil
    {
        type            zeroGradient;
    }
    top
    {
        type            symmetryPlane;
    }
    bottom
    {
        type            symmetryPlane;
    }
    defaultFaces
    {
        type            empty;
    }
}


// ************************************************************************* //
