/*--------------------------------*- C++ -*----------------------------------*\
  =========                 |
  \\      /  F ield         | OpenFOAM: The Open Source CFD Toolbox
   \\    /   O peration     | Website:  https://openfoam.org
    \\  /    A nd           | Version:  7
     \\/     M anipulation  |
\*---------------------------------------------------------------------------*/
FoamFile
{
    version     2.0;
    format      ascii;
    class       volScalarField;
    location    "4";
    object      p;
}
// * * * * * * * * * * * * * * * * * * * * * * * * * * * * * * * * * * * * * //

dimensions      [0 2 -2 0 0 0 0];

internalField   nonuniform List<scalar> 
12000
(
-0.347623
-0.330468
-0.314596
-0.302226
-0.291939
-0.283017
-0.275118
-0.267965
-0.26135
-0.255135
-0.249233
-0.243586
-0.238156
-0.232915
-0.227846
-0.222934
-0.21817
-0.213546
-0.209056
-0.204696
-0.200462
-0.196351
-0.192362
-0.188494
-0.184746
-0.181117
-0.177608
-0.174218
-0.170947
-0.167796
-0.164765
-0.161854
-0.159062
-0.156388
-0.153832
-0.151396
-0.149072
-0.146816
-0.144618
-0.142964
-0.30379
-0.306164
-0.300423
-0.293101
-0.28545
-0.277929
-0.270813
-0.264165
-0.257947
-0.25209
-0.24653
-0.241213
-0.2361
-0.231159
-0.226368
-0.221713
-0.217183
-0.212771
-0.20847
-0.204279
-0.200194
-0.196215
-0.192341
-0.188573
-0.184911
-0.181356
-0.177909
-0.174571
-0.171344
-0.16823
-0.165228
-0.16234
-0.159566
-0.156906
-0.154361
-0.151932
-0.149614
-0.147351
-0.145132
-0.143555
-0.290966
-0.295349
-0.294359
-0.290828
-0.285766
-0.279856
-0.273636
-0.267418
-0.261349
-0.255486
-0.249842
-0.244404
-0.239154
-0.234073
-0.229145
-0.224356
-0.219697
-0.215159
-0.210738
-0.206429
-0.202231
-0.198141
-0.19416
-0.190287
-0.186522
-0.182868
-0.179323
-0.175892
-0.172573
-0.169369
-0.166282
-0.163312
-0.160461
-0.157727
-0.155114
-0.152625
-0.150256
-0.147932
-0.145634
-0.144194
-0.280234
-0.284761
-0.285679
-0.28456
-0.281779
-0.277748
-0.272937
-0.267706
-0.262295
-0.256853
-0.251466
-0.246178
-0.241007
-0.23596
-0.231036
-0.226231
-0.221541
-0.216962
-0.212492
-0.208129
-0.20387
-0.199717
-0.195668
-0.191725
-0.187888
-0.184159
-0.180539
-0.17703
-0.173634
-0.170354
-0.16719
-0.164144
-0.16122
-0.158417
-0.155737
-0.153191
-0.150773
-0.148381
-0.145976
-0.144739
-0.271827
-0.275907
-0.277603
-0.277826
-0.276607
-0.274108
-0.270639
-0.266498
-0.261926
-0.257108
-0.252171
-0.2472
-0.24225
-0.237352
-0.232525
-0.22778
-0.223121
-0.218552
-0.214075
-0.209692
-0.205402
-0.201207
-0.19711
-0.193111
-0.189213
-0.185417
-0.181726
-0.178143
-0.17467
-0.17131
-0.168066
-0.164941
-0.161937
-0.159057
-0.156305
-0.153694
-0.151223
-0.148749
-0.146206
-0.145219
-0.265251
-0.268825
-0.270773
-0.271656
-0.271392
-0.26999
-0.267613
-0.264464
-0.26074
-0.256612
-0.252221
-0.24767
-0.243036
-0.238373
-0.233716
-0.229091
-0.224514
-0.219997
-0.215546
-0.211169
-0.206869
-0.202651
-0.198518
-0.194472
-0.190519
-0.18666
-0.1829
-0.179241
-0.175688
-0.172245
-0.168915
-0.165703
-0.162613
-0.159648
-0.156815
-0.154133
-0.151603
-0.149038
-0.146323
-0.145627
-0.259446
-0.262734
-0.264764
-0.265984
-0.266306
-0.265666
-0.26413
-0.261818
-0.258872
-0.255431
-0.251621
-0.24755
-0.243303
-0.238946
-0.234527
-0.230084
-0.225642
-0.221222
-0.216837
-0.2125
-0.208217
-0.203998
-0.199847
-0.19577
-0.191772
-0.187858
-0.184033
-0.180302
-0.176669
-0.173141
-0.169722
-0.166418
-0.163236
-0.16018
-0.15726
-0.154501
-0.151908
-0.149242
-0.146327
-0.145946
-0.253968
-0.25717
-0.259271
-0.260706
-0.261417
-0.261316
-0.260418
-0.258788
-0.256518
-0.253713
-0.250477
-0.246906
-0.243083
-0.239079
-0.234949
-0.230738
-0.226479
-0.2222
-0.21792
-0.213656
-0.209421
-0.205225
-0.201077
-0.196985
-0.192956
-0.188997
-0.185114
-0.181314
-0.177603
-0.173989
-0.170478
-0.167079
-0.1638
-0.160647
-0.157632
-0.154791
-0.152132
-0.149357
-0.146212
-0.146158
-0.24854
-0.251817
-0.254033
-0.255655
-0.256665
-0.256974
-0.256575
-0.255501
-0.253811
-0.251577
-0.24888
-0.245802
-0.242418
-0.238794
-0.234988
-0.231048
-0.227012
-0.222912
-0.218774
-0.214617
-0.210458
-0.206312
-0.202189
-0.198101
-0.194055
-0.190062
-0.18613
-0.182266
-0.178479
-0.174779
-0.171175
-0.167676
-0.164294
-0.161037
-0.15792
-0.154989
-0.152259
-0.149369
-0.145966
-0.146238
-0.24295
-0.246444
-0.248833
-0.250658
-0.25194
-0.252594
-0.252609
-0.252004
-0.250815
-0.249091
-0.246894
-0.244289
-0.241341
-0.238109
-0.234649
-0.231008
-0.227227
-0.22334
-0.219376
-0.215357
-0.211305
-0.207235
-0.203161
-0.199097
-0.195052
-0.191039
-0.187067
-0.183146
-0.179287
-0.175501
-0.171799
-0.168195
-0.164702
-0.161332
-0.158104
-0.155073
-0.152265
-0.149251
-0.145559
-0.146135
-0.237056
-0.240891
-0.243512
-0.245572
-0.247129
-0.248105
-0.248488
-0.248296
-0.24755
-0.246288
-0.244553
-0.242398
-0.239875
-0.237038
-0.233936
-0.230614
-0.227113
-0.223467
-0.219707
-0.215857
-0.211939
-0.207972
-0.203973
-0.199955
-0.195931
-0.191913
-0.187913
-0.183943
-0.180016
-0.176144
-0.172342
-0.168625
-0.165012
-0.161516
-0.158161
-0.155015
-0.152115
-0.148966
-0.144951
-0.145789
-0.230767
-0.235054
-0.237959
-0.24029
-0.242141
-0.243434
-0.244165
-0.244352
-0.244013
-0.243174
-0.24187
-0.240141
-0.238031
-0.235586
-0.232847
-0.229858
-0.226656
-0.223275
-0.219744
-0.216091
-0.212337
-0.208502
-0.204603
-0.200656
-0.196674
-0.19267
-0.188658
-0.18465
-0.18066
-0.176704
-0.172796
-0.168958
-0.165208
-0.161568
-0.158065
-0.15478
-0.151768
-0.148462
-0.144085
-0.145123
-0.224048
-0.228883
-0.232113
-0.234746
-0.236909
-0.238524
-0.239595
-0.240142
-0.240184
-0.239741
-0.238843
-0.23752
-0.235809
-0.233749
-0.231376
-0.228728
-0.225839
-0.222742
-0.219465
-0.216034
-0.212471
-0.208796
-0.205027
-0.201178
-0.197265
-0.193299
-0.189294
-0.185263
-0.181221
-0.177182
-0.173166
-0.169194
-0.16529
-0.161478
-0.157793
-0.154332
-0.15117
-0.147674
-0.142883
-0.144032
-0.216922
-0.222385
-0.225962
-0.228916
-0.231404
-0.233345
-0.234748
-0.235642
-0.236046
-0.235978
-0.235463
-0.234527
-0.233202
-0.231518
-0.229508
-0.227205
-0.22464
-0.221843
-0.21884
-0.215655
-0.212311
-0.208825
-0.205216
-0.201498
-0.197683
-0.193785
-0.189814
-0.185783
-0.181704
-0.177594
-0.173469
-0.169353
-0.165272
-0.161254
-0.15734
-0.153646
-0.150272
-0.146526
-0.141238
-0.142371
-0.209485
-0.215635
-0.219555
-0.222829
-0.22564
-0.227898
-0.229623
-0.230847
-0.231592
-0.231877
-0.231724
-0.231156
-0.2302
-0.228881
-0.227229
-0.225272
-0.223037
-0.220551
-0.217838
-0.214921
-0.211821
-0.208554
-0.205138
-0.201584
-0.197904
-0.19411
-0.190209
-0.186211
-0.182126
-0.177965
-0.173744
-0.169482
-0.165205
-0.160942
-0.156739
-0.152729
-0.149048
-0.144947
-0.139026
-0.139955
-0.201926
-0.208781
-0.212996
-0.216554
-0.219651
-0.222195
-0.224214
-0.225742
-0.226802
-0.227414
-0.227598
-0.227377
-0.226771
-0.225804
-0.224501
-0.222885
-0.220982
-0.218815
-0.216406
-0.213776
-0.210943
-0.207924
-0.204733
-0.201381
-0.197879
-0.194233
-0.19045
-0.186534
-0.182489
-0.178322
-0.174038
-0.16965
-0.165178
-0.160642
-0.156086
-0.151657
-0.147526
-0.142895
-0.136118
-0.136553
-0.194613
-0.202132
-0.206548
-0.210305
-0.213595
-0.216349
-0.21861
-0.220394
-0.221724
-0.222624
-0.223113
-0.223209
-0.222929
-0.222293
-0.221324
-0.220041
-0.218465
-0.216618
-0.21452
-0.212189
-0.209642
-0.206894
-0.203959
-0.200846
-0.197563
-0.194116
-0.190508
-0.186737
-0.182802
-0.178699
-0.174423
-0.169971
-0.165345
-0.160548
-0.155603
-0.150651
-0.14589
-0.140478
-0.132477
-0.131873
-0.188532
-0.196261
-0.200768
-0.204724
-0.208058
-0.210913
-0.213327
-0.215279
-0.216794
-0.217906
-0.218632
-0.218985
-0.218979
-0.21863
-0.217956
-0.216973
-0.215701
-0.214156
-0.212356
-0.210318
-0.208057
-0.205588
-0.202922
-0.20007
-0.197038
-0.193831
-0.19045
-0.18689
-0.183145
-0.179201
-0.17504
-0.170642
-0.16598
-0.161021
-0.155739
-0.150235
-0.144712
-0.138248
-0.128405
-0.125761
-0.185193
-0.190893
-0.194463
-0.198843
-0.201896
-0.20457
-0.207059
-0.209104
-0.210732
-0.212009
-0.212941
-0.213531
-0.213788
-0.213722
-0.213346
-0.212673
-0.211717
-0.210491
-0.209012
-0.207294
-0.20535
-0.203194
-0.200839
-0.198293
-0.195565
-0.19266
-0.18958
-0.186323
-0.182878
-0.179232
-0.175358
-0.17122
-0.166765
-0.16191
-0.156553
-0.150711
-0.144507
-0.136654
-0.123675
-0.117004
-0.188467
-0.188507
-0.18922
-0.191256
-0.193735
-0.195013
-0.197651
-0.199788
-0.201563
-0.203069
-0.204284
-0.205196
-0.205806
-0.206116
-0.206133
-0.205862
-0.205315
-0.204502
-0.203434
-0.202124
-0.200585
-0.19883
-0.19687
-0.194717
-0.19238
-0.189868
-0.187186
-0.184338
-0.181322
-0.178129
-0.174743
-0.171134
-0.167246
-0.162976
-0.158173
-0.152751
-0.146513
-0.137329
-0.120465
-0.107189
-0.230497
-0.222222
-0.218482
-0.217001
-0.216539
-0.21652
-0.216938
-0.217414
-0.217891
-0.218288
-0.218537
-0.218605
-0.218469
-0.218118
-0.217545
-0.216748
-0.215729
-0.214491
-0.213041
-0.211385
-0.209533
-0.207492
-0.205273
-0.202886
-0.200338
-0.19764
-0.194801
-0.191828
-0.188729
-0.185512
-0.182182
-0.178747
-0.175211
-0.171569
-0.167833
-0.164077
-0.160307
-0.155855
-0.149964
-0.146653
-0.229412
-0.223834
-0.219998
-0.217706
-0.216319
-0.215575
-0.215275
-0.215257
-0.215378
-0.215526
-0.215623
-0.215617
-0.215472
-0.21516
-0.214665
-0.213977
-0.213092
-0.212006
-0.210723
-0.209247
-0.207582
-0.205736
-0.203718
-0.201535
-0.199198
-0.196716
-0.194101
-0.191362
-0.188513
-0.185564
-0.182532
-0.179434
-0.176291
-0.173133
-0.170007
-0.166996
-0.164165
-0.161593
-0.159794
-0.159186
-0.22745
-0.224324
-0.221633
-0.219539
-0.217926
-0.21677
-0.216004
-0.215528
-0.215233
-0.215031
-0.214851
-0.214635
-0.214338
-0.213927
-0.213379
-0.212676
-0.211806
-0.210764
-0.209546
-0.208153
-0.206587
-0.204852
-0.202955
-0.200904
-0.198706
-0.196372
-0.193913
-0.19134
-0.188669
-0.185913
-0.183092
-0.180226
-0.177344
-0.174479
-0.171681
-0.169003
-0.166508
-0.164455
-0.163371
-0.162073
-0.227258
-0.22508
-0.223
-0.221179
-0.219593
-0.218281
-0.217245
-0.21644
-0.215808
-0.215288
-0.214824
-0.214366
-0.213871
-0.213305
-0.212641
-0.211858
-0.21094
-0.209878
-0.208664
-0.207295
-0.205771
-0.204093
-0.202266
-0.200295
-0.198188
-0.195954
-0.193603
-0.191147
-0.188601
-0.185981
-0.183306
-0.180599
-0.177886
-0.175203
-0.172591
-0.170084
-0.167739
-0.165828
-0.16473
-0.162625
-0.226996
-0.225152
-0.223374
-0.221777
-0.2203
-0.218976
-0.21783
-0.21685
-0.216008
-0.215268
-0.21459
-0.213935
-0.213267
-0.212557
-0.211776
-0.210905
-0.209926
-0.208826
-0.207596
-0.206231
-0.204727
-0.203084
-0.201304
-0.199391
-0.197351
-0.195192
-0.192923
-0.190556
-0.188102
-0.185579
-0.183004
-0.180397
-0.177784
-0.175193
-0.172657
-0.170196
-0.167853
-0.165883
-0.164566
-0.161873
-0.226741
-0.225019
-0.223392
-0.221931
-0.220539
-0.219235
-0.218044
-0.216969
-0.215995
-0.215101
-0.214261
-0.213447
-0.212632
-0.211789
-0.210895
-0.20993
-0.208877
-0.207724
-0.206458
-0.205074
-0.203567
-0.201934
-0.200175
-0.198294
-0.196295
-0.194182
-0.191966
-0.189655
-0.187261
-0.184798
-0.182281
-0.179728
-0.177159
-0.174599
-0.17207
-0.169582
-0.167165
-0.165052
-0.163466
-0.160343
-0.226495
-0.224795
-0.223219
-0.221817
-0.220468
-0.219175
-0.217959
-0.216823
-0.215759
-0.214755
-0.213793
-0.212852
-0.211912
-0.210952
-0.209952
-0.208894
-0.207762
-0.206544
-0.205229
-0.20381
-0.202279
-0.200635
-0.198876
-0.197003
-0.195018
-0.192927
-0.190736
-0.188453
-0.186088
-0.183652
-0.181159
-0.178623
-0.17606
-0.173488
-0.170925
-0.168372
-0.16585
-0.163573
-0.161727
-0.158298
-0.226196
-0.224466
-0.222888
-0.221496
-0.220154
-0.218855
-0.217612
-0.216428
-0.215297
-0.214208
-0.213149
-0.212106
-0.211061
-0.209998
-0.208901
-0.207753
-0.206542
-0.205255
-0.203882
-0.202414
-0.200846
-0.199174
-0.197395
-0.19551
-0.193519
-0.191426
-0.189237
-0.186957
-0.184595
-0.18216
-0.179662
-0.177114
-0.174527
-0.171917
-0.169295
-0.166657
-0.16402
-0.161579
-0.159496
-0.155853
-0.225813
-0.22403
-0.22242
-0.221008
-0.219647
-0.218323
-0.217046
-0.215815
-0.214623
-0.213462
-0.212323
-0.211191
-0.210056
-0.208901
-0.207715
-0.206482
-0.205192
-0.203833
-0.202395
-0.20087
-0.199253
-0.197539
-0.195725
-0.19381
-0.191794
-0.18968
-0.187472
-0.185174
-0.182792
-0.180335
-0.177811
-0.175228
-0.172598
-0.16993
-0.167233
-0.164502
-0.16175
-0.159155
-0.156857
-0.153069
-0.225336
-0.223484
-0.221822
-0.220371
-0.218972
-0.217608
-0.216287
-0.215004
-0.213753
-0.212525
-0.211311
-0.2101
-0.208882
-0.207643
-0.206372
-0.205057
-0.203688
-0.202255
-0.200747
-0.199159
-0.197483
-0.195716
-0.193853
-0.191894
-0.189838
-0.187685
-0.18544
-0.183106
-0.180687
-0.178189
-0.17562
-0.172987
-0.170297
-0.167559
-0.16478
-0.161953
-0.15909
-0.156352
-0.153862
-0.149978
-0.224754
-0.222822
-0.221097
-0.219592
-0.218142
-0.216726
-0.215351
-0.21401
-0.212697
-0.211401
-0.210115
-0.208828
-0.20753
-0.20621
-0.204857
-0.203461
-0.202013
-0.200502
-0.198921
-0.197263
-0.195521
-0.19369
-0.191768
-0.189752
-0.187641
-0.185437
-0.18314
-0.180754
-0.178282
-0.175729
-0.173101
-0.170404
-0.167644
-0.164829
-0.161963
-0.15904
-0.156071
-0.153203
-0.15054
-0.146596
-0.224062
-0.222043
-0.220245
-0.218676
-0.217163
-0.215686
-0.214247
-0.212842
-0.211461
-0.210095
-0.208734
-0.207371
-0.205993
-0.204592
-0.203158
-0.20168
-0.20015
-0.19856
-0.196901
-0.195166
-0.19335
-0.191448
-0.189456
-0.187373
-0.185196
-0.182927
-0.180566
-0.178115
-0.175578
-0.172958
-0.170261
-0.16749
-0.164652
-0.161754
-0.158799
-0.155782
-0.152713
-0.149725
-0.146906
-0.142931
-0.223257
-0.221144
-0.219266
-0.217624
-0.21604
-0.214491
-0.212982
-0.211505
-0.21005
-0.208608
-0.20717
-0.205726
-0.204267
-0.202782
-0.201264
-0.199702
-0.198087
-0.196413
-0.19467
-0.192853
-0.190956
-0.188975
-0.186905
-0.184745
-0.182492
-0.180148
-0.177712
-0.175186
-0.172573
-0.169876
-0.1671
-0.164249
-0.161328
-0.158344
-0.155299
-0.15219
-0.149028
-0.145928
-0.142967
-0.138983
-0.222337
-0.220124
-0.21816
-0.216438
-0.214775
-0.213147
-0.211559
-0.210002
-0.208466
-0.206942
-0.20542
-0.203892
-0.202346
-0.200774
-0.199168
-0.197517
-0.195813
-0.194049
-0.192218
-0.190312
-0.188327
-0.186259
-0.184103
-0.181857
-0.179519
-0.17709
-0.17457
-0.17196
-0.169263
-0.166481
-0.16362
-0.160682
-0.157674
-0.154601
-0.151467
-0.148269
-0.145018
-0.141816
-0.138726
-0.134746
-0.2213
-0.218983
-0.216929
-0.215122
-0.213372
-0.211657
-0.209981
-0.208335
-0.206711
-0.205097
-0.203485
-0.201865
-0.200227
-0.198562
-0.196861
-0.195116
-0.193317
-0.191458
-0.189531
-0.18753
-0.185451
-0.183287
-0.181037
-0.178697
-0.176267
-0.173745
-0.171132
-0.16843
-0.165641
-0.162768
-0.159816
-0.156788
-0.153689
-0.150526
-0.147303
-0.144019
-0.140685
-0.137386
-0.134177
-0.130215
-0.220145
-0.217724
-0.215578
-0.213678
-0.211834
-0.210023
-0.208249
-0.206506
-0.204784
-0.203071
-0.20136
-0.19964
-0.197902
-0.196137
-0.194335
-0.192487
-0.190587
-0.188625
-0.186596
-0.184493
-0.182311
-0.180046
-0.177693
-0.175252
-0.172721
-0.170098
-0.167386
-0.164585
-0.161698
-0.158729
-0.155681
-0.152559
-0.149368
-0.146115
-0.142804
-0.139436
-0.136022
-0.132634
-0.129315
-0.12538
-0.218879
-0.216361
-0.214122
-0.212122
-0.210174
-0.208255
-0.206373
-0.204521
-0.202689
-0.200868
-0.199047
-0.197218
-0.195371
-0.193496
-0.191584
-0.189627
-0.187616
-0.185545
-0.183405
-0.181192
-0.1789
-0.176524
-0.174063
-0.171512
-0.168873
-0.166143
-0.163324
-0.160418
-0.157428
-0.154357
-0.151209
-0.14799
-0.144705
-0.141361
-0.137963
-0.134514
-0.131025
-0.127553
-0.124132
-0.120232
-0.217516
-0.214927
-0.212604
-0.2105
-0.208435
-0.206396
-0.204392
-0.202419
-0.200465
-0.198523
-0.196582
-0.194633
-0.192666
-0.190672
-0.188641
-0.186565
-0.184435
-0.182244
-0.179985
-0.177653
-0.175241
-0.172747
-0.170167
-0.167499
-0.164742
-0.161896
-0.158963
-0.155945
-0.152845
-0.149666
-0.146414
-0.143094
-0.139712
-0.136275
-0.13279
-0.12926
-0.125696
-0.122143
-0.118625
-0.114764
-0.215988
-0.213338
-0.21092
-0.208684
-0.206475
-0.20429
-0.202141
-0.200024
-0.197931
-0.195851
-0.193776
-0.191694
-0.189596
-0.187472
-0.185313
-0.183109
-0.180853
-0.178536
-0.176151
-0.173694
-0.171158
-0.168541
-0.165839
-0.16305
-0.160174
-0.157211
-0.154163
-0.151032
-0.147822
-0.144538
-0.141184
-0.137767
-0.134292
-0.130769
-0.127202
-0.1236
-0.119971
-0.116346
-0.11274
-0.108926
-0.214702
-0.211756
-0.209071
-0.206596
-0.204166
-0.201777
-0.199438
-0.197143
-0.19488
-0.192639
-0.190408
-0.188176
-0.185932
-0.183666
-0.181368
-0.179029
-0.176639
-0.174191
-0.171679
-0.169095
-0.166436
-0.163697
-0.160876
-0.157971
-0.154982
-0.151909
-0.148754
-0.14552
-0.142212
-0.138833
-0.13539
-0.131888
-0.128336
-0.124741
-0.121111
-0.117453
-0.113778
-0.110101
-0.106433
-0.102706
-0.21713
-0.213386
-0.210312
-0.207629
-0.205042
-0.202518
-0.200055
-0.197639
-0.195252
-0.192881
-0.190512
-0.188133
-0.185732
-0.183299
-0.180823
-0.178295
-0.175706
-0.173051
-0.170321
-0.167512
-0.164619
-0.161641
-0.158575
-0.15542
-0.152179
-0.148852
-0.145443
-0.141956
-0.138397
-0.134771
-0.131086
-0.12735
-0.123571
-0.119757
-0.115917
-0.112062
-0.108201
-0.104334
-0.100452
-0.096632
-0.215649
-0.211565
-0.208198
-0.205248
-0.202411
-0.199652
-0.196969
-0.194343
-0.191756
-0.189192
-0.186635
-0.184072
-0.181492
-0.178884
-0.176235
-0.173538
-0.170783
-0.167963
-0.165072
-0.162105
-0.159057
-0.155927
-0.152713
-0.149415
-0.146035
-0.142575
-0.139038
-0.13543
-0.131757
-0.128025
-0.124242
-0.120416
-0.116557
-0.112673
-0.108774
-0.104872
-0.100975
-0.0970703
-0.0931447
-0.0894418
-0.213699
-0.209469
-0.205977
-0.20286
-0.199837
-0.196891
-0.194021
-0.191212
-0.188443
-0.185699
-0.182964
-0.180226
-0.177472
-0.174689
-0.171868
-0.168998
-0.166071
-0.163079
-0.160017
-0.15688
-0.153664
-0.150367
-0.146988
-0.143528
-0.13999
-0.136375
-0.132689
-0.128938
-0.125128
-0.121267
-0.117364
-0.113427
-0.109465
-0.105489
-0.101509
-0.0975382
-0.0935851
-0.0896208
-0.0856221
-0.0819786
-0.211663
-0.20724
-0.203622
-0.200346
-0.197143
-0.194012
-0.190956
-0.187957
-0.184999
-0.182065
-0.179141
-0.176212
-0.173267
-0.170294
-0.167281
-0.16422
-0.161101
-0.157919
-0.154667
-0.151341
-0.147937
-0.144455
-0.140895
-0.137257
-0.133546
-0.129764
-0.125917
-0.122013
-0.118058
-0.114062
-0.110033
-0.105982
-0.101918
-0.0978518
-0.0937941
-0.0897602
-0.0857582
-0.081745
-0.0776876
-0.0741227
-0.209477
-0.204788
-0.20103
-0.197586
-0.194195
-0.190873
-0.187624
-0.18443
-0.181275
-0.178142
-0.175018
-0.171888
-0.168741
-0.165565
-0.162348
-0.159083
-0.15576
-0.152374
-0.148919
-0.145392
-0.14179
-0.138112
-0.134359
-0.130535
-0.126642
-0.122687
-0.118674
-0.114613
-0.110512
-0.106379
-0.102226
-0.098063
-0.0939003
-0.0897486
-0.0856198
-0.0815303
-0.0774879
-0.0734354
-0.0693288
-0.0658512
-0.207164
-0.202142
-0.198242
-0.194622
-0.191034
-0.187512
-0.184062
-0.180666
-0.177304
-0.173962
-0.170627
-0.167284
-0.163921
-0.160527
-0.157092
-0.153607
-0.150065
-0.14646
-0.142787
-0.139043
-0.135227
-0.13134
-0.127383
-0.12336
-0.119277
-0.115139
-0.110953
-0.10673
-0.102478
-0.0982081
-0.0939308
-0.0896575
-0.0853996
-0.0811678
-0.0769743
-0.072837
-0.0687635
-0.0646825
-0.0605368
-0.0571537
-0.204739
-0.199305
-0.195268
-0.191465
-0.187668
-0.183937
-0.180276
-0.176665
-0.173085
-0.169522
-0.165961
-0.162389
-0.158795
-0.155167
-0.151496
-0.147774
-0.143994
-0.140151
-0.136242
-0.132264
-0.128219
-0.124107
-0.119932
-0.115699
-0.111414
-0.107084
-0.10272
-0.0983295
-0.0939248
-0.0895168
-0.0851171
-0.0807376
-0.0763902
-0.0720856
-0.067836
-0.0636608
-0.0595678
-0.0554726
-0.0513011
-0.0480178
-0.202159
-0.196301
-0.192112
-0.188116
-0.1841
-0.180149
-0.176266
-0.172429
-0.168618
-0.164818
-0.161016
-0.157198
-0.153353
-0.149471
-0.145543
-0.141563
-0.137523
-0.133422
-0.129256
-0.125026
-0.120732
-0.116379
-0.111971
-0.107514
-0.103016
-0.0984875
-0.0939373
-0.0893772
-0.0848187
-0.0802743
-0.0757559
-0.071276
-0.0668469
-0.0624791
-0.0581834
-0.0539807
-0.049882
-0.0457935
-0.0416135
-0.0384122
-0.19934
-0.193175
-0.188787
-0.184575
-0.180333
-0.176154
-0.172038
-0.167962
-0.163904
-0.159851
-0.155789
-0.151704
-0.147586
-0.143425
-0.139216
-0.134951
-0.130628
-0.126243
-0.121797
-0.117291
-0.112729
-0.108116
-0.103458
-0.098764
-0.0940435
-0.0893071
-0.0845668
-0.0798344
-0.0751229
-0.0704455
-0.0658143
-0.0612411
-0.0567406
-0.0523243
-0.0480006
-0.0437835
-0.0396955
-0.0356424
-0.0314476
-0.0282288
-0.196287
-0.189933
-0.185296
-0.180844
-0.176374
-0.171961
-0.167602
-0.163272
-0.158952
-0.154626
-0.150279
-0.145901
-0.141482
-0.137014
-0.132492
-0.127913
-0.123275
-0.118577
-0.113823
-0.109017
-0.104163
-0.0992691
-0.0943446
-0.0893999
-0.0844461
-0.079495
-0.0745611
-0.0696567
-0.0647948
-0.059992
-0.0552611
-0.0506123
-0.0460655
-0.0416403
-0.0372879
-0.0331101
-0.0290863
-0.0251075
-0.0207258
-0.017661
-0.193058
-0.18655
-0.18165
-0.17693
-0.172226
-0.167584
-0.162975
-0.158377
-0.153774
-0.149149
-0.14449
-0.139785
-0.135029
-0.130216
-0.125344
-0.120412
-0.115423
-0.110378
-0.105284
-0.100147
-0.094976
-0.0897803
-0.084571
-0.0793622
-0.0741659
-0.0689946
-0.0638674
-0.0587996
-0.0538032
-0.0488999
-0.0441064
-0.0393836
-0.0348704
-0.0305723
-0.0258001
-0.0217732
-0.0178319
-0.0138759
-0.00975137
-0.00697214
-0.189697
-0.182978
-0.177837
-0.172914
-0.167893
-0.163043
-0.158166
-0.153298
-0.14839
-0.143435
-0.138423
-0.133348
-0.128208
-0.123002
-0.117732
-0.112401
-0.107016
-0.101583
-0.0961121
-0.0906118
-0.0850958
-0.0795754
-0.0740623
-0.0685784
-0.0631407
-0.0577603
-0.0524591
-0.0472587
-0.0421214
-0.0371929
-0.032428
-0.0272523
-0.0228093
-0.0184428
-0.0141423
-0.0100746
-0.00618694
-0.0023143
0.00169849
0.00423479
-0.186166
-0.179229
-0.173813
-0.168707
-0.163574
-0.158505
-0.153157
-0.148047
-0.14282
-0.137482
-0.132077
-0.126577
-0.12099
-0.115327
-0.109597
-0.10381
-0.0979762
-0.0921084
-0.0862185
-0.0803183
-0.0744305
-0.0685715
-0.0627504
-0.0570038
-0.0513669
-0.0457293
-0.0403464
-0.0350871
-0.0293784
-0.024464
-0.0196217
-0.0148577
-0.0103255
-0.00596915
-0.00179113
0.00217899
0.00594075
0.00967254
0.0135471
0.0158443
-0.182439
-0.175311
-0.169692
-0.16442
-0.159094
-0.153743
-0.148311
-0.142831
-0.137175
-0.131256
-0.125432
-0.119402
-0.113314
-0.107121
-0.100856
-0.0945421
-0.0881973
-0.081845
-0.0755019
-0.0691777
-0.0629149
-0.0567531
-0.0505606
-0.0446461
-0.0390191
-0.0323211
-0.0269935
-0.021616
-0.0162857
-0.0112097
-0.00632592
-0.00163894
0.00283129
0.00708276
0.011117
0.0149188
0.0184941
0.0220333
0.0257219
0.0277654
-0.178472
-0.171239
-0.16553
-0.160191
-0.154737
-0.149154
-0.143413
-0.137479
-0.131339
-0.125041
-0.11872
-0.111652
-0.105043
-0.0982406
-0.0913692
-0.0844699
-0.0775558
-0.0706865
-0.0639078
-0.057077
-0.0504971
-0.0442356
-0.0368605
-0.0308216
-0.0247935
-0.0187637
-0.0130528
-0.00753078
-0.00221089
0.00286877
0.00770023
0.0122823
0.0166106
0.0206869
0.024515
0.0280852
0.0314094
0.034689
0.0381252
0.039889
-0.174121
-0.16703
-0.161429
-0.156172
-0.150662
-0.144842
-0.138695
-0.132211
-0.125416
-0.118365
-0.111133
-0.103727
-0.0963767
-0.0885528
-0.0809123
-0.0734098
-0.0658921
-0.058483
-0.0514239
-0.0433497
-0.0364373
-0.0296068
-0.0227847
-0.0162903
-0.00998927
-0.00390454
0.00192013
0.00747474
0.0127546
0.0177473
0.0224472
0.0268533
0.0309662
0.0347915
0.0383358
0.0415944
0.0445835
0.0475103
0.0505943
0.0520395
-0.169412
-0.16303
-0.157843
-0.152835
-0.147283
-0.141101
-0.134338
-0.12706
-0.119362
-0.111346
-0.10311
-0.0947478
-0.0863524
-0.0779203
-0.0695388
-0.061157
-0.052799
-0.0446413
-0.0367561
-0.0289618
-0.0215048
-0.0142559
-0.00724297
-0.000509746
0.00593358
0.0120762
0.0179005
0.0233977
0.0285623
0.0333896
0.0378774
0.0420267
0.045841
0.0493281
0.0524978
0.0553505
0.0579045
0.0603566
0.0629389
0.0640064
-0.164707
-0.160432
-0.156326
-0.151634
-0.145797
-0.138841
-0.130984
-0.122445
-0.113422
-0.104089
-0.0945843
-0.0850195
-0.0754806
-0.0660226
-0.0566644
-0.0474297
-0.0384004
-0.0296453
-0.0211731
-0.0129934
-0.0051259
0.00242337
0.00963977
0.016503
0.0229999
0.0291223
0.0348643
0.0402224
0.045191
0.0497687
0.053959
0.0577663
0.0611963
0.0642577
0.066962
0.0693146
0.0713275
0.0731391
0.0749334
0.0754289
-0.155988
-0.157283
-0.155438
-0.15078
-0.143981
-0.135551
-0.125996
-0.115729
-0.105056
-0.0941954
-0.0833032
-0.0724862
-0.0618288
-0.0513574
-0.0410549
-0.0310429
-0.021409
-0.0121687
-0.00330933
0.0051749
0.0132613
0.0209391
0.0282033
0.0350462
0.0414506
0.047404
0.0529133
0.0579918
0.0626424
0.0668544
0.07063
0.0739772
0.0769002
0.0794
0.0814778
0.0831287
0.0843166
0.0849925
0.085155
0.0843857
-0.14954
-0.15608
-0.15398
-0.147029
-0.137547
-0.126563
-0.114734
-0.102517
-0.0902033
-0.0779741
-0.0659381
-0.0541721
-0.0428317
-0.0318602
-0.0210204
-0.0106843
-0.000848803
0.00852445
0.0174386
0.0259189
0.0339319
0.0414407
0.048464
0.055023
0.0611015
0.0666548
0.0717383
0.0763799
0.0805124
0.0842097
0.0874372
0.0901876
0.0924588
0.0942315
0.0954752
0.0961438
0.0960679
0.0948066
0.0922183
0.0897645
-0.24442
-0.229642
-0.215951
-0.200011
-0.182674
-0.164905
-0.147091
-0.129462
-0.112191
-0.0953915
-0.0791359
-0.0634688
-0.0484247
-0.0340466
-0.0203384
-0.00733063
0.0049667
0.016503
0.0272748
0.0373697
0.0468098
0.0554654
0.0633905
0.070732
0.0772599
0.0830806
0.0886325
0.0939134
0.0977965
0.101254
0.104236
0.106691
0.108632
0.110075
0.111044
0.111599
0.111684
0.110748
0.109208
0.11437
-0.247656
-0.219143
-0.196175
-0.174802
-0.153526
-0.1329
-0.113077
-0.0940599
-0.0758665
-0.0585114
-0.042026
-0.026413
-0.0116211
0.00231373
0.0153545
0.0275763
0.0390274
0.0494993
0.0589462
0.0682647
0.0762153
0.0835726
0.0904767
0.0976939
0.102682
0.107307
0.111474
0.115088
0.118084
0.120598
0.122665
0.124292
0.125511
0.126366
0.126921
0.127281
0.127464
0.127171
0.127214
0.133297
-0.235732
-0.201022
-0.174983
-0.151126
-0.127847
-0.105628
-0.0845527
-0.0645774
-0.045669
-0.0278026
-0.011049
0.00458908
0.0192635
0.0329697
0.045577
0.0573274
0.0681721
0.0776975
0.0849112
0.0979551
0.10353
0.109742
0.115638
0.120858
0.125253
0.129082
0.132376
0.135113
0.137332
0.139087
0.140426
0.14139
0.142027
0.142391
0.142556
0.142622
0.142578
0.142176
0.142264
0.147473
-0.216179
-0.177578
-0.150475
-0.124969
-0.1002
-0.0767629
-0.0546877
-0.0339728
-0.0145543
0.00367922
0.020506
0.0358112
0.0507419
0.0637246
0.0756506
0.0879547
0.0985763
0.107456
0.115359
0.123065
0.129246
0.134785
0.139747
0.143969
0.147499
0.150421
0.152791
0.154642
0.156019
0.156978
0.157571
0.157848
0.157861
0.157664
0.157326
0.156925
0.156425
0.155589
0.155234
0.1593
-0.190423
-0.148451
-0.120795
-0.0939253
-0.0680712
-0.0438332
-0.0211482
-0.000133566
0.0193522
0.0377288
0.0540873
0.0674977
0.0868296
0.0976954
0.108779
0.119196
0.128363
0.136447
0.143658
0.149925
0.155281
0.15984
0.163688
0.166835
0.169329
0.171238
0.172623
0.173535
0.174025
0.17415
0.17396
0.173507
0.17284
0.172008
0.171068
0.17008
0.168992
0.167592
0.166677
0.169633
-0.159332
-0.115666
-0.0874262
-0.0594049
-0.0330325
-0.00806948
0.0148338
0.0357795
0.0555568
0.0756582
0.0912662
0.10555
0.11925
0.13073
0.141123
0.150463
0.158591
0.16561
0.171644
0.176736
0.18093
0.184323
0.186991
0.188992
0.190385
0.191237
0.19161
0.191559
0.19114
0.190407
0.18941
0.188198
0.186814
0.185302
0.183709
0.182081
0.180358
0.17836
0.176861
0.17877
-0.124408
-0.0800507
-0.0510204
-0.0217128
0.00450273
0.0320894
0.055339
0.0761628
0.095225
0.112611
0.127938
0.141759
0.154
0.164677
0.173988
0.182046
0.188882
0.19459
0.199276
0.203026
0.205917
0.208036
0.209461
0.210264
0.210513
0.210273
0.209608
0.208576
0.207233
0.205628
0.203811
0.201825
0.199711
0.197503
0.195243
0.192966
0.19061
0.188027
0.185956
0.186873
-0.0858801
-0.0408663
-0.0101168
0.0209588
0.0482436
0.0735766
0.0962466
0.116758
0.135258
0.151673
0.166116
0.178776
0.189735
0.199068
0.206942
0.213487
0.218806
0.223012
0.226214
0.228513
0.230001
0.230767
0.230895
0.23046
0.229534
0.228183
0.226471
0.224455
0.222186
0.219714
0.217082
0.21433
0.211492
0.2086
0.205686
0.202779
0.199818
0.196686
0.194071
0.194054
-0.0434002
0.00350955
0.0348999
0.0651037
0.0925934
0.117415
0.139672
0.1595
0.176997
0.192225
0.205308
0.216425
0.225734
0.233385
0.239546
0.24437
0.247993
0.250543
0.252142
0.252897
0.252909
0.25227
0.251067
0.249376
0.247268
0.24481
0.242061
0.239075
0.235902
0.232585
0.229164
0.225673
0.22214
0.218593
0.215059
0.211559
0.208036
0.2044
0.201277
0.20039
0.00261137
0.050917
0.0822431
0.112218
0.139537
0.163858
0.185321
0.204024
0.220087
0.233664
0.244948
0.254153
0.261492
0.267166
0.271368
0.274275
0.276043
0.276814
0.276716
0.275863
0.274358
0.272294
0.269755
0.266816
0.263546
0.260007
0.256254
0.252337
0.248299
0.244179
0.240012
0.235825
0.231644
0.227488
0.223381
0.219337
0.215303
0.211212
0.207623
0.205936
0.0519604
0.101308
0.132511
0.162297
0.189188
0.212633
0.232816
0.249885
0.264022
0.275471
0.284506
0.291409
0.296447
0.299867
0.30189
0.302713
0.302504
0.301413
0.299569
0.297085
0.294062
0.290588
0.286743
0.282596
0.278212
0.273644
0.268943
0.264152
0.25931
0.254447
0.249593
0.24477
0.239997
0.235291
0.230667
0.226136
0.22165
0.217158
0.21315
0.210737
0.10471
0.154947
0.185988
0.215364
0.241435
0.263498
0.281807
0.296616
0.308224
0.316992
0.323296
0.327496
0.329917
0.330843
0.330516
0.329143
0.326894
0.323914
0.320327
0.316239
0.311742
0.306915
0.30183
0.296548
0.291124
0.285607
0.280037
0.274451
0.26888
0.263349
0.257881
0.252493
0.247198
0.242007
0.236932
0.231978
0.227101
0.222265
0.217887
0.214828
0.161125
0.212172
0.242919
0.271525
0.296182
0.316125
0.331753
0.343507
0.351864
0.357337
0.36042
0.361549
0.361095
0.359363
0.356596
0.352994
0.348716
0.343891
0.338628
0.333018
0.327139
0.321059
0.314837
0.308524
0.302166
0.2958
0.289461
0.283175
0.276968
0.270858
0.264861
0.258988
0.253247
0.247645
0.242189
0.236877
0.231674
0.226552
0.221859
0.218236
0.221689
0.273476
0.303686
0.330872
0.353169
0.369903
0.38176
0.389477
0.393772
0.395334
0.394765
0.392553
0.389081
0.384643
0.379459
0.373699
0.367493
0.360946
0.354141
0.347149
0.340031
0.332838
0.325618
0.318408
0.311243
0.304152
0.29716
0.290287
0.283548
0.276958
0.270524
0.264254
0.25815
0.252214
0.246449
0.240851
0.235387
0.230039
0.225086
0.220983
0.287188
0.3395
0.368686
0.393277
0.411684
0.423645
0.430334
0.432901
0.43234
0.42949
0.425006
0.419367
0.412916
0.405889