/*--------------------------------*- C++ -*----------------------------------*\
  =========                 |
  \\      /  F ield         | OpenFOAM: The Open Source CFD Toolbox
   \\    /   O peration     | Website:  https://openfoam.org
    \\  /    A nd           | Version:  7
     \\/     M anipulation  |
\*---------------------------------------------------------------------------*/
FoamFile
{
    version     2.0;
    format      ascii;
    class       surfaceScalarField;
    location    "4";
    object      phi;
}
// * * * * * * * * * * * * * * * * * * * * * * * * * * * * * * * * * * * * * //

dimensions      [0 3 -1 0 0 0 0];

internalField   nonuniform List<scalar> 
23750
(
1.58581e-06
-1.58581e-06
-1.85899e-14
5.66578e-06
-4.07997e-06
-1.04426e-13
1.14621e-05
-5.79627e-06
-1.37619e-13
1.85777e-05
-7.11568e-06
-1.65999e-13
2.68086e-05
-8.23088e-06
-1.5294e-13
3.60607e-05
-9.25212e-06
-1.57629e-13
4.62894e-05
-1.02287e-05
-1.60537e-13
5.74735e-05
-1.1184e-05
-1.43866e-13
6.96041e-05
-1.21306e-05
-1.26693e-13
8.26796e-05
-1.30756e-05
-1.18442e-13
9.67026e-05
-1.4023e-05
-1.08609e-13
0.000111678
-1.49756e-05
-9.26921e-14
0.000127614
-1.59356e-05
-8.01365e-14
0.000144518
-1.69044e-05
-7.80904e-14
0.000162401
-1.78832e-05
-8.15333e-14
0.000181274
-1.8873e-05
-8.15141e-14
0.000201149
-1.98743e-05
-7.73202e-14
0.000222036
-2.08877e-05
-7.49345e-14
0.000243949
-2.1913e-05
-7.96349e-14
0.0002669
-2.29501e-05
-9.16838e-14
0.000290898
-2.39982e-05
-1.06974e-13
0.000315954
-2.50561e-05
-1.21899e-13
0.000342076
-2.61222e-05
-1.36843e-13
0.00036927
-2.71942e-05
-1.55542e-13
0.000397539
-2.82692e-05
-1.82133e-13
0.000426883
-2.93436e-05
-2.17789e-13
0.000457296
-3.04129e-05
-2.59428e-13
0.000488768
-3.14716e-05
-3.02729e-13
0.000521281
-3.25133e-05
-3.4624e-13
0.000554811
-3.35304e-05
-3.9294e-13
0.000589325
-3.45141e-05
-4.47703e-13
0.000624779
-3.54542e-05
-5.12156e-13
0.000661119
-3.63394e-05
-5.83249e-13
0.000698275
-3.71565e-05
-6.59434e-13
0.000736167
-3.78913e-05
-7.43913e-13
0.000774695
-3.8528e-05
-8.37854e-13
0.000813744
-3.90492e-05
-9.34838e-13
0.000853179
-3.94351e-05
-1.02997e-12
0.000892847
-3.96681e-05
-1.13052e-12
-3.97338e-05
-1.23918e-12
0.000932581
2.82407e-07
-1.86821e-06
2.59111e-06
-6.38867e-06
6.75597e-06
-9.96114e-06
1.25473e-05
-1.29071e-05
1.97508e-05
-1.54344e-05
2.82052e-05
-1.77065e-05
3.78026e-05
-1.98261e-05
4.84753e-05
-2.18567e-05
6.01831e-05
-2.38385e-05
7.2904e-05
-2.57964e-05
8.66272e-05
-2.77461e-05
0.00010135
-2.96981e-05
0.000117073
-3.16593e-05
0.000133804
-3.36348e-05
0.000151549
-3.56282e-05
0.000170318
-3.76422e-05
0.000190122
-3.96788e-05
0.000210974
-4.17392e-05
0.000232885
-4.38238e-05
0.000255867
-4.59324e-05
0.000279933
-4.8064e-05
0.000305093
-5.02163e-05
0.000331358
-5.23865e-05
0.000358733
-5.45702e-05
0.000387226
-5.67618e-05
0.000416836
-5.89541e-05
0.000447562
-6.11384e-05
0.000479394
-6.33039e-05
0.000512319
-6.54377e-05
0.000546313
-6.75247e-05
0.000581346
-6.95472e-05
0.000617377
-7.14846e-05
0.000654351
-7.33137e-05
0.000692202
-7.50078e-05
0.000730848
-7.65374e-05
0.00077019
-7.787e-05
0.000810111
-7.89696e-05
0.000850471
-7.97956e-05
0.000891112
-8.03088e-05
-8.04865e-05
0.000931865
3.12573e-07
-2.18079e-06
1.87894e-06
-7.95504e-06
4.95744e-06
-1.30396e-05
9.59528e-06
-1.75449e-05
1.57265e-05
-2.15655e-05
2.32485e-05
-2.52285e-05
3.20621e-05
-2.86397e-05
4.20866e-05
-3.18812e-05
5.3262e-05
-3.50139e-05
6.55473e-05
-3.80817e-05
7.89165e-05
-4.11153e-05
9.33548e-05
-4.41365e-05
0.000108856
-4.71604e-05
0.000125419
-5.01983e-05
0.000143049
-5.32581e-05
0.000161753
-5.63459e-05
0.00018154
-5.94659e-05
0.000202422
-6.2621e-05
0.000224411
-6.58127e-05
0.00024752
-6.90414e-05
0.000271762
-7.23061e-05
0.00029715
-7.56042e-05
0.000323695
-7.89317e-05
0.000351407
-8.22826e-05
0.000380295
-8.5649e-05
0.000410361
-8.90205e-05
0.000441607
-9.23842e-05
0.000474027
-9.57242e-05
0.000507611
-9.90214e-05
0.000542339
-0.000102253
0.000578184
-0.000105392
0.000615108
-0.000108408
0.00065306
-0.000111265
0.000691975
-0.000113923
0.000731772
-0.000116334
0.000772351
-0.00011845
0.000813594
-0.000120212
0.000855356
-0.000121558
0.000897469
-0.000122422
-0.000122774
0.000939757
2.7969e-07
-2.46048e-06
1.57309e-06
-9.24844e-06
4.10791e-06
-1.55745e-05
8.01793e-06
-2.14549e-05
1.33478e-05
-2.68955e-05
2.00805e-05
-3.19612e-05
2.81687e-05
-3.67279e-05
3.75563e-05
-4.12687e-05
4.81907e-05
-4.56483e-05
6.00287e-05
-4.99197e-05
7.3038e-05
-5.41246e-05
8.71966e-05
-5.8295e-05
0.000102491
-6.2455e-05
0.000118916
-6.66232e-05
0.000136471
-7.08133e-05
0.000155161
-7.50358e-05
0.000174994
-7.92985e-05
0.00019598
-8.36067e-05
0.000218131
-8.79642e-05
0.000241462
-9.23723e-05
0.000265987
-9.68309e-05
0.00029172
-0.000101337
0.000318676
-0.000105887
0.000346866
-0.000110473
0.000376303
-0.000115086
0.000406995
-0.000119712
0.000438944
-0.000124334
0.000472152
-0.000128932
0.000506611
-0.000133481
0.000542308
-0.00013795
0.000579219
-0.000142303
0.00061731
-0.0001465
0.000656535
-0.00015049
0.000696832
-0.000154219
0.000738122
-0.000157624
0.000780306
-0.000160634
0.000823263
-0.000163169
0.000866843
-0.000165138
0.000910869
-0.000166448
-0.000167068
0.000955163
2.8355e-07
-2.74403e-06
1.47745e-06
-1.04423e-05
3.75392e-06
-1.78509e-05
7.24964e-06
-2.49506e-05
1.2055e-05
-3.17008e-05
1.82103e-05
-3.81165e-05
2.57191e-05
-4.42366e-05
3.45624e-05
-5.01121e-05
4.47113e-05
-5.57973e-05
5.61351e-05
-6.13435e-05
6.88063e-05
-6.67959e-05
8.27037e-05
-7.21923e-05
9.78123e-05
-7.75637e-05
0.000114124
-8.2935e-05
0.000131637
-8.83257e-05
0.000150352
-9.37514e-05
0.000170278
-9.9224e-05
0.000191423
-0.000104752
0.000213801
-0.000110342
0.000237426
-0.000115997
0.000262314
-0.000121719
0.000288482
-0.000127505
0.000315946
-0.000133352
0.000344723
-0.00013925
0.000374828
-0.00014519
0.000406272
-0.000151156
0.000439065
-0.000157127
0.000473213
-0.000163079
0.000508713
-0.000168981
0.000545558
-0.000174795
0.00058373
-0.000180476
0.000623202
-0.000185971
0.000663931
-0.00019122
0.000705861
-0.000196149
0.000748916
-0.000200679
0.000792999
-0.000204717
0.000837988
-0.000208158
0.000883729
-0.000210878
0.000930036
-0.000212755
-0.00021377
0.000976738
3.02022e-07
-3.04605e-06
1.48307e-06
-1.16234e-05
3.66238e-06
-2.00302e-05
6.95518e-06
-2.82434e-05
1.14591e-05
-3.62047e-05
1.72415e-05
-4.38989e-05
2.43404e-05
-5.13355e-05
3.277e-05
-5.85417e-05
4.25286e-05
-6.55558e-05
5.3605e-05
-7.24199e-05
6.59851e-05
-7.9176e-05
7.96554e-05
-8.58626e-05
9.46053e-05
-9.25136e-05
0.000110828
-9.91581e-05
0.000128323
-0.00010582
0.000147092
-0.00011252
0.000167141
-0.000119273
0.000188481
-0.000126092
0.000211126
-0.000132987
0.00023509
-0.000139962
0.000260392
-0.000147021
0.000287051
-0.000154164
0.000315086
-0.000161387
0.000344518
-0.000168682
0.000375364
-0.000176037
0.000407643
-0.000183435
0.000441369
-0.000190853
0.000476554
-0.000198264
0.000513202
-0.000205629
0.000551313
-0.000212905
0.000590876
-0.000220039
0.000631871
-0.000226966
0.000674262
-0.000233611
0.000717999
-0.000239887
0.000763012
-0.000245691
0.000809206
-0.000250911
0.00085646
-0.000255412
0.000904617
-0.000259035
0.000953486
-0.000261624
-0.000263187
0.0010029
3.1907e-07
-3.36512e-06
1.52114e-06
-1.28255e-05
3.68573e-06
-2.21948e-05
6.90253e-06
-3.14602e-05
1.12593e-05
-4.05616e-05
1.68303e-05
-4.94699e-05
2.36712e-05
-5.81764e-05
3.18189e-05
-6.66895e-05
4.12945e-05
-7.50314e-05
5.21073e-05
-8.32327e-05
6.42592e-05
-9.1328e-05
7.77489e-05
-9.93523e-05
9.25743e-05
-0.000107339
0.000108735
-0.000115319
0.000126232
-0.000123318
0.000145072
-0.00013136
0.000165262
-0.000139463
0.000186815
-0.000147645
0.000209744
-0.000155916
0.000234068
-0.000164286
0.000259805
-0.000172759
0.000286978
-0.000181337
0.000315609
-0.000190018
0.000345722
-0.000198795
0.00037734
-0.000207655
0.000410486
-0.000216581
0.00044518
-0.000225548
0.000481441
-0.000234524
0.000519281
-0.000243469
0.000558707
-0.000252332
0.000599718
-0.00026105
0.000642302
-0.000269549
0.000686431
-0.000277741
0.000732064
-0.00028552
0.000779137
-0.000292764
0.000827561
-0.000299335
0.000877218
-0.000305069
0.000927948
-0.000309765
0.000979556
-0.000313232
-0.000315518
0.00103189
3.34855e-07
-3.69997e-06
1.56808e-06
-1.40587e-05
3.7538e-06
-2.43805e-05
6.96076e-06
-3.46672e-05
1.12628e-05
-4.48636e-05
1.67308e-05
-5.49379e-05
2.34265e-05
-6.48721e-05
3.13998e-05
-7.46627e-05
4.06875e-05
-8.43191e-05
5.13159e-05
-9.3861e-05
6.33023e-05
-0.000103314
7.66585e-05
-0.000112709
9.13932e-05
-0.000122074
0.000107514
-0.000131439
0.000125028
-0.000140832
0.000143947
-0.000150278
0.00016428
-0.000159797
0.000186044
-0.000169408
0.000209254
-0.000179126
0.00023393
-0.000188962
0.000260094
-0.000198923
0.00028777
-0.000209013
0.000316985
-0.000219232
0.000347764
-0.000229574
0.000380137
-0.000240027
0.00041413
-0.000250574
0.000449772
-0.000261189
0.000487086
-0.000271839
0.000526095
-0.000282478
0.000566814
-0.000293051
0.000609252
-0.000303488
0.000653406
-0.000313704
0.000699262
-0.000323597
0.000746787
-0.000333044
0.000795925
-0.000341903
0.000846598
-0.000350008
0.000898691
-0.000357162
0.000952045
-0.00036312
0.00100646
-0.000367648
-0.000370851
0.00106179
3.48151e-07
-4.04813e-06
1.61075e-06
-1.53213e-05
3.82633e-06
-2.65961e-05
7.04921e-06
-3.78901e-05
1.1341e-05
-4.91554e-05
1.6766e-05
-6.03629e-05
2.33861e-05
-7.14922e-05
3.12568e-05
-8.25333e-05
4.04248e-05
-9.34872e-05
5.09285e-05
-0.000104365
6.27979e-05
-0.000115184
7.6057e-05
-0.000125968
9.0725e-05
-0.000136742
0.000106818
-0.000147533
0.000124353
-0.000158367
0.000143343
-0.000169268
0.000163806
-0.00018026
0.00018576
-0.000191362
0.000209223
-0.000202589
0.000234219
-0.000213957
0.000260771
-0.000225475
0.000288906
-0.000237149
0.000318653
-0.000248979
0.000350042
-0.000260963
0.000383106
-0.000273091
0.000417876
-0.000285345
0.000454387
-0.0002977
0.00049267
-0.000310122
0.000532756
-0.000322564
0.000574671
-0.000334965
0.000618434
-0.000347251
0.000664056
-0.000359326
0.000711533
-0.000371075
0.000760847
-0.000382358
0.000811956
-0.000393011
0.000864789
-0.000402841
0.000919242
-0.000411615
0.000975158
-0.000419036
0.00103234
-0.000424826
-0.00042916
0.00109065
3.57175e-07
-4.4053e-06
1.63897e-06
-1.66031e-05
3.87534e-06
-2.88325e-05
7.11214e-06
-4.11269e-05
1.14024e-05
-5.34456e-05
1.68044e-05
-6.57649e-05
2.33778e-05
-7.80657e-05
3.118e-05
-9.03355e-05
4.02632e-05
-0.00010257
5.06738e-05
-0.000114775
6.24513e-05
-0.000126961
7.56295e-05
-0.000139146
9.02373e-05
-0.000151349
0.0001063
-0.000163595
0.00012384
-0.000175907
0.000142879
-0.000188307
0.000163438
-0.000200819
0.000185539
-0.000213463
0.000209206
-0.000226256
0.000234461
-0.000239213
0.000261333
-0.000252347
0.00028985
-0.000265665
0.000320043
-0.000279172
0.000351944
-0.000292864
0.000385589
-0.000306736
0.000421016
-0.000320772
0.000458263
-0.000334947
0.00049737
-0.000349228
0.000538374
-0.000363568
0.000581314
-0.000377905
0.00062622
-0.000392157
0.000673117
-0.000406223
0.000722018
-0.000419976
0.000772919
-0.000433259
0.000825795
-0.000445887
0.00088059
-0.000457636
0.000937212
-0.000468237
0.000995512
-0.000477336
0.00105529
-0.000484601
-0.000490297
0.00111642
3.60266e-07
-4.76557e-06
1.64429e-06
-1.78871e-05
3.8791e-06
-3.10673e-05
7.1073e-06
-4.43551e-05
1.13773e-05
-5.77157e-05
1.67438e-05
-7.11313e-05
2.32643e-05
-8.45862e-05
3.09965e-05
-9.80677e-05
3.99957e-05
-0.00011157
5.03131e-05
-0.000125093
6.19952e-05
-0.000138643
7.50833e-05
-0.000152234
8.96138e-05
-0.00016588
0.000105619
-0.000179601
0.00012313
-0.000193417
0.000142172
-0.00020735
0.000162772
-0.00022142
0.000184956
-0.000235647
0.00020875
-0.00025005
0.00023418
-0.000264644
0.000261275
-0.000279442
0.000290065
-0.000294455
0.000320583
-0.000309689
0.000352862
-0.000325144
0.00038694
-0.000340814
0.000422858
-0.000356689
0.000460658
-0.000372747
0.000500386
-0.000388956
0.000542087
-0.00040527
0.00058581
-0.000421628
0.000631599
-0.000437946
0.000679494
-0.000454118
0.000729527
-0.000470008
0.000781712
-0.000485445
0.000836047
-0.000500221
0.000892495
-0.000514085
0.000950983
-0.000526725
0.00101137
-0.000537724
0.00107346
-0.000546693
-0.000553993
0.00113716
3.55717e-07
-5.12128e-06
1.6189e-06
-1.91503e-05
3.81881e-06
-3.32672e-05
6.99957e-06
-4.75358e-05
1.12091e-05
-6.19252e-05
1.65011e-05
-7.64233e-05
2.29326e-05
-9.10177e-05
3.05617e-05
-0.000105697
3.94455e-05
-0.000120453
4.96385e-05
-0.000135286
6.11917e-05
-0.000150197
7.41519e-05
-0.000165194
8.85615e-05
-0.00018029
0.000104459
-0.000195499
0.00012188
-0.000210838
0.000140856
-0.000226326
0.000161419
-0.000241982
0.000183596
-0.000257824
0.000207416
-0.00027387
0.000232909
-0.000290136
0.000260104
-0.000306637
0.00028903
-0.000323382
0.00031972
-0.000340379
0.00035221
-0.000357633
0.000386536
-0.000375141
0.000422741
-0.000392894
0.000460868
-0.000410875
0.000500967
-0.000429055
0.000543091
-0.000447394
0.000587295
-0.000465832
0.000633637
-0.000484288
0.000682174
-0.000502655
0.000732958
-0.000520791
0.000786029
-0.000538516
0.000841409
-0.000555602
0.000899092
-0.000571768
0.00095903
-0.000586662
0.0010211
-0.000599797
0.00108512
-0.000610711
-0.000619873
0.001151
3.41699e-07
-5.46298e-06
1.55506e-06
-2.03636e-05
3.67698e-06
-3.53891e-05
6.75771e-06
-5.06166e-05
1.08488e-05
-6.60163e-05
1.6006e-05
-8.15805e-05
2.22878e-05
-9.72995e-05
2.97535e-05
-0.000113162
3.84619e-05
-0.000129162
4.84699e-05
-0.000145294
5.98317e-05
-0.000161558
7.25979e-05
-0.00017796
8.68152e-05
-0.000194507
0.000102527
-0.00021121
0.000119772
-0.000228083
0.000138588
-0.000245142
0.000159007
-0.000262401
0.000181063
-0.00027988
0.000204785
-0.000297592
0.000230203
-0.000315554
0.000257346
-0.00033378
0.000286245
-0.000352281
0.000316931
-0.000371065
0.000349437
-0.000390139
0.000383798
-0.000409502
0.000420055
-0.000429151
0.000458251
-0.000449071
0.000498436
-0.00046924
0.000540665
-0.000489623
0.000585
-0.000510167
0.00063151
-0.000530798
0.000680267
-0.000551412
0.000731345
-0.000571869
0.000784812
-0.000591984
0.000840727
-0.000611516
0.00089912
-0.000630161
0.00095998
-0.000647523
0.00102322
-0.000663038
0.00108867
-0.000676161
-0.00068747
0.00115627
3.16134e-07
-5.77911e-06
1.44466e-06
-2.14922e-05
3.43628e-06
-3.73807e-05
6.35238e-06
-5.35327e-05
1.02522e-05
-6.99161e-05
1.51967e-05
-8.65251e-05
2.1248e-05
-0.000103351
2.84676e-05
-0.000120382
3.69165e-05
-0.000137611
4.66534e-05
-0.000155031
5.77347e-05
-0.00017264
7.02139e-05
-0.000190439
8.41406e-05
-0.000208434
9.95613e-05
-0.000226631
0.000116519
-0.000245041
0.000135052
-0.000263675
0.000155199
-0.000282548
0.000176992
-0.000301673
0.000200463
-0.000321064
0.000225644
-0.000340735
0.000252562
-0.000360698
0.000281247
-0.000380966
0.000311727
-0.000401545
0.000344033
-0.000422444
0.000378195
-0.000443665
0.00041425
-0.000465205
0.000452236
-0.000487057
0.0004922
-0.000509204
0.000534195
-0.000531618
0.000578284
-0.000554256
0.000624541
-0.000577054
0.00067305
-0.000599921
0.000723906
-0.000622725
0.000777209
-0.000645287
0.000833057
-0.000667364
0.000891533
-0.000688637
0.000952681
-0.000708671
0.00101647
-0.000726825
0.00108276
-0.00074245
-0.000756227
0.00115151
2.76254e-07
-6.05537e-06
1.27846e-06
-2.24944e-05
3.07874e-06
-3.9181e-05
5.75504e-06
-5.6209e-05
9.37881e-06
-7.35398e-05
1.40194e-05
-9.11657e-05
1.97437e-05
-0.000109075
2.66171e-05
-0.000127255
3.47026e-05
-0.000145696
4.4061e-05
-0.000164389
5.47503e-05
-0.000183329
6.68256e-05
-0.000202515
8.03389e-05
-0.000221947
9.53387e-05
-0.000241631
0.00011187
-0.000261572
0.000129975
-0.00028178
0.000149691
-0.000302264
0.000171055
-0.000323037
0.0001941
-0.000344108
0.000218855
-0.00036549
0.000245349
-0.000387193
0.00027361
-0.000409226
0.000303662
-0.000431598
0.000335533
-0.000454315
0.000369248
-0.00047738
0.000404834
-0.000500792
0.000442325
-0.000524548
0.000481758
-0.000548636
0.000523177
-0.000573037
0.00056664
-0.000597719
0.000612218
-0.000622632
0.000659998
-0.000647702
0.000710091
-0.000672818
0.000762624
-0.00069782
0.000817738
-0.000722479
0.00087558
-0.000746479
0.000936274
-0.000769365
0.00099987
-0.00079042
0.0010663
-0.000808879
-0.000825503
0.00113557
2.18134e-07
-6.2735e-06
1.04538e-06
-2.33216e-05
2.58522e-06
-4.07209e-05
4.93818e-06
-5.85619e-05
8.1928e-06
-7.67945e-05
1.24292e-05
-9.54021e-05
1.77202e-05
-0.000114366
2.41348e-05
-0.00013367
3.17391e-05
-0.0001533
4.05953e-05
-0.000173245
5.07626e-05
-0.000193496
6.22975e-05
-0.000214049
7.52529e-05
-0.000234902
8.9679e-05
-0.000256057
0.000105622
-0.000277515
0.000123126
-0.000299284
0.000142231
-0.000321369
0.000162974
-0.000343779
0.000185388
-0.000366522
0.000209505
-0.000389607
0.000235352
-0.00041304
0.000262955
-0.000436829
0.000292337
-0.000460981
0.000323521
-0.000485498
0.000356526
-0.000510385
0.000391373
-0.000535639
0.000428084
-0.000561259
0.000466684
-0.000587237
0.000507205
-0.000613558
0.00054969
-0.000640203
0.000594194
-0.000667136
0.000640799
-0.000694306
0.00068961
-0.00072163
0.000740772
-0.000748981
0.000794462
-0.000776169
0.000850895
-0.000802912
0.000910297
-0.000828767
0.000972846
-0.000852969
0.0010386
-0.000874633
-0.00089457
0.00110767
1.31748e-07
-6.40525e-06
7.26342e-07
-2.39162e-05
1.92857e-06
-4.19231e-05
3.86802e-06
-6.05014e-05
6.65569e-06
-7.95821e-05
1.03841e-05
-9.91305e-05
1.51305e-05
-0.000119112
2.09676e-05
-0.000139507
2.7964e-05
-0.000160297
3.61833e-05
-0.000181465
4.56855e-05
-0.000202999
5.65275e-05
-0.000224891
6.87632e-05
-0.000247138
8.24434e-05
-0.000269737
9.7616e-05
-0.000292688
0.000114325
-0.000315993
0.000132613
-0.000339657
0.000152518
-0.000363684
0.000174073
-0.000388078
0.000197312
-0.000412845
0.000222262
-0.00043799
0.00024895
-0.000463516
0.000277396
-0.000489427
0.000307619
-0.000515722
0.000339638
-0.000542403
0.000373464
-0.000569466
0.000409113
-0.000596907
0.000446595
-0.000624719
0.000485927
-0.00065289
0.000527129
-0.000681406
0.000570237
-0.000710244
0.000615302
-0.000739371
0.000662409
-0.000768737
0.000711688
-0.00079826
0.000763328
-0.000827809
0.000817591
-0.000857175
0.000874812
-0.000885988
0.000935345
-0.000913503
0.000999461
-0.000938749
-0.000962575
0.00106747
-2.76586e-09
-6.40249e-06
2.76888e-07
-2.41959e-05
1.06596e-06
-4.27122e-05
2.49558e-06
-6.1931e-05
4.71958e-06
-8.18061e-05
7.83799e-06
-0.000102249
1.19303e-05
-0.000123205
1.70707e-05
-0.000144648
2.333e-05
-0.000166556
3.07725e-05
-0.000188907
3.94583e-05
-0.000211685
4.94446e-05
-0.000234878
6.07858e-05
-0.000258479
7.35331e-05
-0.000282484
8.7735e-05
-0.00030689
0.000103437
-0.000331695
0.000120682
-0.000356902
0.000139509
-0.00038251
0.000159954
-0.000408523
0.00018205
-0.000434942
0.000205828
-0.000461768
0.000231312
-0.000489001
0.000258527
-0.000516642
0.000287492
-0.000544687
0.000318221
-0.000573132
0.000350728
-0.000601972
0.000385019
-0.000631199
0.0004211
-0.0006608
0.000458975
-0.000690764
0.000498645
-0.000721076
0.000540117
-0.000751716
0.000583408
-0.000782663
0.000628559
-0.000813888
0.000675647
-0.000845349
0.000724821
-0.000876982
0.00077633
-0.000908684
0.000830568
-0.000940226
0.000888056
-0.00097099
0.000949383
-0.00100008
-0.00102853
0.00101534
-1.68437e-07
-6.23405e-06
-2.72982e-07
-2.40913e-05
-2.44199e-11
-4.29851e-05
8.92057e-07
-6.28231e-05
2.48574e-06
-8.33998e-05
4.929e-06
-0.000104692
8.27547e-06
-0.000126551
1.26084e-05
-0.000148981
1.80039e-05
-0.000171952
2.45272e-05
-0.00019543
3.22393e-05
-0.000219397
4.11979e-05
-0.000243836
5.14579e-05
-0.000268739
6.30709e-05
-0.000294097
7.60862e-05
-0.000319905
9.05499e-05
-0.000346159
0.000106505
-0.000372857
0.000123993
-0.000399999
0.000143052
-0.000427581
0.000163714
-0.000455605
0.000186014
-0.000484067
0.000209978
-0.000512965
0.000235632
-0.000542296
0.000262999
-0.000572054
0.000292097
-0.00060223
0.000322941
-0.000632816
0.000355542
-0.000663799
0.000389906
-0.000695164
0.000426035
-0.000726894
0.000463927
-0.000758968
0.000503575
-0.000791363
0.000544969
-0.000824057
0.000588104
-0.000857024
0.000632993
-0.000890238
0.000679687
-0.000923676
0.000728326
-0.000957323
0.000779208
-0.000991108
0.000832872
-0.00102465
0.000890288
-0.00105749
-0.00109178
0.000953532
-3.73093e-07
-5.86096e-06
-9.06536e-07
-2.35579e-05
-1.08337e-06
-4.28083e-05
-7.80883e-07
-6.31256e-05
1.65079e-07
-8.43458e-05
1.78389e-06
-0.000106311
4.25804e-06
-0.000129025
7.6589e-06
-0.000152381
1.20517e-05
-0.000176344
1.7502e-05
-0.000200881
2.40719e-05
-0.000225966
3.18194e-05
-0.000251584
4.07996e-05
-0.000277719
5.10645e-05
-0.000304362
6.26637e-05
-0.000331504
7.56437e-05
-0.000359139
9.00486e-05
-0.000387262
0.00010592
-0.00041587
0.000123296
-0.000444957
0.000142213
-0.000474522
0.000162705
-0.000504558
0.000184802
-0.000535062
0.000208533
-0.000566027
0.000233925
-0.000597445
0.000261001
-0.000629306
0.000289783
-0.000661599
0.000320292
-0.000694308
0.000352544
-0.000727416
0.000386554
-0.000760905
0.000422336
-0.00079475
0.000459899
-0.000828926
0.000499248
-0.000863406
0.000540384
-0.00089816
0.000583305
-0.000933159
0.000628011
-0.000968382
0.000674528
-0.00100384
0.000722958
-0.00103954
0.000773575
-0.00107527
0.000827077
-0.00111099
-0.00114933
0.000884624
1.75615e-06
-7.61711e-06
4.69575e-06
-2.64975e-05
8.39233e-06
-4.65049e-05
1.27845e-05
-6.75177e-05
1.78967e-05
-8.9458e-05
2.38283e-05
-0.000112243
3.06084e-05
-0.000135805
3.83197e-05
-0.000160093
4.7032e-05
-0.000185057
5.68123e-05
-0.000210661
6.77237e-05
-0.000236878
7.98252e-05
-0.000263685
9.31724e-05
-0.000291067
0.000107818
-0.000319008
0.000123811
-0.000347497
0.000141199
-0.000376527
0.000160024
-0.000406088
0.00018033
-0.000436175
0.000202153
-0.00046678
0.000225529
-0.000497898
0.000250492
-0.000529522
0.000277074
-0.000561644
0.000305302
-0.000594255
0.000335204
-0.000627347
0.000366806
-0.000660908
0.000400133
-0.000694926
0.00043521
-0.000729385
0.000472064
-0.00076427
0.000510723
-0.000799564
0.000551223
-0.000835249
0.000593604
-0.000871307
0.000637922
-0.000907724
0.000684254
-0.000944491
0.000732708
-0.000981613
0.000783451
-0.00101913
0.00083673
-0.00105712
0.000892958
-0.00109577
0.000953054
-0.00113537
0.00101893
-0.00117687
-0.00122308
0.00109268
9.54159e-07
-8.57127e-06
3.40183e-06
-2.89452e-05
6.98107e-06
-5.00841e-05
1.15211e-05
-7.20577e-05
1.69544e-05
-9.48913e-05
2.32748e-05
-0.000118563
3.05079e-05
-0.000143039
3.86953e-05
-0.00016828
4.78892e-05
-0.000194251
5.81454e-05
-0.000220917
6.95203e-05
-0.000248253
8.20686e-05
-0.000276234
9.58433e-05
-0.000304841
0.000110895
-0.000334059
0.000127271
-0.000363874
0.000145018
-0.000394273
0.000164178
-0.000425248
0.00018479
-0.000456788
0.000206894
-0.000488884
0.000230523
-0.000521527
0.00025571
-0.000554709
0.000282487
-0.00058842
0.000310881
-0.00062265
0.000340921
-0.000657387
0.000372633
-0.00069262
0.000406043
-0.000728336
0.000441178
-0.00076452
0.000478069
-0.000801161
0.000516748
-0.000838243
0.000557254
-0.000875756
0.000599639
-0.000913691
0.000643964
-0.00095205
0.000690316
-0.000990843
0.000738806
-0.0010301
0.000789582
-0.0010699
0.000842828
-0.00111037
0.000898769
-0.00115171
0.0009577
-0.0011943
0.00101968
-0.00123885
-0.00128645
0.00108305
7.40545e-07
-9.31181e-06
2.83357e-06
-3.10382e-05
6.16198e-06
-5.34125e-05
1.06116e-05
-7.65073e-05
1.61035e-05
-0.000100383
2.25996e-05
-0.000125059
3.00923e-05
-0.000150531
3.85954e-05
-0.000176783
4.81387e-05
-0.000203794
5.87605e-05
-0.000231539
7.05046e-05
-0.000259997
8.34165e-05
-0.000289146
9.75424e-05
-0.000318967
0.000112928
-0.000349444
0.000129616
-0.000380562
0.00014765
-0.000412307
0.000167069
-0.000444667
0.00018791
-0.000477629
0.000210209
-0.000511183
0.000233999
-0.000545317
0.000259309
-0.00058002
0.000286169
-0.00061528
0.000314604
-0.000651085
0.000344639
-0.000687422
0.000376297
-0.000724279
0.000409602
-0.000761641
0.000444577
-0.000799495
0.000481246
-0.000837829
0.000519635
-0.000876631
0.000559773
-0.000915894
0.000601694
-0.000955613
0.00064544
-0.000995795
0.000691056
-0.00103646
0.000738595
-0.00107764
0.000788107
-0.00111941
0.000839626
-0.00116188
0.000893144
-0.00120522
0.000948554
-0.00124971
0.00100542
-0.00129572
-0.00134347
0.00106245
6.98629e-07
-1.00104e-05
2.6283e-06
-3.29679e-05
5.77213e-06
-5.65564e-05
1.00863e-05
-8.08215e-05
1.5523e-05
-0.00010582
2.20482e-05
-0.000131584
2.96447e-05
-0.000158128
3.83118e-05
-0.000185451
4.80628e-05
-0.000213545
5.89208e-05
-0.000242397
7.09162e-05
-0.000271992
8.40836e-05
-0.000302313
9.84602e-05
-0.000333344
0.000114084
-0.000365068
0.000130992
-0.000397471
0.000149222
-0.000430537
0.000168808
-0.000464253
0.000189784
-0.000498605
0.00021218
-0.000533579
0.000236026
-0.000569163
0.000261347
-0.000605341
0.000288168
-0.000642101
0.000316511
-0.000679427
0.000346394
-0.000717306
0.000377836
-0.000755721
0.000410853
-0.000794658
0.00044546
-0.000834102
0.000481669
-0.000874039
0.000519495
-0.000914457
0.00055895
-0.000955348
0.000600043
-0.000996707
0.000642785
-0.00103854
0.000687177
-0.00108085
0.000733215
-0.00112368
0.000780868
-0.00116707
0.000830072
-0.00121109
0.000880697
-0.00125585
0.000932506
-0.00130152
0.00098505
-0.00134826
-0.00139596
0.00103754
6.79197e-07
-1.06896e-05
2.52417e-06
-3.48128e-05
5.54811e-06
-5.95803e-05
9.7432e-06
-8.50165e-05
1.50905e-05
-0.000111167
2.1571e-05
-0.000138065
2.9172e-05
-0.000165729
3.78898e-05
-0.000194168
4.77296e-05
-0.000223384
5.8705e-05
-0.000253372
7.08361e-05
-0.000284123
8.41477e-05
-0.000315625
9.8668e-05
-0.000347864
0.000114427
-0.000380827
0.000131454
-0.000414498
0.00014978
-0.000448863
0.000169435
-0.000483907
0.000190444
-0.000519614
0.000212835
-0.00055597
0.000236629
-0.000592957
0.000261849
-0.000630561
0.000288512
-0.000668764
0.000316634
-0.000707549
0.000346228
-0.0007469
0.000377304
-0.000786797
0.00040987
-0.000827223
0.000443929
-0.000868161
0.000479483
-0.000909594
0.000516532
-0.000951506
0.000555068
-0.000993884
0.00059508
-0.00103672
0.000636551
-0.00108001
0.000679448
-0.00112375
0.000723727
-0.00116796
0.000769314
-0.00121265
0.0008161
-0.00125787
0.000863921
-0.00130367
0.000912532
-0.00135013
0.000961574
-0.00139731
-0.00144494
0.00101055
6.69526e-07
-1.13592e-05
2.46468e-06
-3.6608e-05
5.40644e-06
-6.2522e-05
9.50347e-06
-8.91136e-05
1.47549e-05
-0.000116419
2.11557e-05
-0.000144466
2.87014e-05
-0.000173274
3.73907e-05
-0.000202858
4.72276e-05
-0.000233221
5.82207e-05
-0.000264366
7.0384e-05
-0.000296286
8.37349e-05
-0.000328976
9.82939e-05
-0.000362423
0.000114083
-0.000396616
0.000131126
-0.000431541
0.000149446
-0.000467183
0.000169065
-0.000503526
0.000190004
-0.000540553
0.000212283
-0.000578248
0.000235918
-0.000616593
0.000260924
-0.000655567
0.000287313
-0.000695153
0.000315093
-0.000735329
0.00034427
-0.000776076
0.000374845
-0.000817372
0.000406817
-0.000859195
0.00044018
-0.000901524
0.000474924
-0.000944337
0.000511033
-0.000987615
0.000548487
-0.00103134
0.000587255
-0.00107549
0.000627301
-0.00112005
0.000668571
-0.00116502
0.000710999
-0.00121039
0.000754492
-0.00125615
0.000798928
-0.00130231
0.000844146
-0.00134889
0.000889932
-0.00139591
0.000936007
-0.00144338
-0.00149098
0.000982046
6.62675e-07
-1.20218e-05
2.42168e-06
-3.8367e-05
5.29913e-06
-6.53995e-05
9.31076e-06
-9.31252e-05
1.44656e-05
-0.000121573
2.07681e-05
-0.000150768
2.82213e-05
-0.000180728
3.68281e-05
-0.000211464
4.65935e-05
-0.000242987
5.75252e-05
-0.000275297
6.96334e-05
-0.000308395
8.29309e-05
-0.000342273
9.74325e-05
-0.000376925
0.000113154
-0.000412338
0.000130113
-0.0004485
0.000148326
-0.000485395
0.000167808
-0.000523008
0.000188573
-0.000561319
0.000210636
-0.000600311
0.000234006
-0.000639962
0.00025869
-0.000680252
0.000284694
-0.000721157
0.000312019
-0.000762654
0.000340662
-0.000804719
0.000370618
-0.000847327
0.000401875
-0.000890452
0.000434418
-0.000934067
0.000468227
-0.000978147
0.000503276
-0.00102266
0.000539531
-0.00106759
0.000576951
-0.00111291
0.000615484
-0.00115859
0.000655068
-0.0012046
0.000695625
-0.00125094
0.000737056
-0.00129758
0.000779243
-0.0013445
0.000822038
-0.00139168
0.000865262
-0.00143914
0.000908696
-0.00148681
-0.0015344
0.000952114
6.54505e-07
-1.26763e-05
2.38038e-06
-4.00929e-05
5.19917e-06
-6.82183e-05
9.12924e-06
-9.70553e-05
1.41846e-05
-0.000126629
2.03754e-05
-0.000156959
2.77099e-05
-0.000188062
3.61949e-05
-0.000219949
4.58374e-05
-0.000252629
5.66451e-05
-0.000286105
6.86266e-05
-0.000320376
8.1792e-05
-0.000355439
9.61519e-05
-0.000391285
0.000111718
-0.000427904
0.0001285
-0.000465283
0.000146511
-0.000503406
0.00016576
-0.000542256
0.000186255
-0.000581814
0.000208002
-0.000622058
0.000231005
-0.000662966
0.000255266
-0.000704512
0.000280782
-0.000746672
0.000307546
-0.000789419
0.000335551
-0.000832724
0.000364781
-0.000876557
0.000395217
-0.000920889
0.000426838
-0.000965687
0.000459612
-0.00101092
0.000493506
-0.00105656
0.000528477
-0.00110256
0.000564476
-0.00114891
0.000601443
-0.00119555
0.00063931
-0.00124247
0.000677995
-0.00128963
0.000717403
-0.00133699
0.000757421
-0.00138452
0.000797921
-0.00143218
0.000838748
-0.00147996
0.000879729
-0.0015278
-0.00157537
0.000920701
6.43888e-07
-1.33202e-05
2.33486e-06
-4.17838e-05
5.09363e-06
-7.09771e-05
8.93945e-06
-0.000100901
1.38886e-05
-0.000131578
1.99546e-05
-0.000163025
2.71488e-05
-0.000195256
3.54808e-05
-0.000228281
4.49592e-05
-0.000262108
5.55924e-05
-0.000296738
6.73884e-05
-0.000332172
8.03551e-05
-0.000368405
9.45005e-05
-0.00040543
0.000109832
-0.000443235
0.000126357
-0.000481807
0.00014408
-0.00052113
0.000163007
-0.000561184
0.000183141
-0.000601947
0.00020448
-0.000643398
0.000227024
-0.000685509
0.000250766
-0.000728254
0.000275698
-0.000771604
0.000301807
-0.000815528
0.000329077
-0.000859994
0.000357487
-0.000904967
0.000387011
-0.000950413
0.000417618
-0.000996295
0.000449273
-0.00104258
0.000481934
-0.00108922
0.000515552
-0.00113618
0.000550072
-0.00118343
0.000585431
-0.00123091
0.000621558
-0.0012786
0.000658371
-0.00132644
0.000695779
-0.00137439
0.00073368
-0.00142242
0.000771957
-0.00147046
0.000810482
-0.00151849
0.000849111
-0.00156643
-0.00161398
0.000887722
6.30375e-07
-1.39506e-05
2.28238e-06
-4.34359e-05
4.97603e-06
-7.36707e-05
8.73078e-06
-0.000104656
1.3564e-05
-0.000136411
1.94908e-05
-0.000168952
2.65244e-05
-0.00020229