/*--------------------------------*- C++ -*----------------------------------*\
  =========                 |
  \\      /  F ield         | OpenFOAM: The Open Source CFD Toolbox
   \\    /   O peration     | Website:  https://openfoam.org
    \\  /    A nd           | Version:  7
     \\/     M anipulation  |
\*---------------------------------------------------------------------------*/
FoamFile
{
    version     2.0;
    format      ascii;
    class       volVectorField;
    location    "4";
    object      U;
}
// * * * * * * * * * * * * * * * * * * * * * * * * * * * * * * * * * * * * * //

dimensions      [0 1 -1 0 0 0 0];

internalField   nonuniform List<vector> 
12000
(
(0.00144843 -0.00129406 -1.06356e-21)
(0.00644718 -0.00296434 -8.00952e-21)
(0.012464 -0.00357156 -3.33866e-21)
(0.0192038 -0.00383862 -4.42591e-21)
(0.0264063 -0.00402839 1.79305e-21)
(0.0339408 -0.00420097 -5.49856e-21)
(0.041724 -0.0043683 8.14371e-21)
(0.0496925 -0.00453257 9.02095e-21)
(0.0577986 -0.00469248 -1.1507e-20)
(0.0660066 -0.00484602 6.7018e-21)
(0.0742891 -0.00499185 -1.15284e-21)
(0.0826243 -0.00512932 -7.58409e-21)
(0.0909949 -0.00525829 -6.92162e-21)
(0.0993864 -0.00537891 4.40181e-21)
(0.107787 -0.00549142 1.44403e-20)
(0.116187 -0.00559611 -6.89942e-21)
(0.124577 -0.00569323 -3.31405e-22)
(0.132951 -0.00578295 5.52228e-21)
(0.141301 -0.00586538 -1.25053e-20)
(0.149621 -0.0059405 7.68451e-21)
(0.157906 -0.00600817 -3.2568e-21)
(0.166148 -0.00606811 -2.88473e-21)
(0.174341 -0.00611994 9.04026e-21)
(0.182479 -0.00616309 1.47496e-21)
(0.190555 -0.00619684 -6.83505e-21)
(0.198559 -0.00622031 -3.63845e-21)
(0.206483 -0.00623243 8.89825e-22)
(0.214315 -0.00623197 7.18313e-21)
(0.222044 -0.00621747 -1.61517e-21)
(0.229657 -0.00618731 1.41084e-21)
(0.237137 -0.00613964 -1.23793e-21)
(0.244466 -0.00607245 4.30238e-21)
(0.251626 -0.00598353 -8.08863e-21)
(0.258594 -0.00587049 3.32425e-21)
(0.265347 -0.00573081 -2.46304e-21)
(0.271855 -0.005562 5.53785e-21)
(0.27809 -0.00536167 -4.63339e-21)
(0.284026 -0.0051261 5.11324e-21)
(0.289645 -0.00484866 -4.37311e-21)
(0.294842 -0.00453338 1.17465e-21)
(0.00211499 -0.00217716 3.47913e-21)
(0.00830274 -0.00607296 -1.28367e-20)
(0.0145932 -0.00863267 -7.01061e-22)
(0.0213343 -0.0102929 -7.87142e-21)
(0.0284873 -0.0114573 1.5716e-20)
(0.0359826 -0.0123395 -7.26101e-21)
(0.0437529 -0.0130507 9.66308e-22)
(0.051735 -0.0136531 -1.11782e-21)
(0.059876 -0.014181 -2.74889e-21)
(0.0681341 -0.0146536 4.73452e-21)
(0.0764771 -0.0150818 9.22857e-21)
(0.0848801 -0.0154727 -2.91069e-21)
(0.0933235 -0.0158312 -8.75325e-21)
(0.101792 -0.016161 -1.62536e-21)
(0.110272 -0.0164647 -4.64387e-21)
(0.118754 -0.0167446 3.31579e-21)
(0.127229 -0.0170023 1.1278e-20)
(0.13569 -0.0172391 -5.61884e-21)
(0.14413 -0.0174556 2.36354e-21)
(0.152541 -0.0176523 -9.39752e-22)
(0.160919 -0.0178289 5.53715e-21)
(0.169257 -0.0179849 -1.17772e-20)
(0.177549 -0.0181191 1.17205e-21)
(0.185787 -0.0182299 6.6379e-21)
(0.193965 -0.0183153 -8.75316e-21)
(0.202073 -0.0183726 1.17238e-20)
(0.210102 -0.0183986 -1.01796e-20)
(0.218041 -0.0183896 8.15722e-21)
(0.225878 -0.0183412 -2.53271e-21)
(0.233599 -0.0182483 1.21614e-21)
(0.241187 -0.0181054 3.74527e-21)
(0.248624 -0.0179062 -3.65829e-22)
(0.25589 -0.0176441 -5.8102e-21)
(0.262963 -0.0173115 -2.6853e-21)
(0.269815 -0.0169008 7.02681e-21)
(0.27642 -0.016404 5.3126e-22)
(0.282744 -0.0158134 -3.60615e-21)
(0.288763 -0.0151193 2.64127e-21)
(0.29446 -0.0143071 -4.96932e-22)
(0.299712 -0.0133836 -1.64287e-21)
(0.00261295 -0.00205009 1.71132e-20)
(0.010083 -0.00698782 -1.36227e-20)
(0.0172526 -0.0109571 9.03434e-22)
(0.0244885 -0.0139973 1.46039e-21)
(0.0319146 -0.0163406 6.29699e-21)
(0.0395714 -0.0181825 -1.26358e-20)
(0.0474557 -0.0196678 1.62043e-20)
(0.0555395 -0.0209006 -5.78104e-21)
(0.0637865 -0.0219522 -5.32818e-21)
(0.072161 -0.0228698 -7.55287e-21)
(0.080632 -0.0236843 -3.32896e-21)
(0.0891735 -0.0244168 1.73641e-20)
(0.0977643 -0.0250814 -1.29303e-20)
(0.106388 -0.0256882 -3.90328e-21)
(0.11503 -0.0262446 2.06288e-20)
(0.123679 -0.0267559 -1.06417e-20)
(0.132327 -0.0272262 8.74812e-21)
(0.140964 -0.0276584 -6.71453e-21)
(0.149585 -0.0280544 1.035e-20)
(0.158183 -0.0284152 -1.25705e-20)
(0.166751 -0.0287412 2.17828e-21)
(0.175283 -0.0290315 -1.89578e-21)
(0.183773 -0.0292848 3.95721e-21)
(0.192213 -0.0294987 2.57148e-21)
(0.200595 -0.0296699 -5.04893e-21)
(0.208912 -0.0297944 -2.99637e-22)
(0.217152 -0.029867 9.825e-22)
(0.225304 -0.0298816 3.25566e-21)
(0.233356 -0.0298309 -4.77696e-21)
(0.241292 -0.0297068 -8.91542e-22)
(0.249096 -0.0294998 1.90739e-21)
(0.256747 -0.0291997 -1.07961e-21)
(0.264224 -0.0287949 8.48003e-22)
(0.271503 -0.028273 1.95743e-21)
(0.278556 -0.0276205 -1.91854e-21)
(0.285351 -0.0268236 4.21267e-21)
(0.291853 -0.0258688 -2.39056e-21)
(0.298038 -0.0247385 2.20042e-21)
(0.303892 -0.0234064 3.44983e-21)
(0.309256 -0.0218807 -2.30862e-21)
(0.00307608 -0.00214934 2.07028e-21)
(0.0117996 -0.0077014 -1.6591e-20)
(0.0200728 -0.0125841 -3.01555e-21)
(0.0281615 -0.0166745 1.3896e-20)
(0.0362132 -0.0200576 -8.2652e-21)
(0.0443256 -0.0228488 6.21138e-21)
(0.0525523 -0.0251632 -2.08855e-21)
(0.0609112 -0.0271046 3.72196e-21)
(0.0693978 -0.0287577 -5.72204e-21)
(0.0779968 -0.0301877 -3.98593e-21)
(0.0866886 -0.0314429 -1.13678e-20)
(0.0954534 -0.0325586 9.89162e-21)
(0.104273 -0.0335606 1.40799e-20)
(0.113131 -0.0344677 -1.43157e-20)
(0.122016 -0.0352938 1.71848e-20)
(0.130914 -0.0360492 -2.01572e-20)
(0.139817 -0.0367414 1.82572e-20)
(0.148717 -0.037376 -1.26738e-22)
(0.157606 -0.0379569 -1.69194e-20)
(0.166477 -0.0384863 2.66641e-21)
(0.175325 -0.0389652 1.95629e-21)
(0.184142 -0.0393935 -3.64525e-21)
(0.192923 -0.0397694 4.97972e-21)
(0.201658 -0.0400901 3.10642e-21)
(0.210342 -0.0403516 -4.31057e-21)
(0.218963 -0.0405484 3.47201e-21)
(0.227511 -0.0406734 -6.05998e-22)
(0.235975 -0.0407185 -3.58375e-21)
(0.244341 -0.0406736 6.42284e-21)
(0.252591 -0.0405274 -4.12322e-21)
(0.260709 -0.0402668 4.46095e-21)
(0.268672 -0.0398771 -8.63427e-21)
(0.276457 -0.039342 6.68531e-21)
(0.284036 -0.0386437 -1.70136e-21)
(0.29138 -0.0377628 -4.02982e-21)
(0.298452 -0.0366793 3.56513e-21)
(0.305212 -0.0353731 -6.77912e-21)
(0.311636 -0.0338171 9.92821e-21)
(0.317716 -0.0319693 -1.45439e-21)
(0.323246 -0.0298435 -3.52797e-21)
(0.00352051 -0.00222528 -3.68851e-21)
(0.0134686 -0.00815204 -3.79294e-22)
(0.0229263 -0.0136091 5.06439e-21)
(0.0320607 -0.0184428 4.75728e-21)
(0.0409911 -0.0226506 -8.55492e-22)
(0.0498233 -0.0262729 8.88484e-21)
(0.0586377 -0.0293747 3.85649e-21)
(0.0674849 -0.0320331 -1.51221e-20)
(0.0763911 -0.0343237 1.02014e-20)
(0.0853656 -0.0363134 -6.59096e-21)
(0.0944068 -0.0380578 1.77277e-20)
(0.103507 -0.0396018 -8.29406e-21)
(0.112657 -0.0409804 -8.8448e-21)
(0.121845 -0.0422208 9.98866e-21)
(0.131061 -0.0433438 -1.82167e-20)
(0.140296 -0.0443653 -7.40911e-21)
(0.149541 -0.0452975 1.07779e-20)
(0.158789 -0.0461492 -8.89601e-21)
(0.168032 -0.046927 1.56548e-20)
(0.177264 -0.047635 -5.61799e-21)
(0.186478 -0.0482757 -2.37912e-21)
(0.195668 -0.0488495 2.6532e-21)
(0.204827 -0.0493552 1.18979e-21)
(0.213948 -0.0497898 1.47757e-21)
(0.223021 -0.0501487 -5.9167e-22)
(0.232037 -0.0504252 -3.56565e-21)
(0.240985 -0.050611 6.90911e-21)
(0.249852 -0.0506956 -3.88891e-21)
(0.258623 -0.0506667 -7.37193e-21)
(0.267279 -0.0505097 5.43137e-21)
(0.275802 -0.0502078 -9.8396e-22)
(0.284167 -0.049742 5.15499e-21)
(0.292348 -0.0490912 -5.26893e-21)
(0.300314 -0.0482317 -1.33121e-21)
(0.308032 -0.0471381 3.61512e-21)
(0.315459 -0.0457835 -9.35065e-21)
(0.322551 -0.0441408 5.1873e-21)
(0.329278 -0.0421719 -4.35229e-21)
(0.335647 -0.0398138 9.44336e-21)
(0.34139 -0.0370937 -5.1791e-21)
(0.00396775 -0.00228426 9.42232e-21)
(0.0151347 -0.00844046 -1.27777e-20)
(0.0258092 -0.0142585 7.68209e-22)
(0.0360892 -0.0195955 7.74765e-21)
(0.0460579 -0.0244091 -7.0066e-21)
(0.0558054 -0.0286925 1.0586e-20)
(0.0654152 -0.0324676 -1.0585e-20)
(0.0749529 -0.0357783 9.61242e-21)
(0.0844655 -0.0386793 -5.78385e-21)
(0.0939827 -0.0412267 -6.46005e-21)
(0.103522 -0.0434734 9.96966e-21)
(0.113089 -0.045466 -7.55924e-21)
(0.122687 -0.0472439 1.71439e-20)
(0.132312 -0.0488397 3.7196e-21)
(0.141961 -0.0502796 -1.40225e-20)
(0.151626 -0.0515845 1.04737e-20)
(0.161304 -0.0527711 -2.37041e-21)
(0.170986 -0.0538517 -1.09721e-20)
(0.180669 -0.054836 1.9174e-21)
(0.190346 -0.0557305 -7.22659e-22)
(0.200011 -0.0565392 1.67603e-21)
(0.209658 -0.057264 -1.13474e-22)
(0.219279 -0.0579043 3.39493e-21)
(0.228867 -0.0584574 -7.31687e-21)
(0.238414 -0.0589185 6.41792e-21)
(0.247909 -0.0592801 -9.98632e-21)
(0.25734 -0.0595328 3.0665e-21)
(0.266693 -0.0596643 7.58623e-21)
(0.275952 -0.0596599 -1.2351e-21)
(0.285098 -0.059502 7.78411e-21)
(0.294108 -0.0591703 -1.08964e-21)
(0.302956 -0.0586415 -1.35383e-21)
(0.311613 -0.0578893 -9.70831e-21)
(0.320044 -0.0568843 3.76176e-21)
(0.328209 -0.0555943 5.20357e-21)
(0.336062 -0.0539854 -1.03343e-20)
(0.343548 -0.0520233 4.33084e-21)
(0.350638 -0.0496565 -1.91712e-22)
(0.357348 -0.0467962 -1.56119e-21)
(0.363346 -0.0434911 -1.21078e-21)
(0.00443274 -0.00233338 2.49343e-21)
(0.0168376 -0.00862629 5.00023e-21)
(0.0287502 -0.0146649 9.00557e-21)
(0.0402299 -0.0203264 -1.35936e-20)
(0.0513317 -0.025558 1.49306e-21)
(0.0621255 -0.0303303 -1.34853e-20)
(0.0726858 -0.0346366 4.85587e-21)
(0.0830806 -0.0384928 -7.63089e-22)
(0.0933663 -0.0419305 1.00508e-20)
(0.103586 -0.0449898 -1.6078e-21)
(0.113772 -0.0477138 -1.14345e-20)
(0.123944 -0.0501442 -3.46043e-21)
(0.134115 -0.0523196 2.82158e-21)
(0.144293 -0.0542741 1.38994e-20)
(0.154479 -0.0560365 2.03414e-21)
(0.164675 -0.0576311 -4.61075e-21)
(0.174878 -0.0590776 1.32117e-20)
(0.185085 -0.060392 -1.91181e-20)
(0.195293 -0.0615863 1.65709e-20)
(0.205498 -0.0626696 4.27856e-21)
(0.215694 -0.063648 -5.10219e-21)
(0.225876 -0.0645248 2.77235e-21)
(0.236038 -0.0653004 4.31035e-21)
(0.246171 -0.0659729 -5.68723e-21)
(0.256267 -0.0665374 2.66427e-21)
(0.266315 -0.0669864 -1.05875e-21)
(0.276304 -0.0673093 -2.90045e-21)
(0.286217 -0.0674924 -1.40651e-21)
(0.296038 -0.067519 8.91141e-21)
(0.305746 -0.0673688 -1.61507e-20)
(0.315316 -0.0670179 1.7173e-20)
(0.324719 -0.0664388 -5.17269e-21)
(0.333922 -0.0656 -6.26232e-21)
(0.342885 -0.0644663 -3.66506e-22)
(0.351565 -0.0629981 6.76169e-21)
(0.359904 -0.0611544 4.18817e-23)
(0.36784 -0.0588931 -6.76077e-21)
(0.37534 -0.0561478 -4.81424e-21)
(0.382433 -0.0527979 7.57925e-21)
(0.388718 -0.0489218 -2.76084e-21)
(0.00491864 -0.00236492 4.2908e-21)
(0.0185923 -0.00871817 -1.11995e-20)
(0.0317643 -0.0148736 -7.00776e-21)
(0.0444772 -0.0207257 2.36491e-21)
(0.0567686 -0.0262244 1.15503e-20)
(0.0686919 -0.031333 2.18025e-21)
(0.0803105 -0.0360293 -5.21052e-21)
(0.0916879 -0.0403094 -4.58599e-21)
(0.102882 -0.0441859 1.84478e-21)
(0.113943 -0.0476822 -1.25775e-21)
(0.124912 -0.0508288 -1.16476e-20)
(0.135818 -0.0536591 1.02221e-20)
(0.146686 -0.0562066 1.24463e-20)
(0.157531 -0.058503 -5.67049e-21)
(0.168363 -0.060577 -8.43153e-21)
(0.179188 -0.0624539 -1.68561e-20)
(0.190011 -0.0641553 6.97537e-21)
(0.200832 -0.065699 1.19495e-21)
(0.21165 -0.0670994 2.05904e-21)
(0.222463 -0.0683676 -2.53622e-21)
(0.233267 -0.0695116 -3.42942e-22)
(0.244059 -0.0705362 1.13264e-20)
(0.254832 -0.0714434 -5.92417e-21)
(0.265579 -0.0722319 3.73917e-21)
(0.276293 -0.0728975 4.9357e-21)
(0.286961 -0.0734325 -4.46735e-21)
(0.297572 -0.073826 4.4754e-21)
(0.30811 -0.0740633 -4.05638e-21)
(0.318556 -0.0741258 2.91543e-21)
(0.328888 -0.0739908 9.19024e-22)
(0.33908 -0.0736311 -3.80583e-21)
(0.349099 -0.0730151 -2.21106e-23)
(0.358907 -0.0721062 5.62749e-21)
(0.36846 -0.0708627 3.82301e-21)
(0.377708 -0.0692379 -4.68158e-21)
(0.386587 -0.067183 6.24301e-21)
(0.395019 -0.0646478 -1.87812e-21)
(0.402967 -0.0615494 1.84459e-21)
(0.410477 -0.0577286 -4.35826e-21)
(0.417072 -0.0533 2.84235e-21)
(0.00542482 -0.00237471 -1.61154e-21)
(0.0203987 -0.00871507 1.59745e-21)
(0.0348506 -0.0149009 -1.40553e-20)
(0.0488188 -0.0208379 1.26863e-20)
(0.0623335 -0.0264823 -7.41307e-21)
(0.0754377 -0.0317981 1.82564e-21)
(0.0881854 -0.0367558 2.16402e-20)
(0.100634 -0.0413401 3.86719e-22)
(0.112839 -0.0455491 3.86028e-22)
(0.124852 -0.0493926 3.50649e-21)
(0.136718 -0.0528886 1.04548e-20)
(0.148474 -0.0560606 -2.93323e-21)
(0.160151 -0.0589348 -2.0486e-20)
(0.17177 -0.0615381 1.09387e-20)
(0.183351 -0.0638967 -2.21424e-21)
(0.194903 -0.0660345 -6.79811e-21)
(0.206437 -0.0679732 -1.3391e-21)
(0.217957 -0.0697315 1.40167e-20)
(0.229465 -0.071325 -1.71004e-20)
(0.240962 -0.0727664 1.11598e-20)
(0.252447 -0.0740651 3.41328e-21)
(0.263916 -0.0752276 -8.3755e-21)
(0.275366 -0.076257 6.023e-21)
(0.286789 -0.0771533 -3.37988e-21)
(0.298179 -0.0779131 4.8951e-23)
(0.309524 -0.0785291 2.62879e-21)
(0.320812 -0.0789904 -1.79449e-20)
(0.332027 -0.0792816 5.86216e-21)
(0.34315 -0.079383 -2.14117e-21)
(0.354157 -0.0792697 4.15521e-21)
(0.365019 -0.0789116 -5.10045e-21)
(0.375702 -0.0782731 -5.62616e-21)
(0.386164 -0.0773125 5.4061e-21)
(0.396355 -0.0759817 1.26562e-21)
(0.406217 -0.0742265 -9.47973e-22)
(0.415676 -0.0719896 -1.35514e-22)
(0.424643 -0.0692128 2.98032e-21)
(0.433071 -0.0657945 9.27255e-22)
(0.44102 -0.0615301 -7.08035e-21)
(0.447945 -0.056575 3.10227e-22)
(0.00594787 -0.00235897 -4.14146e-21)
(0.0222463 -0.00861155 -1.44323e-20)
(0.0379923 -0.0147495 9.96496e-21)
(0.0532287 -0.0206819 3.33488e-21)
(0.0679847 -0.0263716 -5.86504e-21)
(0.0822988 -0.0317859 -7.61404e-21)
(0.0962191 -0.0368931 -5.14722e-21)
(0.109797 -0.0416712 3.15276e-21)
(0.123086 -0.0461092 -9.99019e-22)
(0.136134 -0.0502061 1.07318e-21)
(0.148989 -0.0539693 -3.48218e-21)
(0.16169 -0.0574126 -6.85886e-21)
(0.174272 -0.0605545 2.15394e-20)
(0.186762 -0.0634157 -5.8985e-21)
(0.199183 -0.0660179 -5.29543e-21)
(0.211552 -0.0683824 -1.09988e-20)
(0.223881 -0.0705295 1.15722e-20)
(0.236179 -0.0724773 2.60107e-21)
(0.248452 -0.0742417 -1.35361e-21)
(0.260704 -0.0758361 -7.87535e-21)
(0.272934 -0.0772712 -1.68936e-22)
(0.285142 -0.0785546 5.55291e-21)
(0.297325 -0.0796908 -9.15747e-23)
(0.309478 -0.0806812 1.01544e-21)
(0.321593 -0.0815232 -4.09409e-21)
(0.333661 -0.0822107 9.22612e-21)
(0.34567 -0.082733 -1.52888e-20)
(0.357603 -0.0830749 1.5984e-20)
(0.369442 -0.0832157 -1.75316e-20)
(0.381161 -0.0831292 2.01969e-20)
(0.392731 -0.0827829 -6.32907e-21)
(0.404114 -0.0821375 2.49628e-21)
(0.415265 -0.0811463 -2.93192e-21)
(0.426128 -0.0797549 3.33435e-21)
(0.436638 -0.0779009 1.38985e-21)
(0.446712 -0.0755184 -2.32862e-21)
(0.456243 -0.0725406 -5.62985e-21)
(0.465176 -0.0688459 3.11553e-21)
(0.473581 -0.0641764 4.54437e-21)
(0.480848 -0.0587315 -9.49123e-22)
(0.00648164 -0.00231352 4.84773e-21)
(0.0241151 -0.00839974 3.36277e-21)
(0.0411586 -0.0144145 1.44124e-20)
(0.0576649 -0.0202627 -1.26115e-20)
(0.073667 -0.0259118 2.4308e-21)
(0.0892034 -0.0313326 -4.22039e-21)
(0.104319 -0.036493 1.23212e-21)
(0.119063 -0.0413675 5.04518e-21)
(0.133482 -0.0459388 -2.79206e-21)
(0.147626 -0.0501984 5.61062e-22)
(0.161537 -0.0541452 5.88574e-21)
(0.175258 -0.0577846 -6.6056e-21)
(0.188824 -0.0611275 4.36581e-21)
(0.202264 -0.0641882 9.34458e-21)
(0.215606 -0.0669833 -1.14306e-20)
(0.228868 -0.0695304 5.87379e-21)
(0.242067 -0.0718471 8.2086e-21)
(0.255216 -0.07395 -1.28306e-20)
(0.268321 -0.0758545 -7.05309e-21)
(0.281389 -0.0775741 2.07552e-20)
(0.294423 -0.0791198 -2.02185e-20)
(0.307423 -0.0805004 6.56164e-21)
(0.320388 -0.0817217 8.08852e-21)
(0.333314 -0.0827863 -5.31421e-22)
(0.346194 -0.0836931 4.18605e-21)
(0.35902 -0.0844373 -8.7099e-22)
(0.37178 -0.0850092 -7.4711e-21)
(0.38446 -0.0853942 -3.34952e-21)
(0.39704 -0.085572 1.46163e-20)
(0.409495 -0.0855155 -4.60862e-21)
(0.421795 -0.0851903 -4.47523e-21)
(0.4339 -0.0845543 -3.19028e-21)
(0.445762 -0.0835563 4.09416e-21)
(0.457321 -0.0821354 -7.48098e-21)
(0.468505 -0.0802208 6.67152e-21)
(0.479217 -0.0777372 -4.85569e-22)
(0.489338 -0.0746091 -2.43483e-21)
(0.498795 -0.0706925 -7.2707e-21)
(0.507668 -0.0656689 8.01928e-22)
(0.515288 -0.0597813 1.22166e-21)
(0.00701731 -0.00223431 4.71437e-21)
(0.0259764 -0.00807166 -3.13678e-21)
(0.044305 -0.0138895 -1.68351e-22)
(0.0620694 -0.01958 -3.12757e-21)
(0.0793094 -0.0251131 1.26787e-20)
(0.0960661 -0.0304614 -1.95512e-21)
(0.112385 -0.0355925 1.08369e-20)
(0.128311 -0.0404784 2.72587e-22)
(0.14389 -0.0450978 -1.37968e-20)
(0.159167 -0.0494365 1.70303e-20)
(0.174183 -0.0534868 -4.00859e-21)
(0.188979 -0.0572473 -9.11581e-21)
(0.203589 -0.0607222 -1.51117e-20)
(0.218044 -0.0639197 7.052e-21)
(0.232372 -0.0668511 3.00211e-21)
(0.246593 -0.0695298 -2.29432e-21)
(0.260726 -0.0719702 3.86368e-21)
(0.274785 -0.0741868 9.67467e-23)
(0.28878 -0.0761936 1.76201e-20)
(0.302718 -0.0780034 -1.88307e-20)
(0.316605 -0.0796276 8.10968e-22)
(0.330441 -0.0810755 -1.93448e-21)
(0.344227 -0.0823539 -3.83324e-21)
(0.35796 -0.0834668 3.00165e-22)
(0.371634 -0.0844151 2.72927e-21)
(0.385243 -0.0851954 6.64389e-22)
(0.398775 -0.0858 6.20313e-22)
(0.412216 -0.0862158 -8.2209e-21)
(0.425549 -0.0864234 8.40895e-21)
(0.438749 -0.0863963 -7.7053e-21)
(0.451786 -0.0860996 -1.17082e-21)
(0.464621 -0.085489 9.19386e-21)
(0.477203 -0.0845097 -1.13158e-21)
(0.489468 -0.0830947 -4.34368e-21)
(0.501338 -0.0811646 6.24474e-21)
(0.512707 -0.078634 -2.0134e-21)
(0.523435 -0.0754174 -2.72286e-21)
(0.533436 -0.0713468 3.23921e-21)
(0.542789 -0.0660344 -2.91891e-21)
(0.550777 -0.0597617 1.09176e-20)
(0.00754337 -0.00211775 3.30899e-22)
(0.027793 -0.00762085 -1.40579e-21)
(0.0473741 -0.0131693 8.53536e-21)
(0.0663685 -0.0186338 -4.69729e-21)
(0.0848244 -0.0239834 5.08354e-22)
(0.102787 -0.0291909 -6.41648e-21)
(0.120302 -0.0342219 -8.62174e-21)
(0.137414 -0.039046 -4.11037e-21)
(0.154166 -0.0436388 7.43721e-21)
(0.170599 -0.0479815 5.38064e-21)
(0.186751 -0.0520615 -3.79272e-21)
(0.20266 -0.0558719 6.44339e-22)
(0.218359 -0.0594111 -4.65669e-21)
(0.233877 -0.0626819 -1.34812e-21)
(0.24924 -0.0656908 -5.91168e-21)
(0.264472 -0.0684468 1.77713e-20)
(0.27959 -0.0709609 -1.15089e-20)
(0.29461 -0.073245 3.33773e-21)
(0.309541 -0.0753113 -7.1426e-21)
(0.324394 -0.0771715 3.78728e-21)
(0.339173 -0.0788367 1.43259e-20)
(0.353881 -0.0803165 -5.69732e-21)
(0.368518 -0.0816187 9.98866e-21)
(0.383083 -0.0827487 -4.24872e-21)
(0.397572 -0.0837092 -6.68786e-22)
(0.411976 -0.0844991 3.56793e-21)
(0.426288 -0.0851131 -7.63873e-21)
(0.440495 -0.0855407 1.10946e-20)
(0.454579 -0.085765 -1.59915e-20)
(0.468519 -0.0857614 1.05017e-20)
(0.482287 -0.0854959 -3.19207e-21)
(0.495842 -0.0849239 6.88812e-21)
(0.509137 -0.0839885 -1.08924e-20)
(0.522106 -0.0826176 7.71548e-21)
(0.534664 -0.0807234 4.15783e-21)
(0.546699 -0.0782098 6.38351e-21)
(0.558053 -0.07498 -5.40215e-21)
(0.568618 -0.0708392 2.3773e-21)
(0.57847 -0.0653206 4.34823e-21)
(0.58685 -0.0587337 -8.56296e-21)
(0.00804531 -0.001961 -3.95617e-21)
(0.0295188 -0.00704376 1.02999e-20)
(0.0502958 -0.012253 -3.22348e-21)
(0.0704738 -0.0174284 -2.81605e-21)
(0.090109 -0.0225346 -2.10643e-21)
(0.109251 -0.0275417 7.73543e-22)
(0.127945 -0.0324118 7.75503e-22)
(0.146236 -0.0371112 2.71022e-21)
(0.164161 -0.0416123 5.23028e-21)
(0.18176 -0.0458929 -7.96754e-21)
(0.199065 -0.0499361 1.07634e-20)
(0.216111 -0.0537306 -8.50206e-21)
(0.232928 -0.0572701 1.1375e-20)
(0.249543 -0.0605529 -6.61531e-21)
(0.26598 -0.063581 6.39343e-22)
(0.28226 -0.0663594 7.93062e-21)
(0.298402 -0.0688958 1.08962e-21)
(0.31442 -0.0711991 2.61485e-21)
(0.330325 -0.0732795 -2.62448e-21)
(0.346126 -0.0751474 -1.12188e-20)
(0.361828 -0.076813 6.04036e-21)
(0.377434 -0.0782859 -4.01599e-21)
(0.392945 -0.0795746 1.05759e-20)
(0.408359 -0.0806858 -6.6285e-21)
(0.423673 -0.0816241 -5.42787e-22)
(0.438879 -0.082391 -4.00485e-22)
(0.45397 -0.0829844 6.72875e-22)
(0.468935 -0.0833974 1.00101e-20)
(0.483758 -0.0836168 -8.32758e-21)
(0.49842 -0.0836219 -8.31505e-21)
(0.512896 -0.0833821 5.2389e-21)
(0.527149 -0.0828551 -3.62221e-21)
(0.541134 -0.0819842 2.15887e-21)
(0.554787 -0.0806946 3.65631e-21)
(0.568024 -0.0788914 -6.69347e-21)
(0.580725 -0.0764679 1.69307e-22)
(0.592719 -0.0733146 5.53517e-21)
(0.603876 -0.0692063 -3.38338e-21)
(0.61426 -0.0635856 4.11271e-21)
(0.623074 -0.0567717 9.81127e-22)
(0.00850508 -0.00176229 2.16192e-21)
(0.0310982 -0.00634151 -3.79077e-21)
(0.0529869 -0.0111472 5.3555e-21)
(0.074282 -0.0159767 1.09846e-21)
(0.095046 -0.0207871 1.47722e-21)
(0.11533 -0.0255423 -7.76857e-21)
(0.135178 -0.0301988 9.58188e-21)
(0.15463 -0.0347191 -5.27244e-21)
(0.173722 -0.0390721 1.42372e-21)
(0.192485 -0.0432322 -1.96436e-22)
(0.21095 -0.0471792 -6.87836e-21)
(0.229146 -0.0508982 -6.25246e-21)
(0.247097 -0.054379 1.92907e-21)
(0.26483 -0.0576162 -1.1837e-20)
(0.282364 -0.0606078 6.78623e-23)
(0.29972 -0.0633556 7.53207e-21)
(0.316913 -0.0658636 -1.61942e-21)
(0.333956 -0.0681383 -3.37411e-21)
(0.35086 -0.0701873 -2.17746e-21)
(0.367633 -0.0720195 6.71262e-21)
(0.38428 -0.0736439 -3.32301e-21)
(0.400802 -0.0750698 -1.62208e-20)
(0.417201 -0.0763059 1.31281e-20)
(0.433475 -0.0773598 6.2179e-22)
(0.449618 -0.0782379 -1.20602e-20)
(0.465626 -0.0789444 5.16713e-21)
(0.481489 -0.0794807 6.89716e-21)
(0.497198 -0.0798442 2.07691e-21)
(0.512739 -0.080027 -3.29562e-21)
(0.528096 -0.0800143 2.5521e-21)
(0.543246 -0.0797816 3.70476e-21)
(0.55816 -0.0792925 -1.16761e-20)
(0.572796 -0.0784945 9.63488e-21)
(0.587098 -0.0773147 2.41582e-21)
(0.600988 -0.0756546 8.22075e-23)
(0.614345 -0.0733987 -9.66058e-21)
(0.626991 -0.0704247 -1.42714e-21)
(0.638774 -0.0664734 1.90747e-22)
(0.649741 -0.0608809 4.81991e-21)
(0.659061 -0.0539491 3.07787e-21)
(0.00889924 -0.00152059 -3.18697e-21)
(0.0324631 -0.005521 2.28644e-21)
(0.0553487 -0.00986658 7.82768e-22)
(0.0776742 -0.0143011 8.53768e-21)
(0.0995037 -0.0187708 7.97477e-22)
(0.120884 -0.0232294 -7.93043e-21)
(0.141853 -0.0276261 -1.1219e-21)
(0.162445 -0.0319192 -2.83287e-22)
(0.182688 -0.0360741 8.51029e-21)
(0.202609 -0.040062 -9.75977e-21)
(0.222231 -0.0438596 -5.70875e-22)
(0.241579 -0.0474492 4.83614e-21)
(0.260672 -0.0508177 -4.8228e-21)
(0.279531 -0.0539562 1.1796e-20)
(0.298175 -0.05686 -9.7347e-21)
(0.31662 -0.0595273 -8.74592e-21)
(0.334878 -0.0619595 -4.5897e-21)
(0.352963 -0.0641602 1.7043e-20)
(0.370881 -0.0661347 -3.81628e-21)
(0.388641 -0.0678899 -7.55915e-22)
(0.406245 -0.0694335 3.17225e-22)
(0.423695 -0.0707737 5.54936e-21)
(0.44099 -0.0719189 -4.51628e-21)
(0.458128 -0.0728773 -1.62273e-20)
(0.475102 -0.0736564 4.87687e-21)
(0.491907 -0.0742627 1.20843e-21)
(0.508534 -0.0747008 -3.83046e-21)
(0.524971 -0.0749727 8.23147e-21)
(0.541207 -0.0750766 -1.02371e-20)
(0.557228 -0.0750051 6.26096e-22)
(0.573013 -0.0747428 -5.88606e-22)
(0.588541 -0.0742631 -1.92718e-21)
(0.603778 -0.0735238 9.89797e-21)
(0.618679 -0.0724602 -8.24291e-21)
(0.633177 -0.0709781 1.14836e-21)
(0.647163 -0.0689597 -1.56165e-21)
(0.660463 -0.0662736 4.63083e-21)
(0.672912 -0.062624 -1.30094e-20)
(0.684539 -0.057223 1.15663e-20)
(0.694482 -0.0503139 -3.19981e-21)
(0.00919415 -0.0012341 4.75713e-21)
(0.0335311 -0.00460048 -5.85728e-21)
(0.0572697 -0.00844153 -1.53396e-21)
(0.0805204 -0.0124392 2.68783e-21)
(0.103343 -0.0165309 -2.18007e-21)
(0.12577 -0.0206531 -3.11809e-21)
(0.147824 -0.0247473 5.31446e-21)
(0.169529 -0.0287693 1.64987e-21)
(0.190905 -0.0326806 4.79355e-21)
(0.211969 -0.036449 6.04807e-21)
(0.232739 -0.040049 -8.48663e-21)
(0.253231 -0.0434605 8.14367e-21)
(0.273463 -0.046668 -1.73777e-21)
(0.293449 -0.0496601 4.90864e-21)
(0.313203 -0.0524293 1.76537e-21)
(0.332739 -0.0549713 1.09643e-20)
(0.352067 -0.0572847 -4.43964e-21)
(0.371197 -0.0593705 -6.2629e-21)
(0.390135 -0.0612317 -1.23808e-20)
(0.408886 -0.0628731 2.57322e-20)
(0.427452 -0.0643005 -7.88373e-21)
(0.445833 -0.0655208 1.02002e-20)
(0.464027 -0.0665414 -7.7752e-21)
(0.482029 -0.0673701 6.31229e-21)
(0.499833 -0.0680148 -1.10267e-21)
(0.517431 -0.0684829 8.06072e-21)
(0.534813 -0.0687815 -5.01186e-21)
(0.551967 -0.0689164 4.95675e-21)
(0.56888 -0.0688912 5.11568e-21)
(0.585538 -0.0687063 -8.81534e-21)
(0.601925 -0.0683569 -2.67787e-21)
(0.618023 -0.0678297 1.01423e-20)
(0.633807 -0.0670986 1.21402e-21)
(0.649246 -0.0661167 -3.78559e-21)
(0.664291 -0.064806 3.07225e-21)
(0.67886 -0.0630605 -1.00273e-20)
(0.692796 -0.0607528 9.801e-21)
(0.705948 -0.0575598 1.08118e-21)
(0.718337 -0.052553 -7.91038e-22)
(0.729077 -0.0458447 3.8269e-21)
(0.00934253 -0.000913952 -1.78907e-21)
(0.0342101 -0.00364294 3.20026e-21)
(0.0586489 -0.00695096 1.4878e-22)
(0.0827168 -0.0104795 -1.92842e-21)
(0.106463 -0.0141693 -1.92384e-21)
(0.129891 -0.0179224 6.94896e-21)
(0.152994 -0.0216729 -2.14549e-21)
(0.175783 -0.0253809 -4.46035e-21)
(0.198267 -0.0290044 -1.01292e-22)
(0.220453 -0.0325078 1.35013e-22)
(0.242352 -0.0358641 2.59309e-21)
(0.263973 -0.0390517 3.6809e-23)
(0.285328 -0.0420529 -1.1392e-20)
(0.306427 -0.0448544 1.86927e-21)
(0.32728 -0.0474463 -9.60736e-22)
(0.347898 -0.0498221 9.97296e-22)
(0.368287 -0.0519779 4.23146e-21)
(0.388454 -0.0539124 4.73007e-21)
(0.408405 -0.0556264 -6.51444e-21)
(0.428141 -0.0571223 3.68516e-21)
(0.447663 -0.0584039 -3.92062e-21)
(0.46697 -0.0594763 4.96126e-21)
(0.486057 -0.0603453 -6.80755e-21)
(0.50492 -0.0610173 1.32832e-20)
(0.523549 -0.0614993 -1.50467e-20)
(0.541936 -0.0617986 -4.20045e-21)
(0.560069 -0.0619225 -1.2212e-21)
(0.577933 -0.0618785 8.21269e-21)
(0.595516 -0.0616736 -7.7626e-21)
(0.612801 -0.0613139 6.37983e-21)
(0.629773 -0.0608034 -7.02591e-21)
(0.646414 -0.0601425 1.49801e-21)
(0.662707 -0.0593243 -7.70035e-22)
(0.678632 -0.0583273 1.66231e-21)
(0.694163 -0.0571046 3.98057e-21)
(0.709249 -0.055584 -1.94549e-21)
(0.723781 -0.0536766 -2.6047e-21)
(0.737653 -0.0510714 6.28503e-21)
(0.750931 -0.0466893 2.18378e-21)
(0.76274 -0.0403935 -5.42611e-21)
(0.00924246 -0.000560111 -4.7065e-21)
(0.034285 -0.00267825 -5.21459e-21)
(0.0592488 -0.00539242 2.07502e-21)
(0.084062 -0.00842707 -2.82113e-21)
(0.108674 -0.0116932 -1.19714e-21)
(0.13307 -0.0150415 2.59995e-21)
(0.157187 -0.0183942 7.65976e-23)
(0.181028 -0.0217417 3.98376e-22)
(0.204589 -0.0250329 -1.46176e-22)
(0.227868 -0.0282273 -1.98083e-21)
(0.250868 -0.0312974 2.89287e-21)
(0.273592 -0.0342198 7.21657e-21)
(0.296045 -0.0369751 2.42345e-21)
(0.318234 -0.0395481 -8.40066e-21)
(0.340164 -0.0419269 -1.29719e-21)
(0.361842 -0.0441029 5.79177e-21)
(0.383273 -0.0460701 -5.34542e-21)
(0.40446 -0.047825 1.12939e-20)
(0.425405 -0.0493662 -6.7691e-21)
(0.44611 -0.0506939 -4.86534e-21)
(0.466573 -0.0518098 8.48051e-22)
(0.486792 -0.0527169 8.44936e-21)
(0.506761 -0.0534189 -3.74126e-21)
(0.526474 -0.0539203 -6.65771e-21)
(0.545921 -0.0542262 2.74349e-21)
(0.565092 -0.0543419 -3.3429e-21)
(0.583975 -0.0542733 7.95065e-22)
(0.602554 -0.0540266 -5.37234e-21)
(0.620814 -0.0536083 6.65225e-21)
(0.638738 -0.0530253 1.89617e-21)
(0.656308 -0.0522851 -7.85478e-21)
(0.673506 -0.0513953 4.28967e-21)
(0.690315 -0.050363 -4.92252e-21)
(0.706721 -0.0491903 1.47079e-21)
(0.722712 -0.0478662 -1.12516e-21)
(0.738267 -0.0463756 -8.66566e-22)
(0.753332 -0.0447208 1.65798e-21)
(0.767879 -0.0426688 3.78329e-21)
(0.782103 -0.0390013 -1.07085e-20)
(0.79529 -0.0333127 -2.41894e-21)
(0.00871593 -7.24198e-06 1.37432e-21)
(0.0334413 -0.00149105 -6.22866e-22)
(0.0586803 -0.00356753 -7.48442e-21)
(0.0841052 -0.00602117 -2.4265e-21)
(0.109502 -0.00876141 -1.77614e-21)
(0.13478 -0.011608 -6.43997e-21)
(0.159874 -0.014496 2.0464e-21)
(0.184735 -0.0174502 -1.97089e-21)
(0.209344 -0.0203804 2.22987e-21)
(0.233688 -0.0232409 1.11006e-21)
(0.257762 -0.0260025 4.27337e-21)
(0.281563 -0.0286395 -7.11969e-21)
(0.305091 -0.0311305 -4.14722e-21)
(0.328347 -0.0334582 1.70397e-21)
(0.351333 -0.0356089 -2.42431e-21)
(0.374052 -0.0375721 2.61161e-22)
(0.396505 -0.0393399 3.82681e-21)
(0.418693 -0.0409068 -5.8154e-21)
(0.440617 -0.0422694 -1.4942e-22)
(0.462275 -0.0434261 -2.80573e-21)
(0.483665 -0.0443766 4.73723e-21)
(0.504782 -0.0451218 -9.02855e-21)
(0.525621 -0.0456635 -3.9649e-21)
(0.546174 -0.046004 -1.17419e-21)
(0.566432 -0.046146 8.48136e-21)
(0.586385 -0.0460924 -6.19265e-21)
(0.606021 -0.0458463 3.69344e-21)
(0.625325 -0.0454103 1.34377e-21)
(0.644284 -0.0447873 -3.04412e-21)
(0.662881 -0.0439796 6.59896e-21)
(0.6811 -0.04299 -5.48259e-21)
(0.698923 -0.0418217 2.93356e-21)
(0.716335 -0.0404791 -2.24549e-21)
(0.733322 -0.0389654 2.14868e-21)
(0.749877 -0.0372826 1.31518e-20)
(0.765991 -0.0354548 -1.23133e-20)
(0.781638 -0.0335552 -9.8634e-21)
(0.796836 -0.0314126 1.04899e-20)
(0.8119 -0.0278377 5.54081e-21)
(0.826659 -0.0226479 -8.66854e-21)
(0.00951519 -0.000296364 3.2649e-22)
(0.0341762 -0.00188566 -1.52333e-21)
(0.0597019 -0.00355206 1.83428e-21)
(0.0856276 -0.00548648 -4.44732e-22)
(0.111686 -0.00766734 2.04547e-21)
(0.137715 -0.00998942 4.34788e-21)
(0.163654 -0.0124243 -1.67004e-21)
(0.18942 -0.0149171 -3.01664e-21)
(0.214969 -0.017411 2.40363e-21)
(0.240279 -0.0198669 -9.24993e-21)
(0.265332 -0.0222517 3.69264e-21)
(0.29012 -0.024537 -5.79219e-21)
(0.314635 -0.0266991 7.30774e-21)
(0.338874 -0.0287192 -7.80479e-22)
(0.362834 -0.0305818 -6.27852e-21)
(0.386514 -0.0322746 1.26581e-22)
(0.409913 -0.0337881 1.62757e-21)
(0.433027 -0.0351153 5.86416e-21)
(0.455855 -0.0362511 -2.40707e-21)
(0.478393 -0.0371923 -7.66378e-21)
(0.500637 -0.0379369 7.91476e-21)
(0.522582 -0.0384842 -1.02862e-20)
(0.544221 -0.0388343 -3.03139e-21)
(0.565546 -0.0389877 -6.42216e-21)
(0.586549 -0.0389453 1.59237e-20)
(0.607221 -0.0387079 -7.69118e-21)
(0.627551 -0.038276 8.65611e-21)
(0.647528 -0.0376491 3.13424e-22)
(0.667142 -0.0368259 -1.70778e-21)
(0.686383 -0.0358034 -6.65057e-22)
(0.705242 -0.0345766 3.51186e-21)
(0.723716 -0.0331377 7.69348e-21)
(0.741804 -0.031475 -1.17426e-20)
(0.75952 -0.0295703 6.25997e-21)
(0.776897 -0.0273991 -2.02481e-21)
(0.794002 -0.0249437 -6.69993e-21)
(0.810967 -0.0221883 6.4329e-21)
(0.8281 -0.0189826 -2.84273e-22)
(0.846254 -0.0149952 1.51408e-21)
(0.867322 -0.0109255 -1.56925e-21)
(0.0109215 -0.00103188 -4.55154e-22)
(0.0368087 -0.00313996 7.84765e-21)
(0.0630509 -0.00491048 8.22545e-21)
(0.0895743 -0.00665216 -2.28586e-21)
(0.116248 -0.00847321 2.69355e-21)
(0.142957 -0.0103767 1.37028e-21)
(0.169619 -0.0123507 1.38934e-21)
(0.19616 -0.0143663 2.67064e-21)
(0.222531 -0.0163919 -8.13416e-22)