/*--------------------------------*- C++ -*----------------------------------*\
  =========                 |
  \\      /  F ield         | OpenFOAM: The Open Source CFD Toolbox
   \\    /   O peration     | Website:  https://openfoam.org
    \\  /    A nd           | Version:  7
     \\/     M anipulation  |
\*---------------------------------------------------------------------------*/
FoamFile
{
    version     2.0;
    format      ascii;
    class       volScalarField;
    location    "4.1";
    object      rho;
}
// * * * * * * * * * * * * * * * * * * * * * * * * * * * * * * * * * * * * * //

dimensions      [1 -3 0 0 0 0 0];

internalField   nonuniform List<scalar> 
3700
(
0.151649
0.285858
0.325099
0.384778
0.450466
0.483927
0.503951
0.549931
0.598962
0.601685
0.601935
0.628726
0.653195
0.66496
0.690381
0.696997
0.683084
0.707535
0.727822
0.729993
0.115952
0.131349
0.157277
0.187527
0.215244
0.213965
0.197161
0.202318
0.201356
0.182459
0.150847
0.151442
0.174829
0.223189
0.26597
0.278824
0.281298
0.288312
0.306118
0.306687
0.124055
0.117681
0.119829
0.111206
0.0971135
0.0876879
0.0759658
0.0752516
0.0774595
0.0802764
0.081671
0.0888405
0.101172
0.118838
0.136761
0.152895
0.166333
0.173057
0.178467
0.179562
0.143523
0.116677
0.102765
0.0919938
0.088825
0.0915236
0.0918085
0.101443
0.115746
0.127306
0.117372
0.120112
0.123975
0.137229
0.155533
0.176909
0.201277
0.224847
0.248186
0.263597
0.161113
0.109091
0.0862387
0.0783316
0.0810925
0.0881105
0.0951333
0.117176
0.144068
0.162621
0.175163
0.186152
0.178742
0.178059
0.178777
0.189294
0.214643
0.251338
0.288638
0.338077
0.168717
0.10213
0.070797
0.0670561
0.0692308
0.0777644
0.0910593
0.117126
0.147648
0.177808
0.211032
0.230302
0.250557
0.266689
0.267729
0.266024
0.272538
0.290486
0.329494
0.416379
0.16217
0.0923208
0.064031
0.063327
0.0669454
0.0754768
0.0888441
0.114003
0.142174
0.177014
0.225454
0.25692
0.299108
0.334449
0.364685
0.388902
0.407797
0.426039
0.447473
0.532091
0.145771
0.0844214
0.0635358
0.06702
0.0745724
0.0847302
0.107946
0.137399
0.154621
0.179209
0.223233
0.269346
0.333018
0.387773
0.441379
0.501023
0.552328
0.606943
0.638127
0.750409
0.118275
0.0760102
0.0656023
0.0748782
0.0893843
0.11639
0.16465
0.201675
0.227241
0.258258
0.279199
0.316459
0.375547
0.445392
0.516721
0.60109
0.695591
0.795608
0.86762
1.03428
0.0918277
0.0600928
0.0602831
0.0700154
0.0922841
0.128078
0.196716
0.252889
0.313448
0.381846
0.43703
0.498194
0.555916
0.6226
0.678728
0.755784
0.871378
1.01327
1.16419
1.35526
0.0703764
0.0448828
0.042691
0.0594801
0.0855177
0.126148
0.197619
0.259191
0.352715
0.471871
0.57682
0.679854
0.790648
0.892099
0.978456
1.07529
1.18651
1.31822
1.60587
1.598
0.0512387
0.0325672
0.031255
0.0556266
0.083962
0.124391
0.186454
0.243869
0.36064
0.536155
0.705924
0.866873
1.04161
1.18407
1.34509
1.51188
1.67716
1.83622
2.13485
2.0845
0.037055
0.0245463
0.0248551
0.0520138
0.0860142
0.184914
0.285871
0.410644
0.604036
0.803219
1.01365
1.20497
1.40513
1.58622
1.81653
2.07842
2.33666
2.57185
2.91015
2.88223
0.0271073
0.019965
0.0212284
0.0557343
0.148275
0.381847
0.580085
0.830168
1.1329
1.42121
1.65761
1.87208
2.09089
2.30716
2.58527
2.9084
3.2492
3.60144
3.89348
4.16203
0.017529
0.0176526
0.0233291
0.122941
0.338209
0.620801
0.908955
1.26683
1.68519
2.10984
2.43128
2.73734
3.04097
3.36928
3.77855
4.174
4.5595
4.89743
5.08519
5.24286
0.00937394
0.022572
0.0801174
0.282542
0.61106
0.956021
1.41726
1.96926
2.60203
3.14457
3.55327
3.94237
4.32965
4.75695
5.20651
5.5057
5.69099
5.74617
5.61613
5.43899
0.00859551
0.0610931
0.240671
0.550737
1.1584
1.94965
2.74608
3.5548
4.40238
4.95826
5.27458
5.58274
5.86111
6.09117
6.22188
6.11624
5.81183
5.06802
3.87915
2.63434
0.0512177
0.235097
0.72271
1.6338
2.84038
3.96868
4.92856
5.9109
6.65185
6.73746
6.62469
6.58813
6.52038
6.29061
5.59383
4.2703
2.91329
1.85621
1.42335
1.39008
0.429693
1.19926
2.68996
4.36966
5.84637
6.73694
7.50494
8.1381
7.95699
7.35155
6.75973
6.00665
4.72901
3.24586
1.99324
1.44077
1.38537
1.39305
1.39632
1.39924
3.21742
5.0338
6.76987
7.94385
8.67272
8.85456
9.07147
8.63184
6.31066
4.46022
3.2932
2.17654
1.51059
1.38239
1.39009
1.39486
1.39886
1.39997
1.40003
1.40002
9.63231
9.55587
9.505
9.62768
9.76408
9.32005
8.34459
3.24088
0.916472
1.40001
1.40001
1.40001
1.40001
1.40001
1.40001
1.40001
1.40001
1.40001
1.40001
1.40001
9.64933
9.53926
9.43792
9.40345
9.58852
7.95741
3.7462
1.44004
1.40001
1.40001
1.40001
1.40001
1.40001
1.40001
1.40001
1.40001
1.40001
1.40001
1.40001
1.40001
9.41998
9.5117
9.47363
9.28669
8.76872
4.75941
1.45535
1.39871
1.40001
1.40001
1.40001
1.40001
1.40001
1.40001
1.40001
1.40001
1.40001
1.40001
1.40001
1.40001
9.22122
9.42028
9.45909
9.23617
6.42766
1.96691
1.39129
1.40017
1.4
1.40001
1.40001
1.40001
1.40001
1.40001
1.40001
1.40001
1.40001
1.40001
1.40001
1.40001
9.05283
9.36155
9.40522
8.47523
3.6861
1.36694
1.40049
1.4
1.40001
1.40001
1.40001
1.40001
1.40001
1.40001
1.40001
1.40001
1.40001
1.40001
1.40001
1.40001
8.96246
9.3697
9.33169
6.81781
2.07519
1.40001
1.40001
1.40001
1.40001
1.40001
1.40001
1.40001
1.40001
1.40001
1.40001
1.40001
1.40001
1.40001
1.40001
1.40001
8.91352
9.42585
9.33475
4.94103
1.36621
1.40001
1.40001
1.40001
1.40001
1.40001
1.40001
1.40001
1.40001
1.40001
1.40001
1.40001
1.40001
1.40001
1.40001
1.40001
9.02913
9.2332
8.37516
2.79982
1.39897
1.40001
1.40001
1.40001
1.40001
1.40001
1.40001
1.40001
1.40001
1.40001
1.40001
1.40001
1.40001
1.40001
1.40001
1.40001
9.64041
9.13666
6.74258
1.73027
1.40001
1.40001
1.40001
1.40001
1.40001
1.40001
1.40001
1.40001
1.40001
1.40001
1.40001
1.40001
1.40001
1.40001
1.40001
1.40001
10.1269
8.93591
4.7493
1.38277
1.40001
1.40001
1.40001
1.40001
1.40001
1.40001
1.40001
1.40001
1.40001
1.40001
1.40001
1.40001
1.40001
1.40001
1.40001
1.40001
10.3454
8.28653
3.17344
1.40001
1.40001
1.40001
1.40001
1.40001
1.40001
1.40001
1.40001
1.40001
1.40001
1.40001
1.40001
1.40001
1.40001
1.40001
1.40001
1.40001
10.4143
7.44345
2.21555
1.40001
1.40001
1.40001
1.40001
1.40001
1.40001
1.40001
1.40001
1.40001
1.40001
1.40001
1.40001
1.40001
1.40001
1.40001
1.40001
1.40001
10.4395
6.58255
1.62926
1.40001
1.40001
1.40001
1.40001
1.40001
1.40001
1.40001
1.40001
1.40001
1.40001
1.40001
1.40001
1.40001
1.40001
1.40001
1.40001
1.40001
10.1306
5.62149
1.42843
1.40001
1.40001
1.40001
1.40001
1.40001
1.40001
1.40001
1.40001
1.40001
1.40001
1.40001
1.40001
1.40001
1.40001
1.40001
1.40001
1.40001
9.92947
4.56059
1.40001
1.40001
1.40001
1.40001
1.40001
1.40001
1.40001
1.40001
1.40001
1.40001
1.40001
1.40001
1.40001
1.40001
1.40001
1.40001
1.40001
1.40001
9.77626
3.46931
1.40001
1.40001
1.40001
1.40001
1.40001
1.40001
1.40001
1.40001
1.40001
1.40001
1.40001
1.40001
1.40001
1.40001
1.40001
1.40001
1.40001
1.40001
9.20647
2.58227
1.40001
1.40001
1.40001
1.40001
1.40001
1.40001
1.40001
1.40001
1.40001
1.40001
1.40001
1.40001
1.40001
1.40001
1.40001
1.40001
1.40001
1.40001
8.78751
1.89391
1.40001
1.40001
1.40001
1.40001
1.40001
1.40001
1.40001
1.40001
1.40001
1.40001
1.40001
1.40001
1.40001
1.40001
1.40001
1.40001
1.40001
1.40001
7.92785
1.4077
1.40001
1.40001
1.40001
1.40001
1.40001
1.40001
1.40001
1.40001
1.40001
1.40001
1.40001
1.40001
1.40001
1.40001
1.40001
1.40001
1.40001
1.40001
6.44735
1.40013
1.40001
1.40001
1.40001
1.40001
1.40001
1.40001
1.40001
1.40001
1.40001
1.40001
1.40001
1.40001
1.40001
1.40001
1.40001
1.40001
1.40001
1.40001
6.45008
1.40012
1.40001
1.40001
1.40001
1.40001
1.40001
1.40001
1.40001
1.40001
1.40001
1.40001
1.40001
1.40001
1.40001
1.40001
1.40001
1.40001
1.40001
1.40001
7.91342
1.40773
1.40001
1.40001
1.40001
1.40001
1.40001
1.40001
1.40001
1.40001
1.40001
1.40001
1.40001
1.40001
1.40001
1.40001
1.40001
1.40001
1.40001
1.40001
8.79695
1.89499
1.40001
1.40001
1.40001
1.40001
1.40001
1.40001
1.40001
1.40001
1.40001
1.40001
1.40001
1.40001
1.40001
1.40001
1.40001
1.40001
1.40001
1.40001
9.20342
2.58476
1.40001
1.40001
1.40001
1.40001
1.40001
1.40001
1.40001
1.40001
1.40001
1.40001
1.40001
1.40001
1.40001
1.40001
1.40001
1.40001
1.40001
1.40001
9.76963
3.46267
1.40001
1.40001
1.40001
1.40001
1.40001
1.40001
1.40001
1.40001
1.40001
1.40001
1.40001
1.40001
1.40001
1.40001
1.40001
1.40001
1.40001
1.40001
9.94646
4.54515
1.40001
1.40001
1.40001
1.40001
1.40001
1.40001
1.40001
1.40001
1.40001
1.40001
1.40001
1.40001
1.40001
1.40001
1.40001
1.40001
1.40001
1.40001
10.1318
5.62552
1.43097
1.40001
1.40001
1.40001
1.40001
1.40001
1.40001
1.40001
1.40001
1.40001
1.40001
1.40001
1.40001
1.40001
1.40001
1.40001
1.40001
1.40001
10.4335
6.59101
1.63505
1.40001
1.40001
1.40001
1.40001
1.40001
1.40001
1.40001
1.40001
1.40001
1.40001
1.40001
1.40001
1.40001
1.40001
1.40001
1.40001
1.40001
10.4085
7.45139
2.22204
1.40001
1.40001
1.40001
1.40001
1.40001
1.40001
1.40001
1.40001
1.40001
1.40001
1.40001
1.40001
1.40001
1.40001
1.40001
1.40001
1.40001
10.3375
8.27892
3.18305
1.40001
1.40001
1.40001
1.40001
1.40001
1.40001
1.40001
1.40001
1.40001
1.40001
1.40001
1.40001
1.40001
1.40001
1.40001
1.40001
1.40001
10.1292
8.93908
4.74174
1.38287
1.40001
1.40001
1.40001
1.40001
1.40001
1.40001
1.40001
1.40001
1.40001
1.40001
1.40001
1.40001
1.40001
1.40001
1.40001
1.40001
9.65009
9.14786
6.74211
1.72524
1.40001
1.40001
1.40001
1.40001
1.40001
1.40001
1.40001
1.40001
1.40001
1.40001
1.40001
1.40001
1.40001
1.40001
1.40001
1.40001
9.02097
9.21941
8.36056
2.80254
1.39923
1.40001
1.40001
1.40001
1.40001
1.40001
1.40001
1.40001
1.40001
1.40001
1.40001
1.40001
1.40001
1.40001
1.40001
1.40001
8.9161
9.42048
9.34008
4.93247
1.36462
1.40001
1.40001
1.40001
1.40001
1.40001
1.40001
1.40001
1.40001
1.40001
1.40001
1.40001
1.40001
1.40001
1.40001
1.40001
8.97016
9.38844
9.34697
6.82062
2.07599
1.40001
1.40001
1.40001
1.40001
1.40001
1.40001
1.40001
1.40001
1.40001
1.40001
1.40001
1.40001
1.40001
1.40001
1.40001
9.06183
9.36951
9.40974
8.4576
3.69417
1.36682
1.40049
1.4
1.40001
1.40001
1.40001
1.40001
1.40001
1.40001
1.40001
1.40001
1.40001
1.40001
1.40001
1.40001
9.22125
9.41752
9.45833
9.23259
6.43131
1.96555
1.39142
1.40017
1.4
1.40001
1.40001
1.40001
1.40001
1.40001
1.40001
1.40001
1.40001
1.40001
1.40001
1.40001
9.4188
9.51037
9.47422
9.29317
8.76423
4.74369
1.45276
1.39877
1.40001
1.40001
1.40001
1.40001
1.40001
1.40001
1.40001
1.40001
1.40001
1.40001
1.40001
1.40001
9.64689
9.54159
9.43925
9.40261
9.57986
7.95922
3.73984
1.43917
1.40001
1.40001
1.40001
1.40001
1.40001
1.40001
1.40001
1.40001
1.40001
1.40001
1.40001
1.40001
9.62883
9.5525
9.50549
9.63196
9.7701
9.32232
8.33864
3.23877
0.916506
1.40001
1.40001
1.40001
1.40001
1.40001
1.40001
1.40001
1.40001
1.40001
1.40001
1.40001
3.21496
5.03102
6.75061
7.92855
8.683
8.8607
9.07534
8.63443
6.31192
4.4611
3.29465
2.17761
1.5108
1.38233
1.39005
1.39485
1.39885
1.39997
1.40003
1.40002
0.432409
1.20986
2.72692
4.38538
5.83803
6.72914
7.50338
8.13928
7.95907
7.35517
6.76383
6.01254
4.7349
3.25023
1.99581
1.44155
1.38537
1.39304
1.39632
1.39924
0.0464677
0.233911
0.69364
1.61851
2.85552
3.97778
4.92959
5.91066
6.65302
6.73833
6.63041
6.59273
6.52312
6.28984
5.59365
4.27231
2.91539
1.85717
1.42351
1.39008
0.00693011
0.0446637
0.252315
0.55039
1.13382
1.94691
2.74923
3.5568
4.40316
4.96213
5.28252
5.58852
5.86287
6.08971
6.21893
6.11347
5.80941
5.06584
3.87759
2.63392
0.0108429
0.0228488
0.106643
0.29107
0.607471
0.934258
1.40178
1.95668
2.59419
3.1411
3.55341
3.941
4.32592
4.75283
5.20361
5.50018
5.6845
5.74363
5.61413
5.43852
0.0179224
0.0179395
0.0355082
0.140439
0.363555
0.616734
0.89645
1.25616
1.67217
2.09854
2.4228
2.73163
3.03687
3.3671
3.77798
4.17274
4.55591
4.89562
5.08546
5.24387
0.0224818
0.0200377
0.0249393
0.0629422
0.171754
0.398667
0.588337
0.834421
1.1346
1.42476
1.66115
1.87733
2.09705
2.31318
2.58966
2.90999
3.24705
3.59807
3.89238
4.16215
0.028969
0.0238419
0.0299692
0.0538638
0.0844733
0.1983
0.299312
0.42805
0.623517
0.819313
1.02483
1.21226
1.40911
1.58799
1.81511
2.07742
2.33643
2.57249
2.91052
2.88251
0.0401139
0.030093
0.036159
0.0572124
0.076787
0.12319
0.184157
0.240908
0.35657
0.531008
0.70346
0.865308
1.04101
1.18378
1.34638
1.51398
1.6799
1.83762
2.13369
2.08326
0.0587361
0.0395145
0.0426926
0.0613077
0.0786405
0.123341
0.192717
0.25337
0.347713
0.469234
0.576347
0.680331
0.79278
0.894191
0.982624
1.08
1.18824
1.31698
1.60288
1.59353
0.0877899
0.0549619
0.0498782
0.0683869
0.0845754
0.12635
0.195909
0.251188
0.313344
0.383599
0.440601
0.503062
0.562118
0.628754
0.682107
0.755787
0.86751
1.00827
1.16284
1.35396
0.120779
0.0732909
0.0575427
0.0720567
0.0822302
0.116344
0.167963
0.202184
0.2301
0.263036
0.284256
0.32008
0.374298
0.441685
0.5114
0.595043
0.691448
0.793665
0.86857
1.03839
0.140696
0.0828096
0.0583942
0.0653516
0.0699437
0.085173
0.111931
0.134285
0.153654
0.179025
0.220356
0.264767
0.32745
0.382472
0.436748
0.49793
0.551779
0.60977
0.640815
0.754608
0.148612
0.0876448
0.0590253
0.061762
0.0640347
0.07046
0.0858892
0.111324
0.140664
0.175377
0.222822
0.253627
0.296029
0.332159
0.363842
0.390836
0.411228
0.431346
0.450975
0.533867
0.156157
0.0962133
0.0640363
0.0634592
0.0651902
0.0708151
0.0869828
0.115843
0.147261
0.177017
0.209817
0.22913
0.250827
0.268586
0.272301
0.27046
0.276208
0.291848
0.32764
0.414324
0.158379
0.109792
0.077779
0.071576
0.0751487
0.0784685
0.0919113
0.118741
0.144592
0.162476
0.176247
0.188644
0.18288
0.182372
0.182028
0.18948
0.212474
0.24905
0.286764
0.337316
0.147553
0.124823
0.101992
0.0855912
0.0836064
0.0830011
0.0900687
0.105869
0.117932
0.129548
0.120608
0.123858
0.126429
0.137561
0.155216
0.176134
0.200215
0.224037
0.247641
0.263649
0.136146
0.128012
0.121872
0.107876
0.0899216
0.0822035
0.0776016
0.0782847
0.0797374
0.0833789
0.0845026
0.090328
0.101176
0.118196
0.136337
0.152993
0.167139
0.173872
0.178889
0.180142
0.124574
0.129573
0.155031
0.17945
0.173272
0.173253
0.188957
0.206968
0.223325
0.231782
0.24502
0.252795
0.238112
0.22003
0.224862
0.246393
0.282551
0.309891
0.302881
0.271967
0.172311
0.270441
0.325844
0.386489
0.422494
0.455356
0.50442
0.554929
0.619179
0.631625
0.652269
0.674363
0.672714
0.650455
0.670206
0.691842
0.693274
0.710708
0.71088
0.704357
0.784065
0.883637
0.964228
1.11927
1.17562
1.22241
1.20501
1.17819
1.18397
1.24164
1.32416
1.34504
1.33019
1.28326
1.27729
1.30812
1.34878
1.34541
1.32043
1.27636
0.412471
0.574307
0.742622
0.939365
1.0812
1.17578
1.20603
1.19361
1.20171
1.23979
1.29689
1.32479
1.32405
1.3029
1.28864
1.3037
1.33425
1.33829
1.32189
1.28374
0.190937
0.222602
0.324958
0.472769
0.714087
0.957653
1.09302
1.19499
1.23395
1.23701
1.26687
1.29617
1.31198
1.32195
1.32167
1.31958
1.31695
1.31541
1.30759
1.28441
0.265293
0.300918
0.325204
0.324744
0.344313
0.441397
0.723495
1.04834
1.15517
1.20824
1.24812
1.27181
1.29669
1.3315
1.34229
1.33727
1.32402
1.31097
1.30441
1.2873
0.339514
0.367194
0.387419
0.383159
0.389094
0.401431
0.433154
0.592559
0.901722
1.12507
1.17824
1.22715
1.28617
1.34285
1.35591
1.34997
1.32722
1.30796
1.3038
1.29209
0.440338
0.467468
0.461443
0.435
0.428484
0.435346
0.468095
0.481682
0.541704
0.734748
0.991652
1.13939
1.23298
1.32882
1.34902
1.348
1.33298
1.31145
1.3118
1.30038
0.553704
0.578889
0.56238
0.508657
0.495153
0.499647
0.518059
0.548336
0.549598
0.543753
0.636476
0.90897
1.12112
1.28909
1.34073
1.34443
1.33111
1.3168
1.32138
1.30502
0.723719
0.705599
0.673067
0.598574
0.54547
0.54406
0.565776
0.586124
0.587052
0.580639
0.557382
0.615874
0.882948
1.14371
1.27752
1.32912
1.31813
1.31428
1.32809
1.30757
0.942494
0.866921
0.795416
0.713589
0.641101
0.624853
0.621649
0.62694
0.633462
0.618899
0.593324
0.57237
0.620312
0.85488
1.14249
1.30879
1.27518
1.30286
1.33233
1.30891
1.19754
1.0632
0.968586
0.863016
0.745181
0.690874
0.667691
0.663439
0.669621
0.65873
0.633913
0.606609
0.59997
0.632635
0.841946
1.15396
1.22236
1.31085
1.33237
1.30377
1.76418
1.27312
1.12567
1.05906
0.975605
0.849737
0.7395
0.725391
0.731376
0.726974
0.707049
0.682484
0.653672
0.648687
0.665962
0.789342
1.05033
1.24919
1.29797
1.28617
2.86234
2.08222
1.49782
1.32848
1.27607
1.1702
0.974827
0.858934
0.83004
0.805503
0.771984
0.761853
0.737718
0.710516
0.678972
0.683405
0.738926
0.895917
1.09889
1.23242
3.48083
3.03768
2.39764
1.82252
1.50297
1.36859
1.2087
0.998087
0.96387
0.953159
0.932528
0.899359
0.853556
0.809202
0.775636
0.733535
0.736698
0.745977
0.802645
1.00736
3.29768
3.26936
3.12055
2.70101
2.13428
1.74264
1.55711
1.31994
1.20844
1.13938
1.0837
1.01204
0.929109
0.869375
0.839453
0.818927
0.798128
0.774052
0.766003
0.794857
2.35034
2.9942
3.09742
3.05567
2.8703
2.45477
2.07908
1.76168
1.50502
1.30841
1.18364
1.12449
1.05015
0.987813
0.970896
0.954091
0.920064
0.876067
0.820766
0.785071
1.55217
2.00903
2.58124
2.94945
2.94676
2.89057
2.68954
2.36554
2.00774
1.72196
1.47806
1.36645
1.28107
1.19765
1.11639
1.03672
0.977708
0.927158
0.88608
0.846134
1.40634
1.46181
1.68544
2.16535
2.59796
2.81929
2.81186
2.75446
2.5549
2.26962
1.96463
1.68495
1.50498
1.3602
1.24399
1.14235
1.07184
1.02598
1.02312
0.979154
1.40013
1.40157
1.41443
1.51012
1.77581
2.19592
2.54877
2.70254
2.69111
2.63381
2.46997
2.20065
1.93766
1.69274
1.51836
1.41821
1.30425
1.22143
1.16392
1.06596
1.40001
1.40002
1.40021
1.4035
1.42693
1.53843
1.80526
2.17735
2.46762
2.59729
2.58815
2.53688
2.39716
2.16987
1.91935
1.71868
1.54613
1.39037
1.28884
1.1645
1.40001
1.40001
1.40001
1.40004
1.40047
1.40538
1.43387
1.55339
1.79884
2.12861
2.38201
2.49847
2.49188
2.45438
2.34374
2.14376
1.93458
1.72339
1.57119
1.39527
1.40001
1.40001
1.40001
1.40001
1.40001
1.40007
1.40068
1.40671
1.43751
1.54587
1.76939
2.06527
2.2896
2.41224
2.40863
2.37899
2.29848
2.14127
1.9514
1.66613
1.40001
1.40001
1.40001
1.40001
1.40001
1.40001
1.40001
1.40009
1.40082
1.40664
1.43507
1.53372
1.72643
1.99004
2.20037
2.32885
2.32679
2.3105
2.25931
2.04095
1.40001
1.40001
1.40001
1.40001
1.40001
1.40001
1.40001
1.40001
1.40001
1.40009
1.4008
1.40609
1.43068
1.51117
1.6752
1.91781
2.10702
2.25109
2.2545
2.21603
1.40001
1.40001
1.40001
1.40001
1.40001
1.40001
1.40001
1.40001
1.40001
1.40001
1.40001
1.40009
1.4007
1.40479
1.42429
1.48946
1.62939
1.83778
2.02205
2.16061
1.40001
1.40001
1.40001
1.40001
1.40001
1.40001
1.40001
1.40001
1.40001
1.40001
1.40001
1.40001
1.40001
1.40007
1.40056
1.40361
1.41966
1.47116
1.59139
1.93641
2.26181
3.42696
3.59984
2.91094
1.83238
1.45152
1.40262
1.40007
1.40001
1.40001
1.40001
1.40001
1.40001
1.40001
1.40001
3.25387
3.91796
3.52456
2.15625
1.46764
1.40114
1.40001
1.4
1.40001
1.40001
1.40001
1.40001
1.40001
1.40001
1.40001
4.07354
3.99147
2.76471
1.61204
1.40718
1.40007
1.40001
1.40001
1.40001
1.40001
1.40001
1.40001
1.40001
1.40001
1.40001
4.51305
3.55309
1.90737
1.42739
1.40028
1.40001
1.40001
1.40001
1.40001
1.40001
1.40001
1.40001
1.40001
1.40001
1.40001
4.60875
2.35185
1.46648
1.40072
1.40001
1.40001
1.40001
1.40001
1.40001
1.40001
1.40001
1.40001
1.40001
1.40001
1.40001
2.88247
1.50148
1.40066
1.4
1.4
1.4
1.40001
1.40001
1.40001
1.40001
1.40001
1.40001
1.40001
1.40001
1.40001
1.54184
1.40079
1.4
1.4
1.40001
1.40001
1.40001
1.40001
1.40001
1.40001
1.40001
1.40001
1.40001
1.40001
1.40001
1.39741
1.39982
1.4
1.40001
1.40001
1.40001
1.40001
1.40001
1.40001
1.40001
1.40001
1.40001
1.40001
1.40001
1.40001
1.39996
1.40001
1.40001
1.40001
1.40001
1.40001
1.40001
1.40001
1.40001
1.40001
1.40001
1.40001
1.40001
1.40001
1.40001
1.40001
1.40001
1.40001
1.40001
1.40001
1.40001
1.40001
1.40001
1.40001
1.40001
1.40001
1.40001
1.40001
1.40001
1.40001
1.40001
1.40001
1.40001
1.40001
1.40001
1.40001
1.40001
1.40001
1.40001
1.40001
1.40001
1.40001
1.40001
1.40001
1.40001
1.40001
1.40001
1.40001
1.40001
1.40001
1.40001
1.40001
1.40001
1.40001
1.40001
1.40001
1.40001
1.40001
1.40001
1.40001
1.40001
1.40001
1.40001
1.40001
1.40001
1.40001
1.40001
1.40001
1.40001
1.40001
1.40001
1.40001
1.40001
1.40001
1.40001
1.40001
1.40001
1.40001
1.40001
1.40001
1.40001
1.40001
1.40001
1.40001
1.40001
1.40001
1.40001
1.40001
1.40001
1.40001
1.40001
1.40001
1.40001
1.40001
1.40001
1.40001
1.40001
1.40001
1.40001
1.40001
1.40001
1.40001
1.40001
1.40001
1.40001
1.40001
1.40001
1.40001
1.40001
1.40001
1.40001
1.40001
1.40001
1.40001
1.40001
1.40001
1.40001
1.40001
1.40001
1.40001
1.40001
1.40001
1.40001
1.40001
1.40001
1.40001
1.40001
1.40001
1.40001
1.40001
1.40001
1.40001
1.40001
1.40001
1.40001
1.40001
1.40001
1.40001
1.40001
1.40001
1.40001
1.40001
1.40001
1.40001
1.40001
1.40001
1.40001
1.40001
1.40001
1.40001
1.40001
1.40001
1.40001
1.40001
1.40001
1.40001
1.40001
1.40001
1.40001
1.40001
1.40001
1.40001
1.40001
1.40001
1.40001
1.40001
1.40001
1.40001
1.40001
1.40001
1.40001
1.40001
1.40001
1.40001
1.40001
1.40001
1.40001
1.40001
1.40001
1.40001
1.40001
1.40001
1.40001
1.40001
1.40001
1.40001
1.40001
1.40001
1.40001
1.40001
1.40001
1.40001
1.40001
1.40001
1.40001
1.40001
1.40001
1.40001
1.40001
1.40001
1.40001
1.40001
1.40001
1.40001
1.40001
1.40001
1.40001
1.40001
1.40001
1.40001
1.40001
1.40001
1.40001
1.40001
1.40001
1.40001
1.40001
1.40001
1.40001
1.40001
1.40001
1.40001
1.40001
1.40001
1.40001
1.40001
1.40001
1.40001
1.40001
1.40001
1.40001
1.40001
1.40001
1.40001
1.40001
1.40001
1.40001
1.40001
1.40001
1.40001
1.40001
1.40001
1.40001
1.40001
1.40001
1.40001
1.40001
1.40001
1.40001
1.40001
1.40001
1.40001
1.40001
1.40001
1.40001
1.40001
1.40001
1.40001
1.40001
1.40001
1.40001
1.40001
1.40001
1.40001
1.40001
1.40001
1.40001
1.40001
1.40001
1.40001
1.40001
1.40001
1.40001
1.40001
1.40001
1.40001
1.40001
1.40001
1.40001
1.40001
1.40001
1.40001
1.40001
1.40001
1.40001
1.40001
1.40001
1.40001
1.40001
1.40001
1.40001
1.40001
1.40001
1.40001
1.40001
1.40001
1.40001
1.40001
1.40001
1.40001
1.40001
1.40001
1.40001
1.40001
1.40001
1.40001
1.40001
1.40001
1.40001
1.40001
1.40001
1.40001
1.40001
1.40001
1.40001
1.40001
1.40001
1.40001
1.40001
1.40001
1.40001
1.40001
1.40001
1.40001
1.40001
1.40001
1.40001
1.40001
1.40001
1.40001
1.40001
1.40001
1.40001
1.40001
1.40001
1.40001
1.40001
1.40001
1.40001
1.40001
1.40001
1.40001
1.40001
1.40001
1.40001
1.40001
1.40001
1.40001
1.40001
1.40001
1.40001
1.40001
1.40001
1.40001
1.40001
1.40001
1.40001
1.40001
1.40001
1.40001
1.40001
1.40001
1.40001
1.40001
1.40001
1.40001
1.40001
1.40001
1.40001
1.40001
1.40001
1.40001
1.40001
1.40001
1.40001
1.40001
1.40001
1.40001
1.40001
1.40001
1.40001
1.40001
1.40001
1.40001
1.40001
1.40001
1.40001
1.40001
1.40001
1.40001
1.40001
1.40001
1.40001
1.40001
1.40001
1.40001
1.40001
1.40001
1.40001
1.40001
1.40001
1.40001
1.40001
1.40001
1.40001
1.40001
1.40001
1.40001
1.40001
1.40001
1.40001
1.40001
1.40001
1.40001
1.40001
1.40001
1.40001
1.40001
1.40001
1.40001
1.40001
1.40001
1.40001
1.40001
1.40001
1.40001
1.40001
1.40001
1.40001
1.40001
1.40001
1.40001
1.40001
1.40001
1.40001
1.40001
1.40001
1.40001
1.40001
1.40001
1.40001
1.40001
1.40001
1.40001
1.40001
1.40001
1.40001
1.40001
1.40001
1.40001
1.40001
1.40001
1.40001
1.40001
1.40001
1.40001
1.40001
1.40001
1.40001
1.40001
1.40001
1.40001
1.40001
1.40001
1.40001
1.40001
1.40001
1.40001
1.40001
1.40001
1.40001
1.40001
1.40001
1.40001
1.40001
1.40001
1.40001
1.40001
1.40001
1.40001
1.40001
1.40001
1.40001
1.40001
1.40001
1.40001
1.40001
1.40001
1.40001
1.40001
1.40001
1.40001
1.40001
1.40001
1.40001
1.40001
1.40001
1.40001
1.40001
1.40001
1.40001
1.40001
1.40001
1.40001
1.40001
1.40001
1.40001
1.40001
1.40001
1.40001
1.40001
1.40001
1.40001
1.40001
1.40001
1.40001
1.40001
1.40001
1.40001
1.40001
1.40001
1.40001
1.40001
1.40001
1.40001
1.40001
1.40001
1.40001
1.40001
1.40001
1.40001
1.40001
1.40001
1.40001
1.40001
1.40001
1.40001
1.40001
1.40001
1.40001
1.40001
1.40001
1.40001
1.40001
1.40001
1.40001
1.40001
1.40001
1.40001
1.40001
1.40001
1.40001
1.40001
1.40001
1.40001
1.40001
1.40001
1.40001
1.40001
1.40001
1.40001
1.40001
1.40001
1.40001
1.40001
1.40001
1.40001
1.40001
1.40001
1.40001
1.40001
1.40001
1.40001
1.40001
1.40001
1.40001
1.40001
1.40001
1.40001
1.40001
1.40001
1.40001
1.40001
1.40001
1.40001
1.40001
1.40001
1.40001
1.40001
1.40001
1.40001
1.40001
1.40001
1.40001
1.40001
1.40001
1.40001
1.40001
1.40001
1.40001
1.40001
1.40001
1.40001
1.40001
1.40001
1.40001
1.40001
1.40001
1.40001
1.40001
1.40001
1.40001
1.40001
1.40001
1.40001
1.40001
1.40001
1.40001
1.40001
1.40001
1.40001
1.40001
1.40001
1.40001
1.40001
1.40001
1.40001
1.40001
1.40001
1.40001
1.40001
1.40001
1.40001
1.40001
1.40001
1.40001
1.40001
1.40001
1.40001
1.40001
1.40001
1.40001
1.40001
1.40001
1.40001
1.40001
1.40001
1.40001
1.40001
1.40001
1.40001
1.40001
1.40001
1.40001
1.40001
1.40001
1.40001
1.40001
1.40001
1.40001
1.40001
1.40001
1.40001
1.40001
1.40001
1.40001
1.40001
1.40001
1.40001
1.40001
1.40001
1.40001
1.40001
1.40001
1.40001
1.40001
1.40001
1.40001
1.40001
1.40001
1.40001
1.40001
1.40001
1.40001
1.40001
1.40001
1.40001
1.40001
1.40001
1.40001
1.40001
1.40001
1.40001
1.40001
1.40001
1.40001
1.40001
1.40001
1.40001
1.40001
1.40001
1.40001
1.40001
1.40001
1.40001
1.40001
1.40001
1.40001
1.40001
1.40001
1.40001
1.40001
1.40001
1.40001
1.40001
1.40001
1.40001
1.40001
1.40001
1.40001
1.40001
1.40001
1.40001
1.40001
1.40001
1.40001
1.40001
1.40001
1.40001
1.40001
1.40001
1.40001
1.40001
1.40001
1.40001
1.40001
1.40001
1.40001
1.40001
1.40001
1.40001
1.40001
1.40001
1.40001
1.40001
1.40001
1.40001
1.40001
1.40001
1.40001
1.40001
1.40001
1.40001
1.40001
1.40001
1.40001
1.40001
1.40001
1.40001
1.40001
1.40001
1.40001
1.40001
1.40001
1.40001
1.40001
1.40001
1.40001
1.40001
1.40001
1.40001
1.40001
1.40001
1.40001
1.40001
1.40001
1.40001
1.40001
1.40001
1.40001
1.40001
1.40001
1.40001
1.40001
1.40001
1.40001
1.40001
1.40001
1.40001
1.40001
1.40001
1.40001
1.40001
1.40001
1.40001
1.40001
1.40001
1.40001
1.40001
1.40001
1.40001
1.40001
1.40001
1.40001
1.40001
1.40001
1.40001
1.40001
1.40001
1.40001
1.40001
1.40001
1.40001
1.40001
1.40001
1.40001
1.40001
1.40001
1.40001
1.40001
1.40001
1.40001
1.40001
1.40001
1.40001
1.40001
1.40001
1.40001
1.40001
1.40001
1.40001
1.40001
1.40001
1.40001
1.40001
1.40001
1.40001
1.40001
1.40001
1.40001
1.40001
1.40001
1.40001
1.40001
1.40001
1.39996
1.40001
1.40001
1.40001
1.40001
1.40001
1.40001
1.40001
1.40001
1.40001
1.40001
1.40001
1.40001
1.40001
1.40001
1.39741
1.39982
1.4
1.40001
1.40001
1.40001
1.40001
1.40001
1.40001
1.40001
1.40001
1.40001
1.40001
1.40001
1.40001
1.54188
1.40079
1.4
1.4
1.40001
1.40001
1.40001
1.40001
1.40001
1.40001
1.40001
1.40001
1.40001
1.40001
1.40001
2.88284
1.50152
1.40066
1.4
1.4
1.4
1.40001
1.40001
1.40001
1.40001
1.40001
1.40001
1.40001
1.40001
1.40001
4.60963
2.35167
1.4664
1.40072
1.40001
1.40001
1.40001
1.40001
1.40001
1.40001
1.40001
1.40001
1.40001
1.40001
1.40001
4.51363
3.55317
1.90698
1.42733
1.40028
1.40001
1.40001
1.40001
1.40001
1.40001
1.40001
1.40001
1.40001
1.40001
1.40001
4.07369
3.99196
2.76462
1.61189
1.40717
1.40007
1.40001
1.40001
1.40001
1.40001
1.40001
1.40001
1.40001
1.40001
1.40001
3.25533
3.91827
3.52491
2.15616
1.4676
1.40114
1.40001
1.4
1.40001
1.40001
1.40001
1.40001
1.40001
1.40001
1.40001
2.25963
3.42756
3.59988
2.91095
1.83233
1.45153
1.40262
1.40007
1.40001
1.40001
1.40001
1.40001
1.40001
1.40001
1.40001
1.77234
2.86298
3.48283
3.29799
2.34999
1.55194
1.40633
1.40013
1.40001
1.40001
1.40001
1.40001
1.40001
1.40001
1.40001
1.2779
2.08157
3.03651
3.26907
2.99372
2.00865
1.46176
1.40157
1.40002
1.40001
1.40001
1.40001
1.40001
1.40001
1.40001
1.11239
1.5073
2.39019
3.12108
3.09716
2.58124
1.6855
1.41444
1.40021
1.40001
1.40001
1.40001
1.40001
1.40001
1.40001
1.04602
1.33846
1.82436
2.69922
3.05541
2.94964
2.1656
1.5102
1.40351
1.40004
1.40001
1.40001
1.40001
1.40001
1.40001
0.958369
1.28006
1.52201
2.127
2.87047
2.94704
2.59823
1.77593
1.42692
1.40047
1.40001
1.40001
1.40001
1.40001
1.40001
0.829909
1.15648
1.37431
1.75104
2.4591
2.89141
2.81993
2.196
1.53841
1.40537
1.40007
1.40001
1.40001
1.40001
1.40001
0.744657
0.95881
1.20381
1.57188
2.08102
2.6911
2.81239
2.54896
1.80515
1.43386
1.40068
1.40001
1.40001
1.40001
1.40001
0.739575
0.856535
0.989798
1.33215
1.76082
2.36529
2.75464
2.70265
2.17727
1.55333
1.40671
1.40009
1.40001
1.40001
1.40001
0.74868
0.833938
0.954722
1.21131
1.50391
2.00477
2.55468
2.69113
2.46757
1.79885
1.43752
1.40083
1.40001
1.40001
1.40001
0.741591
0.813499
0.939206
1.13628
1.30921
1.7211
2.26928
2.63366
2.5971
2.12862
1.54593
1.40664
1.40009
1.40001
1.40001
0.716597
0.782047
0.919046
1.07872
1.18606
1.47968
1.965
2.46965
2.58791
2.38191
1.76943
1.43509
1.4008
1.40001
1.40001
0.681852
0.770151
0.894393
1.00888
1.12749
1.36728
1.68452
2.20019
2.53672
2.49833
2.06524
1.53372
1.40609
1.40009
1.40001
0.650849
0.745106
0.855614
0.928141
1.05194
1.2805
1.50455
1.93705
2.39679
2.49177
2.28958
1.72643
1.43068
1.4007
1.40001
0.645773
0.715704
0.813386
0.8688
0.98792
1.19634
1.35983
1.69254
2.16968
2.45429
2.41219
1.99005
1.51118
1.40479
1.40007
0.663098
0.679492
0.778509
0.83924
0.970302
1.11557
1.24355
1.51721
1.91958
2.34386
2.4086
2.20037
1.67521
1.42429
1.40056
0.787132
0.682706
0.734427
0.818838
0.953614
1.03632
1.14286
1.4181
1.71858
2.14377
2.37897
2.32884
1.9178
1.48946
1.40361
1.04769
0.737223
0.736628
0.79787
0.920048
0.97726
1.07256
1.30519
1.54635
1.93441
2.29843
2.32679
2.10702
1.62938
1.41965
1.24664
0.894122
0.745234
0.773366
0.876091
0.926222
1.02659
1.22156
1.39063
1.72376
2.14137
2.31053
2.25113
1.83778
1.47116
1.29765
1.09868
0.802267
0.766307
0.821295
0.884795
1.02362
1.16345
1.28851
1.57158
1.95162
2.25938
2.25454
2.02207
1.5914
1.28674
1.23314
1.00726
0.794899
0.785255
0.846088
0.979426
1.06568
1.16397
1.39521
1.66613
2.04099
2.21607
2.16064
1.93644
1.18561
1.06496
0.973995
0.855166
0.735517
0.687899
0.659357
0.653998
0.672316
0.663786
0.63743
0.602195
0.595442
0.6295
0.842716
1.15335
1.22223
1.30877
1.33214
1.304
0.927632
0.871491
0.806653
0.70502
0.630498
0.618871
0.617367
0.621806
0.63132
0.619869
0.593222
0.569649
0.613473
0.850566
1.12976
1.30556
1.27477
1.30219
1.33195
1.30861
0.718071
0.708757
0.681153
0.60781
0.554149
0.554259
0.571082
0.584703
0.585588
0.577268
0.552945
0.606873
0.863945
1.13039
1.28325
1.33374
1.32175
1.31457
1.32768
1.30742
0.549942
0.585873
0.564211
0.499712
0.486259
0.4944
0.513152
0.539432
0.533599
0.537914
0.636269
0.899822
1.10969
1.27365
1.34606
1.34915
1.33521
1.31774
1.32147
1.30492
0.439192
0.464719
0.474008