/*--------------------------------*- C++ -*----------------------------------*\
  =========                 |
  \\      /  F ield         | OpenFOAM: The Open Source CFD Toolbox
   \\    /   O peration     | Website:  https://openfoam.org
    \\  /    A nd           | Version:  7
     \\/     M anipulation  |
\*---------------------------------------------------------------------------*/
FoamFile
{
    version     2.0;
    format      ascii;
    class       volVectorField;
    location    "4.1";
    object      U;
}
// * * * * * * * * * * * * * * * * * * * * * * * * * * * * * * * * * * * * * //

dimensions      [0 1 -1 0 0 0 0];

internalField   nonuniform List<vector> 
3700
(
(1.39004 -0.49324 0)
(1.23755 -0.558583 0)
(1.19401 -0.338586 0)
(1.19729 -0.292253 0)
(1.26284 -0.220909 0)
(1.39074 -0.20728 0)
(1.51043 -0.216076 0)
(1.56615 -0.14775 0)
(1.60452 -0.129094 0)
(1.62173 -0.145016 0)
(1.6211 -0.246366 0)
(1.62871 -0.350362 0)
(1.57862 -0.332899 0)
(1.56319 -0.230064 0)
(1.64421 -0.130116 0)
(1.7316 -0.15127 0)
(1.78668 -0.218335 0)
(1.84581 -0.246659 0)
(1.81793 -0.204889 0)
(1.84864 -0.151224 0)
(1.50748 -1.3937 0)
(1.42054 -1.48621 0)
(1.46036 -1.36226 0)
(1.53877 -1.27464 0)
(1.67959 -1.24337 0)
(1.74416 -1.20541 0)
(1.83008 -1.2252 0)
(1.81905 -1.09795 0)
(1.85526 -1.11022 0)
(1.95169 -1.21733 0)
(2.03079 -1.6005 0)
(1.99759 -1.68662 0)
(1.92294 -1.58629 0)
(1.86529 -1.36687 0)
(1.92873 -1.16277 0)
(2.0899 -1.1813 0)
(2.2177 -1.20769 0)
(2.27078 -1.16217 0)
(2.31909 -1.08242 0)
(2.37512 -1.02305 0)
(1.37152 -1.39264 0)
(1.4993 -1.63761 0)
(1.63377 -1.79848 0)
(1.71048 -1.98103 0)
(1.77073 -2.14017 0)
(1.86032 -2.20154 0)
(1.90662 -2.20841 0)
(1.97442 -2.14758 0)
(2.01094 -2.14264 0)
(2.12976 -2.12851 0)
(2.22812 -2.1039 0)
(2.26923 -2.07838 0)
(2.32347 -1.98039 0)
(2.30298 -1.9569 0)
(2.31857 -1.86811 0)
(2.35619 -1.81785 0)
(2.41907 -1.74846 0)
(2.49602 -1.65529 0)
(2.60049 -1.60505 0)
(2.73915 -1.50041 0)
(1.32984 -1.42785 0)
(1.5212 -1.65453 0)
(1.71418 -1.98231 0)
(1.77556 -2.1755 0)
(1.82605 -2.29268 0)
(1.88748 -2.3318 0)
(1.95583 -2.22163 0)
(1.98917 -2.10433 0)
(2.03343 -2.02465 0)
(2.20202 -1.95216 0)
(2.39013 -1.78048 0)
(2.52383 -1.72306 0)
(2.63762 -1.63436 0)
(2.61896 -1.68377 0)
(2.59679 -1.67063 0)
(2.53662 -1.68341 0)
(2.51315 -1.65306 0)
(2.53617 -1.50436 0)
(2.59025 -1.47681 0)
(2.69142 -1.26732 0)
(1.35654 -1.47992 0)
(1.63677 -1.70541 0)
(1.8717 -2.10203 0)
(1.9459 -2.21893 0)
(2.07459 -2.30594 0)
(2.13162 -2.34624 0)
(2.17494 -2.15465 0)
(2.08463 -2.09943 0)
(2.07066 -2.05449 0)
(2.16418 -1.91686 0)
(2.27432 -1.80927 0)
(2.46291 -1.70977 0)
(2.56057 -1.58743 0)
(2.705 -1.4187 0)
(2.7806 -1.27463 0)
(2.77073 -1.23954 0)
(2.71614 -1.32399 0)
(2.69856 -1.2408 0)
(2.62985 -1.32725 0)
(2.63855 -1.2009 0)
(1.48029 -1.54527 0)
(1.82254 -1.74193 0)
(2.01112 -2.1766 0)
(2.14613 -2.26208 0)
(2.28712 -2.25185 0)
(2.35739 -2.23052 0)
(2.37775 -1.9975 0)
(2.27644 -1.98021 0)
(2.24308 -2.00297 0)
(2.29428 -1.8589 0)
(2.34576 -1.77103 0)
(2.45549 -1.65207 0)
(2.51647 -1.51706 0)
(2.63757 -1.43115 0)
(2.70667 -1.29503 0)
(2.78285 -1.05858 0)
(2.8458 -0.940562 0)
(2.85256 -0.816257 0)
(2.76874 -0.869727 0)
(2.69534 -0.914701 0)
(1.58434 -1.59953 0)
(1.98887 -1.78967 0)
(1.94754 -2.21001 0)
(2.05757 -2.29774 0)
(2.25348 -2.23706 0)
(2.34374 -2.15711 0)
(2.40842 -1.91265 0)
(2.3927 -1.84016 0)
(2.41748 -1.80076 0)
(2.53084 -1.6631 0)
(2.51096 -1.69724 0)
(2.57193 -1.5265 0)
(2.57977 -1.39837 0)
(2.61594 -1.31489 0)
(2.65478 -1.19083 0)
(2.69632 -1.0469 0)
(2.7791 -0.931974 0)
(2.83369 -0.719686 0)
(2.84076 -0.544635 0)
(2.75514 -0.478144 0)
(1.74865 -1.69032 0)
(1.93812 -1.83382 0)
(1.8044 -2.2294 0)
(1.83208 -2.25438 0)
(1.99819 -2.08256 0)
(2.16521 -1.90474 0)
(2.3332 -1.77012 0)
(2.46778 -1.67271 0)
(2.56478 -1.61654 0)
(2.6455 -1.4093 0)
(2.6892 -1.43468 0)
(2.73828 -1.22055 0)
(2.6996 -1.18712 0)
(2.69938 -1.08971 0)
(2.70174 -0.976587 0)
(2.69655 -0.875886 0)
(2.70971 -0.803897 0)
(2.77065 -0.721262 0)
(2.76562 -0.513516 0)
(2.75021 -0.31823 0)
(1.77925 -1.71603 0)
(1.7389 -1.9346 0)
(1.68875 -2.20817 0)
(1.70265 -2.14961 0)
(1.87151 -1.98381 0)
(2.0381 -1.73284 0)
(2.1038 -1.7518 0)
(2.2571 -1.62211 0)
(2.43929 -1.4612 0)
(2.57572 -1.24647 0)
(2.65921 -1.05893 0)
(2.7143 -0.842254 0)
(2.73229 -0.763564 0)
(2.76063 -0.670576 0)
(2.77156 -0.590072 0)
(2.74981 -0.54702 0)
(2.7238 -0.479062 0)
(2.72853 -0.519763 0)
(2.70852 -0.407972 0)
(2.67122 -0.193011 0)
(1.6157 -1.66615 0)
(1.55405 -1.8692 0)
(1.54133 -2.05344 0)
(1.71513 -1.88874 0)
(1.84407 -1.91314 0)
(1.98775 -1.64903 0)
(2.04696 -1.69608 0)
(2.19833 -1.54657 0)
(2.30615 -1.39745 0)
(2.41518 -1.28144 0)
(2.53966 -1.05177 0)
(2.633 -0.851381 0)
(2.67378 -0.605956 0)
(2.744 -0.465442 0)
(2.72372 -0.233428 0)
(2.71658 -0.168889 0)
(2.70237 -0.0749371 0)
(2.67516 -0.155404 0)
(2.65455 -0.177299 0)
(2.61529 -0.051133 0)
(1.42134 -1.53021 0)
(1.48012 -1.68395 0)
(1.53799 -1.74578 0)
(1.7437 -1.62184 0)
(1.81237 -1.71871 0)
(2.06253 -1.48025 0)
(2.17902 -1.55976 0)
(2.35532 -1.408 0)
(2.41801 -1.24202 0)
(2.45256 -1.14812 0)
(2.52082 -0.942724 0)
(2.57952 -0.773662 0)
(2.60667 -0.560626 0)
(2.68381 -0.443497 0)
(2.65161 -0.19318 0)
(2.66494 -0.0580043 0)
(2.62682 0.145914 0)
(2.58897 0.177171 0)
(2.5362 0.195587 0)
(2.57852 0.0681154 0)
(1.33302 -1.36671 0)
(1.53828 -1.46485 0)
(1.71954 -1.4767 0)
(1.74953 -1.59344 0)
(1.80412 -1.59599 0)
(2.12656 -1.41992 0)
(2.36371 -1.3409 0)
(2.55741 -0.955093 0)
(2.66479 -0.69179 0)
(2.66234 -0.658304 0)
(2.66289 -0.486179 0)
(2.65747 -0.350188 0)
(2.63456 -0.230386 0)
(2.63475 -0.151545 0)
(2.59016 -0.0194939 0)
(2.58362 0.0405071 0)
(2.54585 0.176258 0)
(2.4966 0.316185 0)
(2.43079 0.412369 0)
(2.45071 0.350952 0)
(1.32483 -1.28891 0)
(1.58304 -1.36617 0)
(1.8539 -1.30787 0)
(1.77197 -1.64667 0)
(2.13059 -1.347 0)
(2.51263 -1.25974 0)
(2.73016 -1.0131 0)
(2.74194 -0.542836 0)
(2.71538 -0.419381 0)
(2.66982 -0.172398 0)
(2.66001 -0.0288987 0)
(2.61104 0.141068 0)
(2.58723 0.223263 0)
(2.54173 0.319452 0)
(2.49848 0.363616 0)
(2.46219 0.368073 0)
(2.43111 0.377065 0)
(2.39308 0.433451 0)
(2.31324 0.565666 0)
(2.30134 0.559967 0)
(1.28949 -1.26745 0)
(1.59775 -1.42363 0)
(1.97293 -1.19898 0)
(2.11249 -1.73405 0)
(2.56501 -1.01681 0)
(2.45248 -1.13647 0)
(2.50862 -0.860577 0)
(2.53469 -0.529068 0)
(2.52698 -0.391784 0)
(2.54018 -0.172811 0)
(2.5528 0.0357362 0)
(2.49327 0.272871 0)
(2.465 0.416539 0)
(2.39232 0.565324 0)
(2.33718 0.645545 0)
(2.28882 0.675248 0)
(2.23369 0.715578 0)
(2.231 0.692089 0)
(2.18941 0.737383 0)
(2.14447 0.772234 0)
(1.14813 -1.2376 0)
(1.61107 -1.52762 0)
(2.41764 -0.831188 0)
(2.31531 -1.32829 0)
(2.37189 -1.00385 0)
(2.40215 -0.846053 0)
(2.4494 -0.453545 0)
(2.46446 -0.223659 0)
(2.44016 0.00105229 0)
(2.44881 0.149 0)
(2.40624 0.33566 0)
(2.34499 0.492261 0)
(2.30054 0.600018 0)
(2.2344 0.709505 0)
(2.17966 0.778859 0)
(2.12589 0.825433 0)
(2.06382 0.896148 0)
(2.04605 0.917247 0)
(2.03543 0.937095 0)
(2.06232 0.951577 0)
(1.20172 -0.816335 0)
(1.39155 -1.51492 0)
(2.34604 -0.889261 0)
(2.18252 -0.933444 0)
(2.32024 -0.690079 0)
(2.43227 -0.185877 0)
(2.42141 0.18276 0)
(2.382 0.367479 0)
(2.32679 0.491747 0)
(2.29943 0.631082 0)
(2.19726 0.779549 0)
(2.12384 0.871686 0)
(2.07217 0.918097 0)
(2.0238 0.963205 0)
(1.99553 0.959598 0)
(1.96059 0.9802 0)
(1.95513 1.01155 0)
(1.969 0.996727 0)
(1.99271 0.997108 0)
(2.06952 0.979724 0)
(1.25115 -0.452322 0)
(1.79486 -0.818851 0)
(2.10022 -0.908722 0)
(2.30234 -0.0512442 0)
(2.37515 0.154503 0)
(2.33069 0.401439 0)
(2.2937 0.534397 0)
(2.19782 0.704504 0)
(2.14145 0.78466 0)
(2.09037 0.909648 0)
(1.97472 1.01524 0)
(1.91116 1.07141 0)
(1.87733 1.09052 0)
(1.86749 1.09522 0)
(1.87313 1.057 0)
(1.89915 1.04777 0)
(1.96388 1.01958 0)
(2.16747 0.899093 0)
(2.38468 0.787779 0)
(2.77983 0.439119 0)
(1.10708 -0.0947577 0)
(1.86226 -0.187828 0)
(2.22891 0.282466 0)
(2.24434 0.507966 0)
(2.19696 0.669961 0)
(2.13909 0.780366 0)
(2.03761 0.910118 0)
(1.97282 0.963239 0)
(1.91618 1.03136 0)
(1.85725 1.12163 0)
(1.79181 1.1581 0)
(1.79098 1.15137 0)
(1.80909 1.1315 0)
(1.85244 1.08912 0)
(2.04148 0.954244 0)
(2.25847 0.832579 0)
(2.66745 0.503039 0)
(3.03858 0.0895399 0)
(3.05483 -0.0242181 0)
(3.00394 -0.00463299 0)
(1.00968 0.0394601 0)
(1.93684 0.771403 0)
(2.11182 0.847973 0)
(1.99292 0.986854 0)
(1.96071 0.991035 0)
(1.8714 1.08347 0)
(1.79451 1.13427 0)
(1.76243 1.1475 0)
(1.7608 1.16373 0)
(1.73978 1.20275 0)
(1.71928 1.19559 0)
(1.86014 1.07076 0)
(2.0937 0.888027 0)
(2.50191 0.57966 0)
(2.98866 0.136063 0)
(3.07357 -0.0290636 0)
(3.00792 -0.00756898 0)
(3.00284 -0.00378109 0)
(3.0012 -0.0021687 0)
(3.00008 -0.000482445 0)
(1.16806 0.766003 0)
(1.83244 1.15043 0)
(1.83665 1.15665 0)
(1.73833 1.19162 0)
(1.7146 1.19452 0)
(1.66341 1.24191 0)
(1.65671 1.21378 0)
(1.72481 1.16697 0)
(1.75865 1.22945 0)
(1.79346 1.13905 0)
(2.27331 0.735737 0)
(2.86135 0.205171 0)
(3.09857 -0.0296345 0)
(3.02091 -0.0126024 0)
(3.0045 -0.00545137 0)
(3.00181 -0.00299406 0)
(3.00007 -0.000596101 0)
(2.99998 -2.34545e-05 0)
(2.99999 1.41895e-05 0)
(3 5.88122e-06 0)
(1.58023 1.25815 0)
(1.58515 1.26438 0)
(1.5907 1.26924 0)
(1.59575 1.26084 0)
(1.60713 1.24392 0)
(1.58943 1.26728 0)
(1.90092 1.15978 0)
(2.93724 0.3952 0)
(3.35144 -0.59511 0)
(3 -1.47511e-11 0)
(3 6.82745e-11 0)
(3 -7.15619e-12 0)
(3 3.1351e-10 0)
(3 -2.86698e-10 0)
(3 4.32589e-13 0)
(3 4.27841e-13 0)
(3 1.36317e-13 0)
(3 3.94002e-14 0)
(3 2.17928e-14 0)
(3 -1.58871e-14 0)
(1.58132 1.24545 0)
(1.59261 1.25568 0)
(1.59965 1.26569 0)
(1.60206 1.27212 0)
(1.65318 1.25531 0)
(1.66925 1.2568 0)
(2.25179 0.750716 0)
(2.9932 0.0202092 0)
(3 5.01501e-08 0)
(3 7.49465e-11 0)
(3 -1.14512e-12 0)
(3 3.1485e-14 0)
(3 -2.52975e-13 0)
(3 2.15467e-13 0)
(3 -7.33726e-16 0)
(3 8.62545e-16 0)
(3 9.43255e-16 0)
(3 1.69868e-15 0)
(3 8.09075e-17 0)
(3 -7.13978e-17 0)
(1.58306 1.24938 0)
(1.602 1.25353 0)
(1.61124 1.25627 0)
(1.60697 1.27994 0)
(1.71481 1.21625 0)
(2.26949 0.781184 0)
(3.00041 -0.0042368 0)
(3.00029 -0.000685896 0)
(3 9.2978e-07 0)
(3 5.52709e-11 0)
(3 -4.40551e-13 0)
(3 3.20957e-15 0)
(3 -1.55753e-15 0)
(3 -1.82338e-15 0)
(3 -7.10615e-16 0)
(3 -4.55997e-16 0)
(3 7.35995e-17 0)
(3 3.02099e-16 0)
(3 -2.23092e-16 0)
(3 3.28734e-16 0)
(1.58558 1.25389 0)
(1.60523 1.25449 0)
(1.62207 1.25292 0)
(1.64978 1.26393 0)
(1.85312 1.0986 0)
(2.75512 0.212071 0)
(3.00481 -0.00157504 0)
(2.99991 8.25219e-05 0)
(3 -1.03168e-06 0)
(3 9.48404e-10 0)
(3 -4.04053e-13 0)
(3 3.1734e-15 0)
(3 -2.0296e-15 0)
(3 5.61706e-17 0)
(3 -1.75811e-15 0)
(3 -1.31332e-15 0)
(3 -7.58354e-16 0)
(3 -1.20173e-15 0)
(3 -7.2307e-16 0)
(3 6.50081e-17 0)
(1.58543 1.26439 0)
(1.59509 1.25997 0)
(1.62784 1.25768 0)
(1.72834 1.20928 0)
(2.39133 0.628478 0)
(3.01872 -0.0178925 0)
(2.99976 0.000166075 0)
(3 -4.35376e-06 0)
(3 8.43233e-08 0)
(3 -9.45747e-10 0)
(3 1.66833e-12 0)
(3 -1.91359e-14 0)
(3 -7.39989e-16 0)
(3 -7.4371e-16 0)
(3 -2.22323e-15 0)
(3 -1.50914e-15 0)
(3 -1.40791e-15 0)
(3 -1.47431e-15 0)
(3 -1.82605e-15 0)
(3 -6.22747e-16 0)
(1.58325 1.27779 0)
(1.58024 1.27583 0)
(1.64112 1.26268 0)
(1.74966 1.1794 0)
(2.67126 0.280989 0)
(3 -5.86599e-10 0)
(3 1.51495e-08 0)
(3 -1.32312e-08 0)
(3 5.52089e-10 0)
(3 2.33971e-12 0)
(3 -1.33605e-13 0)
(3 -5.26138e-17 0)
(3 -2.52299e-15 0)
(3 -8.92205e-16 0)
(3 -2.30338e-15 0)
(3 -1.82667e-15 0)
(3 -1.31165e-15 0)
(3 -2.1309e-15 0)
(3 -1.81213e-15 0)
(3 -9.97989e-16 0)
(1.58106 1.29775 0)
(1.56234 1.29818 0)
(1.68077 1.24246 0)
(2.18726 0.830241 0)
(3.02154 -0.022333 0)
(3 1.39351e-10 0)
(3 -1.42413e-10 0)
(3 7.36553e-11 0)
(3 -3.96079e-12 0)
(3 -4.4014e-15 0)
(3 -1.96182e-15 0)
(3 -2.76612e-15 0)
(3 -2.42465e-15 0)
(3 -1.05513e-15 0)
(3 -2.33367e-15 0)
(3 -2.33463e-15 0)
(3 -1.44765e-15 0)
(3 -1.56276e-15 0)
(3 -1.42651e-15 0)
(3 -1.37908e-15 0)
(1.59122 1.32291 0)
(1.49316 1.33288 0)
(1.77064 1.17801 0)
(2.44164 0.533784 0)
(3.00052 -0.000382462 0)
(3 -2.56816e-10 0)
(3 7.79589e-13 0)
(3 -4.107e-13 0)
(3 2.41375e-14 0)
(3 -4.06973e-15 0)
(3 -3.35318e-15 0)
(3 -2.51669e-15 0)
(3 -2.30362e-15 0)
(3 -1.64411e-15 0)
(3 -3.03477e-15 0)
(3 -2.43064e-15 0)
(3 -1.43384e-15 0)
(3 -7.36205e-16 0)
(3 -2.17598e-16 0)
(3 -6.59157e-16 0)
(1.59029 1.30982 0)
(1.46882 1.3694 0)
(1.90276 1.05378 0)
(2.83544 0.137499 0)
(3 -3.80505e-10 0)
(3 5.16219e-12 0)
(3 5.7826e-16 0)
(3 -4.07325e-15 0)
(3 -2.57895e-15 0)
(3 -2.92203e-15 0)
(3 -3.34196e-15 0)
(3 -3.32747e-15 0)
(3 -2.3223e-15 0)
(3 -2.10167e-15 0)
(3 -2.79602e-15 0)
(3 -2.98423e-15 0)
(3 -3.47491e-15 0)
(3 -1.39331e-15 0)
(3 -1.29346e-15 0)
(3 -1.20117e-15 0)
(1.60469 1.29235 0)
(1.48088 1.36776 0)
(2.19986 0.79556 0)
(3.01061 -0.00916361 0)
(3 1.22428e-09 0)
(3 -9.45782e-13 0)
(3 -1.45303e-15 0)
(3 -2.04883e-15 0)
(3 -2.09293e-15 0)
(3 -2.2428e-15 0)
(3 -2.59969e-15 0)
(3 -2.70962e-15 0)
(3 -3.11758e-15 0)
(3 -3.55979e-15 0)
(3 -3.38112e-15 0)
(3 -3.42753e-15 0)
(3 -2.48543e-15 0)
(3 -2.66502e-15 0)
(3 -2.89942e-15 0)
(3 -2.47372e-15 0)
(1.62187 1.27949 0)
(1.56644 1.3178 0)
(2.41181 0.541319 0)
(3 5.54507e-14 0)
(3 -1.42633e-12 0)
(3 1.11859e-14 0)
(3 -6.7607e-16 0)
(3 -1.15892e-15 0)
(3 -1.15884e-15 0)
(3 -1.80834e-15 0)
(3 -1.89192e-15 0)
(3 -2.73786e-15 0)
(3 -2.85826e-15 0)
(3 -3.19822e-15 0)
(3 -2.76822e-15 0)
(3 -2.69897e-15 0)
(3 -2.10848e-15 0)
(3 -1.98557e-15 0)
(3 -2.90346e-15 0)
(3 -3.4989e-15 0)
(1.64098 1.26233 0)
(1.63693 1.245 0)
(2.66032 0.283254 0)
(3 1.79164e-14 0)
(3 3.4075e-15 0)
(3 4.332e-16 0)
(3 5.86701e-16 0)
(3 -2.67544e-16 0)
(3 -5.32532e-16 0)
(3 -9.16779e-16 0)
(3 -1.4147e-15 0)
(3 -2.07063e-15 0)
(3 -2.7648e-15 0)
(3 -3.21146e-15 0)
(3 -2.99016e-15 0)
(3 -3.2516e-15 0)
(3 -3.34925e-15 0)
(3 -2.18189e-15 0)
(3 -1.56339e-15 0)
(3 -1.41681e-15 0)
(1.65858 1.23661 0)
(1.83429 1.10456 0)
(2.8748 0.0979235 0)
(3 -8.75696e-14 0)
(3 1.39833e-15 0)
(3 6.71777e-16 0)
(3 7.51408e-16 0)
(3 3.04449e-16 0)
(3 -5.65027e-16 0)
(3 -5.87749e-16 0)
(3 -7.23797e-16 0)
(3 -1.2891e-15 0)
(3 -1.29068e-15 0)
(3 -1.55488e-15 0)
(3 -1.95727e-15 0)
(3 -1.92332e-15 0)
(3 -2.59162e-15 0)
(3 -2.99712e-15 0)
(3 -3.56481e-15 0)
(3 -2.90456e-15 0)
(1.66422 1.20246 0)
(1.87792 0.98966 0)
(2.97756 0.016953 0)
(3 1.49174e-15 0)
(3 7.30451e-16 0)
(3 4.99364e-17 0)
(3 -2.0789e-17 0)
(3 -4.59319e-16 0)
(3 -8.281e-16 0)
(3 -7.70748e-16 0)
(3 -9.95037e-16 0)
(3 -1.09757e-15 0)
(3 -1.03326e-15 0)
(3 -7.02364e-16 0)
(3 -4.51333e-16 0)
(3 -1.13935e-16 0)
(3 -2.42385e-16 0)
(3 -8.48757e-16 0)
(3 -1.22985e-15 0)
(3 -2.51579e-15 0)
(1.69325 1.17063 0)
(2.04439 0.823429 0)
(3 -5.32187e-18 0)
(3 7.96983e-17 0)
(3 9.21618e-18 0)
(3 -4.8509e-16 0)
(3 -9.56449e-16 0)
(3 -1.70986e-15 0)
(3 -1.68639e-15 0)
(3 -1.4589e-15 0)
(3 -1.50701e-15 0)
(3 -1.93916e-15 0)
(3 -2.07303e-15 0)
(3 -1.92462e-15 0)
(3 -1.70646e-15 0)
(3 -1.01148e-15 0)
(3 -5.63685e-16 0)
(3 -6.96994e-16 0)
(3 -7.20284e-16 0)
(3 -1.00824e-15 0)
(1.77261 1.10519 0)
(2.23049 0.650743 0)
(3 3.95111e-16 0)
(3 -2.54924e-16 0)
(3 -3.03808e-16 0)
(3 -6.65063e-16 0)
(3 -9.86156e-16 0)
(3 -1.50577e-15 0)
(3 -1.74382e-15 0)
(3 -1.60964e-15 0)
(3 -1.88854e-15 0)
(3 -2.25029e-15 0)
(3 -2.42031e-15 0)
(3 -2.35089e-15 0)
(3 -2.20403e-15 0)
(3 -1.76472e-15 0)
(3 -5.9114e-16 0)
(3 -2.6294e-16 0)
(3 -9.40068e-17 0)
(3 1.12226e-16 0)
(1.83301 1.00305 0)
(2.4642 0.432986 0)
(3 -5.85805e-16 0)
(3 -6.89138e-16 0)
(3 2.09056e-16 0)
(3 2.11163e-16 0)
(3 -2.08393e-16 0)
(3 -3.46535e-16 0)
(3 -7.46772e-16 0)
(3 -8.53504e-16 0)
(3 -1.66811e-15 0)
(3 -2.17434e-15 0)
(3 -2.39899e-15 0)
(3 -2.26478e-15 0)
(3 -2.28023e-15 0)
(3 -2.56393e-15 0)
(3 -2.63495e-15 0)
(3 -2.83031e-15 0)
(3 -2.90699e-15 0)
(3 -2.33723e-15 0)
(1.93852 0.871693 0)
(2.71576 0.205383 0)
(3 -4.84149e-16 0)
(3 -1.13771e-15 0)
(3 -5.86563e-16 0)
(3 -4.69045e-16 0)
(3 -6.60045e-16 0)
(3 -6.58149e-16 0)
(3 -8.38336e-16 0)
(3 -8.24784e-16 0)
(3 -7.79253e-16 0)
(3 -1.29476e-15 0)
(3 -1.77776e-15 0)
(3 -1.95336e-15 0)
(3 -2.13927e-15 0)
(3 -2.41057e-15 0)
(3 -2.92708e-15 0)
(3 -3.01947e-15 0)
(3 -3.296e-15 0)
(3 -3.23963e-15 0)
(2.10265 0.658244 0)
(2.99123 5.78929e-05 0)
(3 -8.44987e-16 0)
(3 -1.58024e-15 0)
(3 -1.71274e-15 0)
(3 -1.38026e-15 0)
(3 -2.08761e-16 0)
(3 2.84649e-16 0)
(3 6.67756e-16 0)
(3 1.0384e-15 0)
(3 8.73285e-16 0)
(3 7.58793e-16 0)
(3 2.63654e-16 0)
(3 1.64587e-16 0)
(3 2.0028e-17 0)
(3 -8.01079e-17 0)
(3 -5.72819e-16 0)
(3 -8.1092e-16 0)
(3 -1.06891e-15 0)
(3 -1.09932e-15 0)
(1.99279 0.374086 0)
(2.99989 -1.42557e-05 0)
(3 -7.96058e-16 0)
(3 -1.65663e-15 0)
(3 -1.50396e-15 0)
(3 -1.02058e-15 0)
(3 -4.7553e-16 0)
(3 4.55321e-16 0)
(3 9.17604e-16 0)
(3 1.41529e-15 0)
(3 1.36363e-15 0)
(3 1.34838e-15 0)
(3 1.40186e-15 0)
(3 1.3359e-15 0)
(3 1.26726e-15 0)
(3 1.29134e-15 0)
(3 1.80896e-15 0)
(3 1.73966e-15 0)
(3 1.71245e-15 0)
(3 1.44966e-15 0)
(1.99281 -0.374426 0)
(2.9999 1.33852e-05 0)
(3 -1.92894e-15 0)
(3 -7.39114e-16 0)
(3 -3.39705e-16 0)
(3 -1.54981e-16 0)
(3 -1.93317e-16 0)
(3 -2.12418e-16 0)
(3 -5.8387e-16 0)
(3 -8.59121e-16 0)
(3 -9.44294e-16 0)
(3 -1.00199e-15 0)
(3 -9.56438e-16 0)
(3 -5.64011e-16 0)
(3 3.7407e-16 0)
(3 9.74621e-16 0)
(3 1.67144e-15 0)
(3 2.07068e-15 0)
(3 2.72147e-15 0)
(3 3.57802e-15 0)
(2.10235 -0.656034 0)
(2.99119 -7.5095e-05 0)
(3 2.361e-18 0)
(3 9.41782e-16 0)
(3 1.79862e-15 0)
(3 1.73866e-15 0)
(3 1.64978e-15 0)
(3 1.59057e-15 0)
(3 -5.35429e-17 0)
(3 -1.38519e-15 0)
(3 -2.18095e-15 0)
(3 -1.95571e-15 0)
(3 -1.41723e-15 0)
(3 -9.44645e-16 0)
(3 8.82672e-17 0)
(3 1.17789e-15 0)
(3 1.75227e-15 0)
(3 1.97558e-15 0)
(3 2.31442e-15 0)
(3 2.54214e-15 0)
(1.94061 -0.873289 0)
(2.71551 -0.20618 0)
(3 -1.75026e-15 0)
(3 1.20766e-15 0)
(3 1.98817e-15 0)
(3 2.43893e-15 0)
(3 2.67501e-15 0)
(3 2.31476e-15 0)
(3 6.48983e-16 0)
(3 4.25984e-16 0)
(3 1.0141e-15 0)
(3 1.92851e-15 0)
(3 1.97485e-15 0)
(3 1.49577e-15 0)
(3 1.66633e-15 0)
(3 2.00802e-15 0)
(3 2.02924e-15 0)
(3 1.81762e-15 0)
(3 1.71462e-15 0)
(3 1.42704e-15 0)
(1.83081 -1.00321 0)
(2.46332 -0.433211 0)
(3 -1.64024e-15 0)
(3 3.97235e-17 0)
(3 1.01805e-15 0)
(3 1.12505e-15 0)
(3 8.62634e-16 0)
(3 7.80483e-16 0)
(3 1.40615e-15 0)
(3 1.3417e-15 0)
(3 7.2196e-16 0)
(3 1.2199e-15 0)
(3 2.19332e-15 0)
(3 3.25465e-15 0)
(3 2.86692e-15 0)
(3 2.0551e-15 0)
(3 1.55e-15 0)
(3 1.6188e-15 0)
(3 1.26349e-15 0)
(3 5.42282e-16 0)
(1.77446 -1.1053 0)
(2.23219 -0.650549 0)
(3 -2.94802e-15 0)
(3 1.1189e-15 0)
(3 2.63479e-15 0)
(3 2.81561e-15 0)
(3 3.05319e-15 0)
(3 2.46771e-15 0)
(3 1.69554e-15 0)
(3 7.67489e-16 0)
(3 -1.11929e-16 0)
(3 -4.73783e-16 0)
(3 -2.51246e-16 0)
(3 -2.56094e-16 0)
(3 -9.30866e-16 0)
(3 -1.15284e-15 0)
(3 -1.45354e-15 0)
(3 -1.65028e-15 0)
(3 -2.54492e-15 0)
(3 -2.81665e-15 0)
(1.69632 -1.16938 0)
(2.04762 -0.821442 0)
(3 -7.35627e-16 0)
(3 -8.0304e-17 0)
(3 1.43899e-15 0)
(3 2.11693e-16 0)
(3 -5.86656e-16 0)
(3 -9.58366e-16 0)
(3 -1.33542e-15 0)
(3 -1.40058e-15 0)
(3 -1.24231e-15 0)
(3 -9.96813e-16 0)
(3 -2.67095e-16 0)
(3 -1.0614e-16 0)
(3 -3.89316e-16 0)
(3 -1.09125e-15 0)
(3 -1.74893e-15 0)
(3 -1.79224e-15 0)
(3 -1.68962e-15 0)
(3 -8.00939e-16 0)
(1.66299 -1.20374 0)
(1.87612 -0.989423 0)
(2.97563 -0.0179995 0)
(3 -8.78529e-16 0)
(3 -1.33294e-16 0)
(3 -6.56273e-17 0)
(3 -3.36683e-16 0)
(3 -5.27857e-16 0)
(3 -1.43307e-15 0)
(3 -1.81901e-15 0)
(3 -1.69357e-15 0)
(3 -1.22459e-15 0)
(3 -8.33585e-16 0)
(3 -8.51044e-16 0)
(3 -1.46022e-15 0)
(3 -1.59823e-15 0)
(3 -1.24543e-15 0)
(3 -9.83748e-16 0)
(3 -4.43724e-17 0)
(3 8.10366e-16 0)
(1.65781 -1.2371 0)
(1.8321 -1.10572 0)
(2.87243 -0.0998316 0)
(3 7.91197e-14 0)
(3 -7.95242e-16 0)
(3 -8.68713e-16 0)
(3 -6.55647e-16 0)
(3 -1.21026e-15 0)
(3 -1.37177e-15 0)
(3 -1.52478e-15 0)
(3 -1.24067e-15 0)
(3 -1.02188e-15 0)
(3 -8.37003e-16 0)
(3 -1.71058e-16 0)
(3 1.23552e-16 0)
(3 1.4221e-16 0)
(3 4.07857e-16 0)
(3 1.10836e-15 0)
(3 1.71698e-15 0)
(3 2.00021e-15 0)
(1.64071 -1.2623 0)
(1.63738 -1.24539 0)
(2.65913 -0.285194 0)
(3 -1.52875e-14 0)
(3 -2.79907e-15 0)
(3 3.08502e-16 0)
(3 -4.96454e-16 0)
(3 -6.35933e-16 0)
(3 -7.5287e-16 0)
(3 -8.6584e-16 0)
(3 -8.10268e-16 0)
(3 -7.40749e-16 0)
(3 1.2594e-16 0)
(3 1.34426e-15 0)
(3 1.1662e-15 0)
(3 9.37551e-16 0)
(3 1.16341e-15 0)
(3 9.33008e-16 0)
(3 8.4783e-16 0)
(3 5.99033e-16 0)
(1.62141 -1.27953 0)
(1.56385 -1.32012 0)
(2.40947 -0.545271 0)
(3 -4.86959e-14 0)
(3 1.43269e-12 0)
(3 -1.40283e-14 0)
(3 -3.34541e-16 0)
(3 -1.82645e-16 0)
(3 -2.68492e-17 0)
(3 -5.194e-16 0)
(3 -4.9472e-17 0)
(3 6.89482e-16 0)
(3 1.44297e-15 0)
(3 2.32927e-15 0)
(3 1.5838e-15 0)
(3 1.53451e-15 0)
(3 1.78708e-16 0)
(3 4.77942e-16 0)
(3 -6.02947e-16 0)
(3 -5.76229e-16 0)
(1.60432 -1.29194 0)
(1.48141 -1.36741 0)
(2.20175 -0.79517 0)
(3.01052 0.00906488 0)
(3 -1.24624e-09 0)
(3 1.86387e-12 0)
(3 -9.72302e-16 0)
(3 -1.06719e-16 0)
(3 4.99765e-16 0)
(3 3.34844e-16 0)
(3 7.13019e-16 0)
(3 5.39777e-16 0)
(3 1.36355e-15 0)
(3 1.64799e-15 0)
(3 5.35482e-16 0)
(3 2.54997e-17 0)
(3 -1.08683e-15 0)
(3 -8.85635e-16 0)
(3 -4.7895e-16 0)
(3 -3.53079e-16 0)
(1.59012 -1.30938 0)
(1.47021 -1.36864 0)
(1.90829 -1.05119 0)
(2.83909 -0.134388 0)
(3 3.75405e-10 0)
(3 -7.05308e-12 0)
(3 4.03084e-15 0)
(3 2.02777e-15 0)
(3 7.07368e-16 0)
(3 6.91443e-16 0)
(3 -8.03932e-16 0)
(3 -1.47773e-15 0)
(3 1.41272e-16 0)
(3 8.92496e-16 0)
(3 1.86072e-17 0)
(3 -4.4197e-16 0)
(3 -1.75809e-15 0)
(3 -1.65423e-15 0)
(3 -7.10105e-16 0)
(3 8.69602e-18 0)
(1.59162 -1.32395 0)
(1.49175 -1.33386 0)
(1.76472 -1.17835 0)
(2.43631 -0.535284 0)
(3.0004 0.000277717 0)
(3 1.6384e-10 0)
(3 -6.42825e-13 0)
(3 4.34268e-13 0)
(3 -2.91435e-14 0)
(3 -1.4757e-16 0)
(3 -1.96946e-16 0)
(3 -1.78699e-15 0)
(3 -7.02765e-16 0)
(3 -6.53812e-16 0)
(3 -8.15192e-17 0)
(3 -6.10579e-16 0)
(3 -9.95649e-16 0)
(3 -1.08107e-15 0)
(3 -9.12814e-16 0)
(3 4.01794e-16 0)
(1.58123 -1.2975 0)
(1.56076 -1.29982 0)
(1.68016 -1.24209 0)
(2.19463 -0.826639 0)
(3.02231 0.0226835 0)
(3 -3.91275e-11 0)
(3 1.27673e-10 0)
(3 -7.45933e-11 0)
(3 4.17394e-12 0)
(3 -1.78874e-15 0)
(3 -1.25757e-15 0)
(3 -2.87209e-16 0)
(3 -7.4012e-16 0)
(3 -7.00367e-16 0)
(3 4.4929e-16 0)
(3 9.86514e-17 0)
(3 2.57659e-16 0)
(3 -2.80833e-16 0)
(3 1.76626e-16 0)
(3 9.78046e-16 0)
(1.58336 -1.27836 0)
(1.58108 -1.27651 0)
(1.64325 -1.26073 0)
(1.74854 -1.17825 0)
(2.67033 -0.280273 0)
(3 5.81297e-10 0)
(3 -1.49987e-08 0)
(3 1.31678e-08 0)
(3 -5.50345e-10 0)
(3 -2.36848e-12 0)
(3 1.25001e-13 0)
(3 -1.28791e-15 0)
(3 -6.45959e-16 0)
(3 -7.03386e-16 0)
(3 6.98937e-16 0)
(3 9.19497e-16 0)
(3 1.31868e-15 0)
(3 1.51912e-15 0)
(3 6.21196e-16 0)
(3 1.22587e-15 0)
(1.58556 -1.26435 0)
(1.59592 -1.25998 0)
(1.62955 -1.25906 0)
(1.72034 -1.21194 0)
(2.38712 -0.627438 0)
(3.01891 0.0179862 0)
(2.99976 -0.000162826 0)
(3 4.34405e-06 0)
(3 -8.41706e-08 0)
(3 9.38697e-10 0)
(3 -5.8818e-13 0)
(3 1.36145e-15 0)
(3 -4.1644e-16 0)
(3 -9.49279e-16 0)
(3 2.14044e-15 0)
(3 2.29456e-15 0)
(3 1.89095e-15 0)
(3 2.11567e-15 0)
(3 6.71202e-16 0)
(3 5.45813e-16 0)
(1.58585 -1.25442 0)
(1.60476 -1.25508 0)
(1.62218 -1.25351 0)
(1.64908 -1.26424 0)
(1.85467 -1.09742 0)
(2.7551 -0.212982 0)
(3.00476 0.00144999 0)
(2.99991 -8.08206e-05 0)
(3 1.00602e-06 0)
(3 -9.34881e-10 0)
(3 5.7225e-14 0)
(3 2.8897e-15 0)
(3 -1.05532e-16 0)
(3 -3.09929e-16 0)
(3 3.42477e-15 0)
(3 2.23022e-15 0)
(3 1.0712e-15 0)
(3 1.61901e-15 0)
(3 5.7254e-16 0)
(3 5.19666e-16 0)
(1.58301 -1.24972 0)
(1.60177 -1.25385 0)
(1.61117 -1.2562 0)
(1.60827 -1.27901 0)
(1.71369 -1.21594 0)
(2.27001 -0.778161 0)
(3.00117 0.00523153 0)
(3.00027 0.000653508 0)
(3 -8.89041e-07 0)
(3 -5.71841e-11 0)
(3 -4.83353e-13 0)
(3 2.35771e-15 0)
(3 8.77885e-16 0)
(3 8.68757e-16 0)
(3 2.50388e-15 0)
(3 1.86945e-15 0)
(3 6.71919e-16 0)
(3 1.46375e-15 0)
(3 2.99007e-16 0)
(3 7.70869e-17 0)
(1.58071 -1.24592 0)
(1.59219 -1.25552 0)
(1.60011 -1.2653 0)
(1.60412 -1.27188 0)
(1.65574 -1.25658 0)
(1.67298 -1.25458 0)
(2.25187 -0.748626 0)
(2.99357 -0.0195398 0)
(3 -5.10072e-08 0)
(3 -9.04289e-11 0)
(3 1.01727e-12 0)
(3 1.43279e-15 0)
(3 1.55871e-15 0)
(3 1.11172e-15 0)
(3 8.25306e-16 0)
(3 1.62855e-15 0)
(3 8.91504e-16 0)
(3 1.05524e-15 0)
(3 2.20831e-16 0)
(3 9.25674e-19 0)
(1.57967 -1.25731 0)
(1.58484 -1.26393 0)
(1.59098 -1.26882 0)
(1.59705 -1.26084 0)
(1.60731 -1.24383 0)
(1.58886 -1.26763 0)
(1.90126 -1.16072 0)
(2.94009 -0.395473 0)
(3.35022 0.595807 0)
(3 1.99486e-11 0)
(3 -8.37397e-11 0)
(3 1.17616e-13 0)
(3 3.84886e-14 0)
(3 5.78173e-14 0)
(3 -1.11801e-14 0)
(3 8.09737e-15 0)
(3 1.17668e-15 0)
(3 2.25448e-15 0)
(3 -1.08472e-16 0)
(3 9.7383e-16 0)
(1.16613 -0.768805 0)
(1.83367 -1.14865 0)
(1.83876 -1.15647 0)
(1.73661 -1.19607 0)
(1.71374 -1.19591 0)
(1.66324 -1.24198 0)
(1.6564 -1.21398 0)
(1.72446 -1.16735 0)
(1.75837 -1.22987 0)
(1.79332 -1.1396 0)
(2.2729 -0.736288 0)
(2.86102 -0.205398 0)
(3.09874 0.0297526 0)
(3.02102 0.0126659 0)
(3.00453 0.00548026 0)
(3.00182 0.00300474 0)
(3.00006 0.00059419 0)
(2.99998 2.33746e-05 0)
(2.99999 -1.41829e-05 0)
(3 -5.87552e-06 0)
(0.996483 -0.0449231 0)
(1.92336 -0.78745 0)
(2.1152 -0.822056 0)
(1.99734 -0.966848 0)
(1.96053 -0.98757 0)
(1.87134 -1.08307 0)
(1.79512 -1.13342 0)
(1.76222 -1.14765 0)
(1.7605 -1.16409 0)
(1.73957 -1.20313 0)
(1.71934 -1.19602 0)
(1.85987 -1.07106 0)
(2.09288 -0.888094 0)
(2.50003 -0.580592 0)
(2.98743 -0.137065 0)
(3.07373 0.0290345 0)
(3.00798 0.00759819 0)
(3.00285 0.00378516 0)
(3.0012 0.0021688 0)
(3.00008 0.000481722 0)
(1.16573 0.0987492 0)
(1.88926 0.288103 0)
(2.2347 -0.374698 0)
(2.24576 -0.551443 0)
(2.20145 -0.664538 0)
(2.13986 -0.777529 0)
(2.03567 -0.911987 0)
(1.97254 -0.963666 0)
(1.91643 -1.03109 0)
(1.85787 -1.12144 0)
(1.79183 -1.15877 0)
(1.79052 -1.15215 0)
(1.80887 -1.13172 0)
(1.85172 -1.08907 0)
(2.04092 -0.954365 0)
(2.25814 -0.833167 0)
(2.6669 -0.50407 0)
(3.03827 -0.0900742 0)
(3.05485 0.024177 0)
(3.00394 0.00463617 0)
(1.13031 0.445243 0)
(2.08862 0.231248 0)
(2.05388 0.972449 0)
(2.28178 0.105954 0)
(2.3628 -0.199487 0)
(2.33176 -0.403656 0)
(2.29429 -0.531257 0)
(2.19933 -0.700267 0)
(2.14119 -0.783731 0)
(2.09195 -0.908372 0)
(1.9762 -1.01419 0)
(1.91179 -1.07107 0)
(1.87747 -1.09043 0)
(1.86709 -1.09544 0)
(1.87256 -1.05731 0)
(1.89903 -1.04789 0)
(1.96418 -1.01948 0)
(2.16771 -0.898868 0)
(2.38457 -0.787503 0)
(2.77958 -0.438957 0)
(0.796706 0.619695 0)
(1.50543 1.46527 0)
(2.12735 1.38418 0)
(2.18622 0.917998 0)
(2.31864 0.705001 0)
(2.41766 0.145976 0)
(2.42274 -0.190079 0)
(2.38054 -0.380396 0)
(2.32657 -0.497506 0)
(2.30086 -0.634592 0)
(2.1977 -0.782894 0)
(2.12268 -0.875785 0)
(2.07079 -0.921435 0)
(2.02237 -0.965773 0)
(1.99399 -0.961056 0)
(1.96113 -0.979836 0)
(1.95553 -1.01072 0)
(1.96931 -0.996124 0)
(1.99291 -0.99667 0)
(2.06932 -0.979776 0)
(0.723677 0.839126 0)
(1.29164 1.24133 0)
(2.42686 1.22664 0)
(2.32983 1.27024 0)
(2.33093 1.08161 0)
(2.39856 0.844873 0)
(2.45059 0.434652 0)
(2.46632 0.217389 0)
(2.43984 -0.0101098 0)
(2.44921 -0.155523 0)
(2.40476 -0.342441 0)
(2.34448 -0.495252 0)
(2.30003 -0.599821 0)
(2.23422 -0.706956 0)
(2.17972 -0.775129 0)
(2.12716 -0.821845 0)
(2.06476 -0.893225 0)
(2.04564 -0.916863 0)
(2.03463 -0.937777 0)
(2.06204 -0.95214 0)
(0.959876 0.912716 0)
(1.24851 1.10707 0)
(1.85675 1.2827 0)
(2.29209 1.78288 0)
(2.57906 1.12029 0)
(2.44911 1.16989 0)
(2.49363 0.874432 0)
(2.52318 0.545092 0)
(2.51864 0.401444 0)
(2.53294 0.184226 0)
(2.54757 -0.0240744 0)
(2.49185 -0.259946 0)
(2.46556 -0.405762 0)
(2.39251 -0.558042 0)
(2.33642 -0.64379 0)
(2.28861 -0.67509 0)
(2.23119 -0.720283 0)
(2.22818 -0.695787 0)
(2.18957 -0.738018 0)
(2.14531 -0.771577 0)
(1.11126 0.977177 0)
(1.27264 1.06272 0)
(1.67951 1.40555 0)
(1.71118 1.89523 0)
(2.35944 1.35536 0)
(2.57749 1.36585 0)
(2.74501 1.04247 0)
(2.74 0.568317 0)
(2.71049 0.45335 0)
(2.66572 0.184764 0)
(2.65977 0.0364988 0)
(2.60945 -0.14321 0)
(2.58639 -0.228919 0)
(2.53942 -0.329313 0)
(2.49689 -0.373729 0)
(2.4597 -0.378608 0)
(2.42987 -0.381566 0)
(2.39451 -0.430201 0)
(2.3146 -0.561672 0)
(2.30274 -0.556731 0)
(1.23791 1.09095 0)
(1.32625 1.14769 0)
(1.54936 1.51987 0)
(1.63978 1.84123 0)
(1.85267 1.66066 0)
(2.18001 1.50908 0)
(2.41648 1.35739 0)
(2.59186 0.947133 0)
(2.68952 0.661887 0)
(2.67851 0.620115 0)
(2.67433 0.459129 0)
(2.66471 0.326304 0)
(2.63994 0.21479 0)
(2.63632 0.138219 0)
(2.5918 0.0155628 0)
(2.58278 -0.0390116 0)
(2.54705 -0.166079 0)
(2.49847 -0.306216 0)
(2.43164 -0.411084 0)
(2.45001 -0.352838 0)
(1.37173 1.30109 0)
(1.37567 1.37108 0)
(1.45887 1.65735 0)
(1.59448 1.82887 0)
(1.81382 1.73955 0)
(2.04065 1.5637 0)
(2.21212 1.56725 0)
(2.39124 1.39537 0)
(2.45213 1.22378 0)
(2.4724 1.1434 0)
(2.53093 0.937529 0)
(2.58327 0.771792 0)
(2.60614 0.565307 0)
(2.6806 0.452382 0)
(2.65023 0.207272 0)
(2.66617 0.0729456 0)
(2.62788 -0.135426 0)
(2.58933 -0.181714 0)
(2.53564 -0.199456 0)
(2.57682 -0.0755077 0)
(1.55055 1.53589 0)
(1.50668 1.67405 0)
(1.46998 1.90809 0)
(1.60259 1.97626 0)
(1.83359 1.89401 0)
(1.97496 1.67647 0)
(2.04811 1.72352 0)
(2.20852 1.55474 0)
(2.30553 1.4111 0)
(2.40758 1.30089 0)
(2.52993 1.07223 0)
(2.62552 0.877841 0)
(2.66873 0.626467 0)
(2.74573 0.484866 0)
(2.72259 0.238796 0)
(2.71649 0.16671 0)
(2.70222 0.0663262 0)
(2.67486 0.142277 0)
(2.65226 0.17014 0)
(2.61851 0.060994 0)
(1.73919 1.67623 0)
(1.74744 1.85274 0)
(1.63146 2.18227 0)
(1.67944 2.18016 0)
(1.87635 1.95603 0)
(2.02847 1.73526 0)
(2.06011 1.79412 0)
(2.24332 1.62086 0)
(2.41872 1.48665 0)
(2.55679 1.26993 0)
(2.64871 1.05989 0)
(2.71146 0.844046 0)
(2.72951 0.747149 0)
(2.75927 0.653501 0)
(2.77259 0.572811 0)
(2.75319 0.536686 0)
(2.72688 0.465222 0)
(2.73022 0.515935 0)
(2.7077 0.408217 0)
(2.67524 0.206684 0)
(1.75115 1.66141 0)
(1.94947 1.82249 0)
(1.80528 2.27439 0)
(1.80358 2.27371 0)
(1.98904 2.07816 0)
(2.17863 1.82561 0)
(2.25744 1.88921 0)
(2.45466 1.68673 0)
(2.5625 1.63387 0)
(2.65424 1.40154 0)
(2.70116 1.4177 0)
(2.74693 1.20134 0)
(2.70691 1.17593 0)
(2.70481 1.08324 0)
(2.70608 0.975517 0)
(2.69898 0.876844 0)
(2.707 0.801495 0)
(2.7712 0.733327 0)
(2.76193 0.524929 0)
(2.75218 0.326816 0)
(1.66121 1.57915 0)
(2.0464 1.73489 0)
(1.95182 2.27986 0)
(1.97129 2.39345 0)
(2.17058 2.28191 0)
(2.3003 2.11098 0)
(2.34627 1.98979 0)
(2.38414 1.8564 0)
(2.43135 1.79876 0)
(2.55511 1.64607 0)