/*--------------------------------*- C++ -*----------------------------------*\
  =========                 |
  \\      /  F ield         | OpenFOAM: The Open Source CFD Toolbox
   \\    /   O peration     | Website:  https://openfoam.org
    \\  /    A nd           | Version:  7
     \\/     M anipulation  |
\*---------------------------------------------------------------------------*/
FoamFile
{
    version     2.0;
    format      ascii;
    class       volScalarField;
    location    "4.9";
    object      rho;
}
// * * * * * * * * * * * * * * * * * * * * * * * * * * * * * * * * * * * * * //

dimensions      [1 -3 0 0 0 0 0];

internalField   nonuniform List<scalar> 
3700
(
0.12031
0.237304
0.313717
0.380703
0.449992
0.520706
0.539738
0.556829
0.586953
0.597873
0.6372
0.661386
0.645398
0.65229
0.686978
0.69424
0.702906
0.705739
0.693282
0.668858
0.0817646
0.111069
0.148716
0.175259
0.190152
0.183279
0.16291
0.128871
0.132419
0.160023
0.209858
0.231724
0.230766
0.243025
0.271128
0.300138
0.32159
0.309932
0.282155
0.237559
0.0861955
0.107199
0.118971
0.111148
0.088668
0.070317
0.0653696
0.0670433
0.0727537
0.0813971
0.0938133
0.105109
0.118724
0.135788
0.150814
0.161258
0.167677
0.169843
0.169148
0.171209
0.102311
0.112089
0.105281
0.0943842
0.0793346
0.0767974
0.0763261
0.079982
0.0860513
0.0992406
0.104863
0.115472
0.129733
0.149954
0.172397
0.197018
0.221759
0.238475
0.247487
0.247232
0.110307
0.103584
0.0954623
0.0861385
0.081148
0.0864118
0.0974822
0.11445
0.131662
0.152842
0.145138
0.151761
0.150786
0.157903
0.177508
0.208562
0.243654
0.279247
0.312408
0.338282
0.113523
0.0952308
0.0848602
0.0771582
0.0763131
0.0853617
0.101328
0.126582
0.160724
0.184958
0.204496
0.224503
0.224022
0.229273
0.227842
0.234384
0.258929
0.311289
0.364414
0.445107
0.122595
0.0841836
0.068241
0.0673827
0.0730192
0.0802077
0.0948702
0.122809
0.167035
0.206476
0.246141
0.271284
0.302956
0.33132
0.343962
0.351354
0.363866
0.384877
0.429902
0.555242
0.129541
0.0714886
0.0610364
0.064738
0.0737593
0.0827066
0.0949245
0.119562
0.15907
0.207558
0.264507
0.304727
0.362938
0.411079
0.457601
0.501632
0.538632
0.571287
0.605508
0.741527
0.125536
0.0636376
0.0602391
0.0751893
0.0918804
0.110478
0.130398
0.160974
0.187556
0.217388
0.267874
0.325998
0.407955
0.48072
0.555851
0.639397
0.7174
0.795798
0.846278
1.01723
0.120899
0.0591981
0.0591819
0.0852206
0.105662
0.146486
0.19644
0.248434
0.294485
0.341963
0.381719
0.436989
0.506592
0.590143
0.676962
0.787615
0.918678
1.04717
1.17223
1.34068
0.107296
0.0523455
0.0544624
0.0770763
0.0993837
0.158824
0.237263
0.309056
0.396353
0.504751
0.592347
0.682052
0.77104
0.863576
0.940577
1.03958
1.1825
1.34428
1.62946
1.60584
0.0823204
0.043626
0.043351
0.0597838
0.0899543
0.154476
0.242927
0.326847
0.452427
0.626123
0.775033
0.920051
1.06966
1.20134
1.33589
1.4865
1.64761
1.82046
2.14056
2.10678
0.0584316
0.0353141
0.0337482
0.051451
0.0883679
0.152461
0.235002
0.347051
0.544753
0.775105
1.0018
1.21156
1.42697
1.61451
1.84584
2.09009
2.32777
2.55043
2.90297
2.8845
0.0419526
0.0294422
0.0290249
0.0470526
0.106465
0.280767
0.462216
0.701408
1.02119
1.32182
1.58966
1.81808
2.04896
2.27625
2.58062
2.91906
3.25735
3.60023
3.88253
4.17653
0.0307534
0.0257874
0.0271258
0.0690323
0.273638
0.607881
0.927491
1.30083
1.73806
2.1521
2.47209
2.76761
3.06161
3.37217
3.7731
4.16294
4.54633
4.87593
5.07595
5.24882
0.0184641
0.025245
0.0574489
0.234265
0.608919
1.02233
1.5068
2.06431
2.67119
3.20041
3.59828
3.98585
4.3658
4.77246
5.21518
5.51631
5.69726
5.75204
5.62204
5.444
0.0121608
0.0375849
0.222168
0.575897
1.20947
1.97064
2.72416
3.50476
4.33598
4.8921
5.24518
5.57943
5.8657
6.07541
6.19944
6.09777
5.80183
5.07107
3.89138
2.64342
0.035789
0.201251
0.694693
1.62575
2.8793
4.01673
4.95183
5.89411
6.57684
6.70779
6.60506
6.60253
6.54274
6.30418
5.58559
4.25213
2.90706
1.861
1.42566
1.39007
0.438514
1.22421
2.76832
4.4471
5.88154
6.72604
7.47292
8.12442
7.93227
7.32242
6.73501
5.9942
4.71855
3.23983
1.99136
1.441
1.38525
1.39295
1.39628
1.39922
3.22212
5.05039
6.79748
7.91175
8.66683
8.87298
9.06107
8.65691
6.31518
4.46257
3.29378
2.1695
1.50479
1.38191
1.38991
1.39474
1.39883
1.39997
1.40003
1.40002
9.6551
9.59379
9.55966
9.58868
9.70241
9.34775
8.36888
3.4048
0.872343
1.40001
1.40001
1.40001
1.40001
1.40001
1.40001
1.40001
1.40001
1.40001
1.40001
1.40001
9.63822
9.56266
9.48334
9.38623
9.44299
8.03621
3.71983
1.44328
1.40001
1.40001
1.40001
1.40001
1.40001
1.40001
1.40001
1.40001
1.40001
1.40001
1.40001
1.40001
9.43454
9.49919
9.48227
9.31554
8.7795
4.57415
1.4198
1.39966
1.40001
1.40001
1.40001
1.40001
1.40001
1.40001
1.40001
1.40001
1.40001
1.40001
1.40001
1.40001
9.27919
9.46046
9.46003
9.14604
6.472
1.94508
1.39353
1.40013
1.4
1.40001
1.40001
1.40001
1.40001
1.40001
1.40001
1.40001
1.40001
1.40001
1.40001
1.40001
9.10064
9.46296
9.43741
8.35083
3.83268
1.36501
1.40048
1.4
1.40001
1.40001
1.40001
1.40001
1.40001
1.40001
1.40001
1.40001
1.40001
1.40001
1.40001
1.40001
8.93001
9.4492
9.43772
6.9425
2.06363
1.40001
1.40001
1.40001
1.40001
1.40001
1.40001
1.40001
1.40001
1.40001
1.40001
1.40001
1.40001
1.40001
1.40001
1.40001
8.8245
9.26609
9.32768
4.92621
1.36246
1.40001
1.40001
1.40001
1.40001
1.40001
1.40001
1.40001
1.40001
1.40001
1.40001
1.40001
1.40001
1.40001
1.40001
1.40001
8.98245
9.17462
8.33275
2.86659
1.39999
1.40001
1.40001
1.40001
1.40001
1.40001
1.40001
1.40001
1.40001
1.40001
1.40001
1.40001
1.40001
1.40001
1.40001
1.40001
9.69011
9.27485
6.76715
1.64677
1.40001
1.40001
1.40001
1.40001
1.40001
1.40001
1.40001
1.40001
1.40001
1.40001
1.40001
1.40001
1.40001
1.40001
1.40001
1.40001
10.0321
8.84532
4.77237
1.3835
1.40001
1.40001
1.40001
1.40001
1.40001
1.40001
1.40001
1.40001
1.40001
1.40001
1.40001
1.40001
1.40001
1.40001
1.40001
1.40001
10.2383
8.24277
3.26592
1.40001
1.40001
1.40001
1.40001
1.40001
1.40001
1.40001
1.40001
1.40001
1.40001
1.40001
1.40001
1.40001
1.40001
1.40001
1.40001
1.40001
10.3689
7.54332
2.25892
1.40001
1.40001
1.40001
1.40001
1.40001
1.40001
1.40001
1.40001
1.40001
1.40001
1.40001
1.40001
1.40001
1.40001
1.40001
1.40001
1.40001
10.4292
6.63368
1.65768
1.40001
1.40001
1.40001
1.40001
1.40001
1.40001
1.40001
1.40001
1.40001
1.40001
1.40001
1.40001
1.40001
1.40001
1.40001
1.40001
1.40001
10.2787
5.57545
1.41968
1.40001
1.40001
1.40001
1.40001
1.40001
1.40001
1.40001
1.40001
1.40001
1.40001
1.40001
1.40001
1.40001
1.40001
1.40001
1.40001
1.40001
10.0479
4.39207
1.40001
1.40001
1.40001
1.40001
1.40001
1.40001
1.40001
1.40001
1.40001
1.40001
1.40001
1.40001
1.40001
1.40001
1.40001
1.40001
1.40001
1.40001
9.54355
3.48132
1.40001
1.40001
1.40001
1.40001
1.40001
1.40001
1.40001
1.40001
1.40001
1.40001
1.40001
1.40001
1.40001
1.40001
1.40001
1.40001
1.40001
1.40001
9.25559
2.6767
1.40001
1.40001
1.40001
1.40001
1.40001
1.40001
1.40001
1.40001
1.40001
1.40001
1.40001
1.40001
1.40001
1.40001
1.40001
1.40001
1.40001
1.40001
8.81358
1.90877
1.40001
1.40001
1.40001
1.40001
1.40001
1.40001
1.40001
1.40001
1.40001
1.40001
1.40001
1.40001
1.40001
1.40001
1.40001
1.40001
1.40001
1.40001
7.84776
1.40768
1.40001
1.40001
1.40001
1.40001
1.40001
1.40001
1.40001
1.40001
1.40001
1.40001
1.40001
1.40001
1.40001
1.40001
1.40001
1.40001
1.40001
1.40001
6.4712
1.40008
1.40001
1.40001
1.40001
1.40001
1.40001
1.40001
1.40001
1.40001
1.40001
1.40001
1.40001
1.40001
1.40001
1.40001
1.40001
1.40001
1.40001
1.40001
6.45901
1.40008
1.40001
1.40001
1.40001
1.40001
1.40001
1.40001
1.40001
1.40001
1.40001
1.40001
1.40001
1.40001
1.40001
1.40001
1.40001
1.40001
1.40001
1.40001
7.85415
1.40797
1.40001
1.40001
1.40001
1.40001
1.40001
1.40001
1.40001
1.40001
1.40001
1.40001
1.40001
1.40001
1.40001
1.40001
1.40001
1.40001
1.40001
1.40001
8.82543
1.91933
1.40001
1.40001
1.40001
1.40001
1.40001
1.40001
1.40001
1.40001
1.40001
1.40001
1.40001
1.40001
1.40001
1.40001
1.40001
1.40001
1.40001
1.40001
9.23709
2.69236
1.40001
1.40001
1.40001
1.40001
1.40001
1.40001
1.40001
1.40001
1.40001
1.40001
1.40001
1.40001
1.40001
1.40001
1.40001
1.40001
1.40001
1.40001
9.53269
3.48346
1.40001
1.40001
1.40001
1.40001
1.40001
1.40001
1.40001
1.40001
1.40001
1.40001
1.40001
1.40001
1.40001
1.40001
1.40001
1.40001
1.40001
1.40001
10.0503
4.38609
1.40001
1.40001
1.40001
1.40001
1.40001
1.40001
1.40001
1.40001
1.40001
1.40001
1.40001
1.40001
1.40001
1.40001
1.40001
1.40001
1.40001
1.40001
10.2682
5.57114
1.4192
1.40001
1.40001
1.40001
1.40001
1.40001
1.40001
1.40001
1.40001
1.40001
1.40001
1.40001
1.40001
1.40001
1.40001
1.40001
1.40001
1.40001
10.4245
6.61579
1.65607
1.40001
1.40001
1.40001
1.40001
1.40001
1.40001
1.40001
1.40001
1.40001
1.40001
1.40001
1.40001
1.40001
1.40001
1.40001
1.40001
1.40001
10.3647
7.55083
2.25549
1.40001
1.40001
1.40001
1.40001
1.40001
1.40001
1.40001
1.40001
1.40001
1.40001
1.40001
1.40001
1.40001
1.40001
1.40001
1.40001
1.40001
10.2441
8.25351
3.27244
1.40001
1.40001
1.40001
1.40001
1.40001
1.40001
1.40001
1.40001
1.40001
1.40001
1.40001
1.40001
1.40001
1.40001
1.40001
1.40001
1.40001
10.0376
8.84217
4.78518
1.3835
1.40001
1.40001
1.40001
1.40001
1.40001
1.40001
1.40001
1.40001
1.40001
1.40001
1.40001
1.40001
1.40001
1.40001
1.40001
1.40001
9.69386
9.27734
6.76805
1.64206
1.40001
1.40001
1.40001
1.40001
1.40001
1.40001
1.40001
1.40001
1.40001
1.40001
1.40001
1.40001
1.40001
1.40001
1.40001
1.40001
8.98737
9.17246
8.33213
2.86452
1.39998
1.40001
1.40001
1.40001
1.40001
1.40001
1.40001
1.40001
1.40001
1.40001
1.40001
1.40001
1.40001
1.40001
1.40001
1.40001
8.82074
9.26605
9.3218
4.91391
1.36258
1.40001
1.40001
1.40001
1.40001
1.40001
1.40001
1.40001
1.40001
1.40001
1.40001
1.40001
1.40001
1.40001
1.40001
1.40001
8.92444
9.44808
9.44493
6.96638
2.05945
1.40001
1.40001
1.40001
1.40001
1.40001
1.40001
1.40001
1.40001
1.40001
1.40001
1.40001
1.40001
1.40001
1.40001
1.40001
9.09312
9.46476
9.43869
8.34357
3.85792
1.36467
1.40048
1.4
1.40001
1.40001
1.40001
1.40001
1.40001
1.40001
1.40001
1.40001
1.40001
1.40001
1.40001
1.40001
9.2758
9.45833
9.457
9.12855
6.47997
1.94507
1.3937
1.40012
1.4
1.40001
1.40001
1.40001
1.40001
1.40001
1.40001
1.40001
1.40001
1.40001
1.40001
1.40001
9.4332
9.49767
9.47785
9.31662
8.79992
4.57314
1.4193
1.39967
1.40001
1.40001
1.40001
1.40001
1.40001
1.40001
1.40001
1.40001
1.40001
1.40001
1.40001
1.40001
9.63667
9.56333
9.48398
9.39207
9.43726
8.03029
3.71157
1.44247
1.40001
1.40001
1.40001
1.40001
1.40001
1.40001
1.40001
1.40001
1.40001
1.40001
1.40001
1.40001
9.65442
9.59629
9.56421
9.57959
9.68721
9.34644
8.37064
3.41281
0.869958
1.40001
1.40001
1.40001
1.40001
1.40001
1.40001
1.40001
1.40001
1.40001
1.40001
1.40001
3.22195
5.04852
6.82171
7.93611
8.65972
8.8613
9.05752
8.65991
6.3205
4.46611
3.29691
2.17159
1.50533
1.38192
1.3899
1.39474
1.39883
1.39997
1.40003
1.40002
0.436492
1.20223
2.68775
4.38557
5.8831
6.75369
7.49376
8.12889
7.93334
7.32027
6.73288
5.99483
4.72179
3.24317
1.993
1.44133
1.38528
1.39298
1.39629
1.39923
0.0445092
0.238344
0.766976
1.64452
2.83434
3.98381
4.94946
5.90848
6.58511
6.70488
6.60349
6.60266
6.54167
6.30119
5.5833
4.25058
2.90526
1.85942
1.42524
1.3901
0.00863995
0.0379133
0.216641
0.586603
1.22238
1.96768
2.71804
3.50195
4.33607
4.89353
5.24553
5.58135
5.86713
6.0748
6.19636
6.09413
5.79797
5.06609
3.88717
2.64106
0.0134787
0.0220971
0.0480653
0.260584
0.626055
1.0144
1.4856
2.04075
2.65007
3.18074
3.58385
3.97447
4.35629
4.76509
5.20782
5.50826
5.69245
5.75296
5.62348
5.44642
0.0268426
0.0206468
0.0217227
0.0886501
0.298062
0.624763
0.937916
1.3052
1.73795
2.15283
2.46966
2.76545
3.05985
3.37202
3.77304
4.16305
4.54698
4.87916
5.0803
5.25225
0.0330614
0.0233973
0.0246872
0.0468494
0.119094
0.312592
0.495792
0.734938
1.05113
1.3496
1.61281
1.83678
2.0622
2.28382
2.58162
2.91725
3.2557
3.60044
3.88437
4.17883
0.0440681
0.0308754
0.0328978
0.0500577
0.0902991
0.151991
0.231408
0.341272
0.54306
0.772112
1.00255
1.2123
1.42709
1.61377
1.84572
2.09074
2.33008
2.55256
2.90335
2.88485
0.0647993
0.0418774
0.0422536
0.0544763
0.0902017
0.142684
0.229816
0.311043
0.434708
0.610807
0.764581
0.913975
1.06794
1.20069
1.33881
1.49123
1.65071
1.82142
2.13814
2.10224
0.0883476
0.0517031
0.0533453
0.0659496
0.0953581
0.148088
0.230784
0.300435
0.389803
0.502844
0.593613
0.68497
0.776018
0.869001
0.945244
1.04238
1.17926
1.33715
1.62414
1.60511
0.108692
0.0589608
0.0587804
0.079143
0.100389
0.141481
0.199457
0.250937
0.299688
0.351686
0.393625
0.447469
0.510516
0.589766
0.672857
0.780543
0.912162
1.04197
1.17003
1.34105
0.12201
0.0634557
0.0604553
0.0737305
0.0901604
0.111461
0.139067
0.17082
0.198347
0.221754
0.261708
0.316709
0.398618
0.473021
0.549299
0.634297
0.71465
0.796139
0.847668
1.01649
0.131411
0.0701641
0.0616317
0.0653299
0.0726279
0.0822703
0.0968776
0.122535
0.156805
0.200266
0.255676
0.296835
0.357791
0.408105
0.456507
0.503113
0.541975
0.577198
0.611
0.74286
0.136334
0.0840832
0.0688929
0.0669592
0.069463
0.0801634
0.0950682
0.123825
0.162348
0.200081
0.241918
0.269312
0.304114
0.334695
0.351057
0.360232
0.373275
0.392222
0.432451
0.553395
0.126839
0.0949087
0.0847384
0.0752185
0.073484
0.0868933
0.100753
0.127341
0.15711
0.183246
0.206514
0.228318
0.231126
0.237523
0.234581
0.239222
0.259313
0.307718
0.360631
0.443394
0.113073
0.101542
0.0939645
0.0843759
0.0810894
0.0907687
0.0984711
0.116053
0.132695
0.156276
0.150811
0.15856
0.154972
0.159552
0.176486
0.20645
0.24055
0.275884
0.309306
0.338718
0.108632
0.109921
0.100182
0.0880444
0.0805277
0.0825104
0.0794449
0.0830859
0.0906203
0.104255
0.107415
0.116256
0.129404
0.148874
0.170806
0.195031
0.219422
0.236131
0.247415
0.248282
0.0992602
0.108114
0.111585
0.103209
0.0861768
0.072999
0.0682976
0.0700351
0.0735419
0.0802609
0.0915004
0.103108
0.117154
0.134308
0.149466
0.160399
0.167079
0.169321
0.169702
0.170123
0.0939651
0.115007
0.147471
0.184088
0.194899
0.202721
0.215067
0.235613
0.240438
0.218918
0.188559
0.194503
0.222276
0.262632
0.287455
0.281211
0.279912
0.287705
0.303321
0.326489
0.140561
0.257163
0.307478
0.397007
0.45794
0.535838
0.575171
0.619753
0.643055
0.630036
0.627683
0.644433
0.65056
0.668492
0.690186
0.684182
0.697398
0.73359
0.739203
0.752393
0.780023
0.890876
0.956823
1.09206
1.17094
1.21655
1.20941
1.18155
1.17861
1.2144
1.29813
1.35494
1.35247
1.31193
1.28017
1.29004
1.32903
1.35809
1.35513
1.33047
0.375648
0.593713
0.759564
0.919447
1.07399
1.19793
1.21236
1.2027
1.1996
1.22209
1.27561
1.32736
1.33508
1.32352
1.30004
1.29742
1.31268
1.33763
1.33894
1.33029
0.189155
0.232131
0.335799
0.467548
0.699799
0.977691
1.10515
1.20015
1.23052
1.23628
1.26154
1.29101
1.31424
1.3237
1.32685
1.32151
1.32164
1.32264
1.32414
1.32781
0.259447
0.307577
0.314995
0.324439
0.34304
0.450037
0.73971
1.04789
1.15943
1.23911
1.26298
1.26006
1.2799
1.31939
1.34018
1.34304
1.33459
1.32022
1.31975
1.33087
0.332024
0.365484
0.389956
0.393949
0.394034
0.399572
0.430314
0.585448
0.911743
1.15212
1.20478
1.22649
1.25494
1.3091
1.34928
1.35516
1.34519
1.32114
1.32059
1.33634
0.437994
0.454791
0.479046
0.454675
0.430151
0.430683
0.454153
0.472084
0.543244
0.752523
1.01251
1.14895
1.18837
1.27044
1.33919
1.35373
1.34787
1.32361
1.32663
1.34523
0.554688
0.577865
0.565818
0.511304
0.492276
0.49601
0.507186
0.5287
0.534477
0.542598
0.647082
0.923806
1.11611
1.21531
1.32168
1.35089
1.34248
1.32283
1.33089
1.34757
0.713201
0.704814
0.685886
0.627854
0.555619
0.542541
0.558376
0.566969
0.573824
0.572395
0.563266
0.620994
0.887065
1.13528
1.25347
1.31974
1.30274
1.30517
1.33759
1.34785
0.928133
0.862496
0.807866
0.734192
0.632702
0.611791
0.615514
0.611621
0.612721
0.609522
0.599383
0.588344
0.633387
0.87882
1.12863
1.27798
1.25027
1.28528
1.34812
1.34401
1.20057
1.05022
0.966567
0.882476
0.764021
0.692685
0.672991
0.650707
0.649709
0.652039
0.63602
0.626056
0.614623
0.640007
0.843279
1.14337
1.20877
1.30066
1.35619
1.33886
1.79174
1.28319
1.05751
1.03129
0.975723
0.885878
0.766485
0.721314
0.720236
0.717596
0.706854
0.695992
0.678766
0.655192
0.663589
0.78212
1.04902
1.23871
1.30839
1.3261
2.85106
2.10926
1.4969
1.30493
1.24327
1.17449
1.02935
0.872772
0.820832
0.78956
0.76492
0.761934
0.746117
0.721473
0.68644
0.687171
0.743473
0.89338
1.09395
1.26434
3.47554
3.04275
2.4095
1.83642
1.48559
1.34179
1.21664
1.04741
0.971574
0.943347
0.908496
0.866042
0.834382
0.804368
0.773872
0.738546
0.740741
0.74775
0.800327
1.0394
3.29574
3.27082
3.12357
2.69792
2.16508
1.72549
1.52015
1.3622
1.22952
1.14778
1.08302
0.993782
0.912239
0.861943
0.840976
0.825227
0.793386
0.76927
0.765304
0.818002
2.35301
2.9935
3.09347
3.04797
2.87356
2.46962
2.06415
1.76493
1.49367
1.3209
1.21496
1.11927
1.04668
0.978064
0.97052
0.959601
0.92071
0.864975
0.80733
0.812259
1.55078
2.01176
2.57658
2.94602
2.94543
2.89463
2.69448
2.36514
1.99957
1.70723
1.50209
1.36957
1.29247
1.18354
1.10449
1.04614
0.979408
0.913408
0.876271
0.847001
1.40624
1.4623
1.6855
2.16547
2.59895
2.81883
2.81127
2.75024
2.56588
2.26245
1.94754
1.69573
1.51995
1.36992
1.22379
1.14408
1.08834
1.03054
1.01653
0.978397
1.40013
1.40157
1.41478
1.50801
1.77687
2.19467
2.55315
2.70346
2.69237
2.63185
2.46752
2.20916
1.92285
1.71727
1.51962
1.39054
1.31911
1.24079
1.16033
1.05826
1.40001
1.40002
1.40022
1.40337
1.42681
1.54098
1.80392
2.17715
2.46817
2.59433
2.58636
2.53813
2.39278
2.17322
1.93799
1.7017
1.53416
1.40623
1.29395
1.16053
1.40001
1.40001
1.40001
1.40004
1.40047
1.40554
1.43374
1.55111
1.80024
2.12828
2.38052
2.49868
2.49196
2.45285
2.34646
2.15132
1.92692
1.71893
1.574
1.39685
1.40001
1.40001
1.40001
1.40001
1.40001
1.40007
1.40068
1.40651
1.43768
1.5472
1.76783
2.06579
2.28823
2.41131
2.4081
2.38073
2.29648
2.1337
1.95027
1.67167
1.40001
1.40001
1.40001
1.40001
1.40001
1.40001
1.40001
1.40009
1.40084
1.40668
1.43525
1.53223
1.72601
1.99225
2.2005
2.32826
2.32662
2.30959
2.25829
2.0451
1.40001
1.40001
1.40001
1.40001
1.40001
1.40001
1.40001
1.40001
1.40001
1.40009
1.40083
1.40581
1.43134
1.51098
1.67594
1.91483
2.11198
2.24598
2.25512
2.223
1.40001
1.40001
1.40001
1.40001
1.40001
1.40001
1.40001
1.40001
1.40001
1.40001
1.40001
1.40008
1.40075
1.40465
1.42465
1.48971
1.62839
1.83737
2.02081
2.16801
1.40001
1.40001
1.40001
1.40001
1.40001
1.40001
1.40001
1.40001
1.40001
1.40001
1.40001
1.40001
1.40001
1.40007
1.40058
1.40361
1.41965
1.47157
1.59042
1.94253
2.25145
3.42038
3.59456
2.90806
1.83238
1.45178
1.40263
1.40007
1.40001
1.40001
1.40001
1.40001
1.40001
1.40001
1.40001
3.2642
3.91441
3.51993
2.15362
1.46751
1.40114
1.40001
1.4
1.40001
1.40001
1.40001
1.40001
1.40001
1.40001
1.40001
4.07734
3.99246
2.76096
1.61182
1.40723
1.40007
1.40001
1.40001
1.40001
1.40001
1.40001
1.40001
1.40001
1.40001
1.40001
4.52401
3.56254
1.90937
1.42737
1.40028
1.40001
1.40001
1.40001
1.40001
1.40001
1.40001
1.40001
1.40001
1.40001
1.40001
4.61616
2.3516
1.46581
1.4007
1.40001
1.40001
1.40001
1.40001
1.40001
1.40001
1.40001
1.40001
1.40001
1.40001
1.40001
2.88261
1.50133
1.40067
1.4
1.4
1.40001
1.40001
1.40001
1.40001
1.40001
1.40001
1.40001
1.40001
1.40001
1.40001
1.54268
1.40079
1.4
1.4
1.40001
1.40001
1.40001
1.40001
1.40001
1.40001
1.40001
1.40001
1.40001
1.40001
1.40001
1.39742
1.39982
1.4
1.40001
1.40001
1.40001
1.40001
1.40001
1.40001
1.40001
1.40001
1.40001
1.40001
1.40001
1.40001
1.39996
1.40001
1.40001
1.40001
1.40001
1.40001
1.40001
1.40001
1.40001
1.40001
1.40001
1.40001
1.40001
1.40001
1.40001
1.40001
1.40001
1.40001
1.40001
1.40001
1.40001
1.40001
1.40001
1.40001
1.40001
1.40001
1.40001
1.40001
1.40001
1.40001
1.40001
1.40001
1.40001
1.40001
1.40001
1.40001
1.40001
1.40001
1.40001
1.40001
1.40001
1.40001
1.40001
1.40001
1.40001
1.40001
1.40001
1.40001
1.40001
1.40001
1.40001
1.40001
1.40001
1.40001
1.40001
1.40001
1.40001
1.40001
1.40001
1.40001
1.40001
1.40001
1.40001
1.40001
1.40001
1.40001
1.40001
1.40001
1.40001
1.40001
1.40001
1.40001
1.40001
1.40001
1.40001
1.40001
1.40001
1.40001
1.40001
1.40001
1.40001
1.40001
1.40001
1.40001
1.40001
1.40001
1.40001
1.40001
1.40001
1.40001
1.40001
1.40001
1.40001
1.40001
1.40001
1.40001
1.40001
1.40001
1.40001
1.40001
1.40001
1.40001
1.40001
1.40001
1.40001
1.40001
1.40001
1.40001
1.40001
1.40001
1.40001
1.40001
1.40001
1.40001
1.40001
1.40001
1.40001
1.40001
1.40001
1.40001
1.40001
1.40001
1.40001
1.40001
1.40001
1.40001
1.40001
1.40001
1.40001
1.40001
1.40001
1.40001
1.40001
1.40001
1.40001
1.40001
1.40001
1.40001
1.40001
1.40001
1.40001
1.40001
1.40001
1.40001
1.40001
1.40001
1.40001
1.40001
1.40001
1.40001
1.40001
1.40001
1.40001
1.40001
1.40001
1.40001
1.40001
1.40001
1.40001
1.40001
1.40001
1.40001
1.40001
1.40001
1.40001
1.40001
1.40001
1.40001
1.40001
1.40001
1.40001
1.40001
1.40001
1.40001
1.40001
1.40001
1.40001
1.40001
1.40001
1.40001
1.40001
1.40001
1.40001
1.40001
1.40001
1.40001
1.40001
1.40001
1.40001
1.40001
1.40001
1.40001
1.40001
1.40001
1.40001
1.40001
1.40001
1.40001
1.40001
1.40001
1.40001
1.40001
1.40001
1.40001
1.40001
1.40001
1.40001
1.40001
1.40001
1.40001
1.40001
1.40001
1.40001
1.40001
1.40001
1.40001
1.40001
1.40001
1.40001
1.40001
1.40001
1.40001
1.40001
1.40001
1.40001
1.40001
1.40001
1.40001
1.40001
1.40001
1.40001
1.40001
1.40001
1.40001
1.40001
1.40001
1.40001
1.40001
1.40001
1.40001
1.40001
1.40001
1.40001
1.40001
1.40001
1.40001
1.40001
1.40001
1.40001
1.40001
1.40001
1.40001
1.40001
1.40001
1.40001
1.40001
1.40001
1.40001
1.40001
1.40001
1.40001
1.40001
1.40001
1.40001
1.40001
1.40001
1.40001
1.40001
1.40001
1.40001
1.40001
1.40001
1.40001
1.40001
1.40001
1.40001
1.40001
1.40001
1.40001
1.40001
1.40001
1.40001
1.40001
1.40001
1.40001
1.40001
1.40001
1.40001
1.40001
1.40001
1.40001
1.40001
1.40001
1.40001
1.40001
1.40001
1.40001
1.40001
1.40001
1.40001
1.40001
1.40001
1.40001
1.40001
1.40001
1.40001
1.40001
1.40001
1.40001
1.40001
1.40001
1.40001
1.40001
1.40001
1.40001
1.40001
1.40001
1.40001
1.40001
1.40001
1.40001
1.40001
1.40001
1.40001
1.40001
1.40001
1.40001
1.40001
1.40001
1.40001
1.40001
1.40001
1.40001
1.40001
1.40001
1.40001
1.40001
1.40001
1.40001
1.40001
1.40001
1.40001
1.40001
1.40001
1.40001
1.40001
1.40001
1.40001
1.40001
1.40001
1.40001
1.40001
1.40001
1.40001
1.40001
1.40001
1.40001
1.40001
1.40001
1.40001
1.40001
1.40001
1.40001
1.40001
1.40001
1.40001
1.40001
1.40001
1.40001
1.40001
1.40001
1.40001
1.40001
1.40001
1.40001
1.40001
1.40001
1.40001
1.40001
1.40001
1.40001
1.40001
1.40001
1.40001
1.40001
1.40001
1.40001
1.40001
1.40001
1.40001
1.40001
1.40001
1.40001
1.40001
1.40001
1.40001
1.40001
1.40001
1.40001
1.40001
1.40001
1.40001
1.40001
1.40001
1.40001
1.40001
1.40001
1.40001
1.40001
1.40001
1.40001
1.40001
1.40001
1.40001
1.40001
1.40001
1.40001
1.40001
1.40001
1.40001
1.40001
1.40001
1.40001
1.40001
1.40001
1.40001
1.40001
1.40001
1.40001
1.40001
1.40001
1.40001
1.40001
1.40001
1.40001
1.40001
1.40001
1.40001
1.40001
1.40001
1.40001
1.40001
1.40001
1.40001
1.40001
1.40001
1.40001
1.40001
1.40001
1.40001
1.40001
1.40001
1.40001
1.40001
1.40001
1.40001
1.40001
1.40001
1.40001
1.40001
1.40001
1.40001
1.40001
1.40001
1.40001
1.40001
1.40001
1.40001
1.40001
1.40001
1.40001
1.40001
1.40001
1.40001
1.40001
1.40001
1.40001
1.40001
1.40001
1.40001
1.40001
1.40001
1.40001
1.40001
1.40001
1.40001
1.40001
1.40001
1.40001
1.40001
1.40001
1.40001
1.40001
1.40001
1.40001
1.40001
1.40001
1.40001
1.40001
1.40001
1.40001
1.40001
1.40001
1.40001
1.40001
1.40001
1.40001
1.40001
1.40001
1.40001
1.40001
1.40001
1.40001
1.40001
1.40001
1.40001
1.40001
1.40001
1.40001
1.40001
1.40001
1.40001
1.40001
1.40001
1.40001
1.40001
1.40001
1.40001
1.40001
1.40001
1.40001
1.40001
1.40001
1.40001
1.40001
1.40001
1.40001
1.40001
1.40001
1.40001
1.40001
1.40001
1.40001
1.40001
1.40001
1.40001
1.40001
1.40001
1.40001
1.40001
1.40001
1.40001
1.40001
1.40001
1.40001
1.40001
1.40001
1.40001
1.40001
1.40001
1.40001
1.40001
1.40001
1.40001
1.40001
1.40001
1.40001
1.40001
1.40001
1.40001
1.40001
1.40001
1.40001
1.40001
1.40001
1.40001
1.40001
1.40001
1.40001
1.40001
1.40001
1.40001
1.40001
1.40001
1.40001
1.40001
1.40001
1.40001
1.40001
1.40001
1.40001
1.40001
1.40001
1.40001
1.40001
1.40001
1.40001
1.40001
1.40001
1.40001
1.40001
1.40001
1.40001
1.40001
1.40001
1.40001
1.40001
1.40001
1.40001
1.40001
1.40001
1.40001
1.40001
1.40001
1.40001
1.40001
1.40001
1.40001
1.40001
1.40001
1.40001
1.40001
1.40001
1.40001
1.40001
1.40001
1.40001
1.40001
1.40001
1.40001
1.40001
1.40001
1.40001
1.40001
1.40001
1.40001
1.40001
1.40001
1.40001
1.40001
1.40001
1.40001
1.40001
1.40001
1.40001
1.40001
1.40001
1.40001
1.40001
1.40001
1.40001
1.40001
1.40001
1.40001
1.40001
1.40001
1.40001
1.40001
1.40001
1.40001
1.40001
1.40001
1.40001
1.40001
1.40001
1.40001
1.40001
1.40001
1.40001
1.40001
1.40001
1.40001
1.40001
1.40001
1.40001
1.40001
1.40001
1.40001
1.40001
1.40001
1.40001
1.40001
1.40001
1.40001
1.40001
1.40001
1.40001
1.40001
1.40001
1.40001
1.40001
1.40001
1.40001
1.40001
1.40001
1.40001
1.40001
1.40001
1.40001
1.40001
1.40001
1.40001
1.40001
1.40001
1.40001
1.40001
1.40001
1.40001
1.40001
1.40001
1.40001
1.40001
1.40001
1.40001
1.40001
1.40001
1.40001
1.40001
1.40001
1.40001
1.40001
1.40001
1.40001
1.40001
1.40001
1.40001
1.40001
1.40001
1.40001
1.40001
1.40001
1.40001
1.40001
1.40001
1.40001
1.40001
1.40001
1.40001
1.40001
1.40001
1.40001
1.40001
1.40001
1.40001
1.40001
1.40001
1.40001
1.40001
1.40001
1.40001
1.40001
1.40001
1.40001
1.40001
1.40001
1.40001
1.40001
1.40001
1.40001
1.40001
1.40001
1.40001
1.40001
1.40001
1.40001
1.40001
1.40001
1.40001
1.40001
1.40001
1.40001
1.40001
1.40001
1.40001
1.40001
1.40001
1.40001
1.40001
1.40001
1.40001
1.40001
1.40001
1.40001
1.40001
1.40001
1.40001
1.40001
1.40001
1.40001
1.40001
1.40001
1.40001
1.40001
1.40001
1.40001
1.40001
1.40001
1.40001
1.40001
1.40001
1.40001
1.40001
1.40001
1.40001
1.40001
1.40001
1.40001
1.40001
1.40001
1.40001
1.40001
1.40001
1.40001
1.40001
1.40001
1.40001
1.40001
1.40001
1.40001
1.40001
1.40001
1.40001
1.40001
1.40001
1.40001
1.40001
1.40001
1.40001
1.40001
1.40001
1.40001
1.40001
1.40001
1.40001
1.40001
1.40001
1.40001
1.40001
1.40001
1.40001
1.40001
1.40001
1.40001
1.40001
1.40001
1.39996
1.40001
1.40001
1.40001
1.40001
1.40001
1.40001
1.40001
1.40001
1.40001
1.40001
1.40001
1.40001
1.40001
1.40001
1.39743
1.39982
1.4
1.40001
1.40001
1.40001
1.40001
1.40001
1.40001
1.40001
1.40001
1.40001
1.40001
1.40001
1.40001
1.54234
1.40078
1.4
1.4
1.40001
1.40001
1.40001
1.40001
1.40001
1.40001
1.40001
1.40001
1.40001
1.40001
1.40001
2.8825
1.50115
1.40067
1.4
1.4
1.40001
1.40001
1.40001
1.40001
1.40001
1.40001
1.40001
1.40001
1.40001
1.40001
4.61775
2.35115
1.46558
1.40069
1.40001
1.40001
1.40001
1.40001
1.40001
1.40001
1.40001
1.40001
1.40001
1.40001
1.40001
4.52521
3.56213
1.90912
1.42737
1.40028
1.40001
1.40001
1.40001
1.40001
1.40001
1.40001
1.40001
1.40001
1.40001
1.40001
4.07884
3.99275
2.75987
1.61157
1.40722
1.40007
1.40001
1.40001
1.40001
1.40001
1.40001
1.40001
1.40001
1.40001
1.40001
3.26517
3.91502
3.5201
2.15318
1.46744
1.40114
1.40001
1.4
1.40001
1.40001
1.40001
1.40001
1.40001
1.40001
1.40001
2.25148
3.42172
3.59512
2.90841
1.83245
1.45175
1.40263
1.40007
1.40001
1.40001
1.40001
1.40001
1.40001
1.40001
1.40001
1.79437
2.84647
3.47488
3.29483
2.35197
1.55117
1.40626
1.40013
1.40001
1.40001
1.40001
1.40001
1.40001
1.40001
1.40001
1.27568
2.12748
3.03891
3.27019
2.99527
2.01219
1.46233
1.40157
1.40002
1.40001
1.40001
1.40001
1.40001
1.40001
1.40001
1.04116
1.49582
2.41213
3.12479
3.09463
2.57731
1.68574
1.4148
1.40022
1.40001
1.40001
1.40001
1.40001
1.40001
1.40001
1.02522
1.27443
1.8446
2.69692
3.04879
2.94634
2.16586
1.50809
1.40338
1.40004
1.40001
1.40001
1.40001
1.40001
1.40001
0.983188
1.22438
1.4788
2.16036
2.87321
2.9454
2.59922
1.77706
1.42682
1.40047
1.40001
1.40001
1.40001
1.40001
1.40001
0.89706
1.16297
1.33968
1.73896
2.46563
2.89405
2.81816
2.19474
1.54103
1.40554
1.40007
1.40001
1.40001
1.40001
1.40001
0.788561
1.02464
1.20424
1.5339
2.0642
2.6921
2.81042
2.55239
1.80394
1.43376
1.40068
1.40001
1.40001
1.40001
1.40001
0.744589
0.892977
1.01526
1.33608
1.7659
2.36219
2.75047
2.70363
2.17716
1.55108
1.40651
1.40009
1.40001
1.40001
1.40001
0.732233
0.831958
0.954323
1.20354
1.49924
2.00447
2.56619
2.69292
2.46857
1.80018
1.43765
1.40084
1.40001
1.40001
1.40001
0.71202
0.795222
0.954189
1.14304
1.31684
1.71315
2.26458
2.63278
2.59499
2.12846
1.54715
1.40667
1.40009
1.40001
1.40001
0.693633
0.76631
0.935885
1.08805
1.20586
1.50335
1.95072
2.46843
2.58694
2.38086
1.76791
1.43526
1.40083
1.40001
1.40001
0.683793
0.761838
0.892915
0.996866
1.10787
1.37332
1.69819
2.21038
2.53878
2.49916
2.06601
1.53228
1.40582
1.40008
1.40001
0.665489
0.746411
0.848822
0.916916
1.03658
1.29231
1.51756
1.92417
2.39396
2.4924
2.28855
1.72613
1.43135
1.40075
1.40001
0.654803
0.717651
0.811036
0.866017
0.979505
1.18328
1.3664
1.71965
2.17405
2.45318
2.41156
1.99244
1.51101
1.40465
1.40007
0.66755
0.673185
0.773904
0.844706
0.976325
1.10553
1.22043
1.52322
1.93849
2.34643
2.40826
2.20062
1.676
1.42466
1.40058
0.786561
0.678132
0.734829
0.826515
0.965024
1.04863
1.14048
1.39117
1.70129
2.15141
2.38086
2.32836
1.91482
1.4897
1.40361
1.04741
0.736648
0.735316
0.793348
0.924179
0.98062
1.08344
1.31732
1.53292
1.92718
2.29667
2.32668
2.11199
1.62834
1.41965
1.24321
0.890611
0.743771
0.766421
0.865982
0.913624
1.02641
1.23885
1.4057
1.71891
2.13372
2.30956
2.24587
1.8373
1.47155
1.31097
1.09473
0.799742
0.763405
0.806577
0.876575
1.01414
1.15992
1.29435
1.57383
1.95016
2.25817
2.25499
2.02073
1.5904
1.32623
1.26481
1.03867
0.815294
0.810504
0.848655
0.978057
1.05886
1.16112
1.39656
1.67154
2.04494
2.22291
2.16795
1.94253
1.20445
1.04029
0.967427
0.896824
0.78271
0.698032
0.667076
0.653693
0.654355
0.645993
0.625394
0.606537
0.603704
0.640754
0.852173
1.14896
1.21907
1.30457
1.35891
1.34074
0.934318
0.859088
0.809202
0.745162
0.648778
0.616261
0.614082
0.616028
0.616074
0.602586
0.575097
0.574041
0.624347
0.874557
1.14891
1.30901
1.2716
1.2973
1.35145
1.34571
0.719326
0.702821
0.685373
0.635812
0.567441
0.552323
0.562794
0.570783
0.570906
0.562481
0.552889
0.61096
0.881015
1.14117
1.29807
1.33421
1.31652
1.30811
1.33865
1.34701
0.556508
0.577394
0.570795
0.521849
0.493626
0.496114
0.508482
0.533367
0.540319
0.54498
0.635697
0.916745
1.1273
1.27115
1.34076
1.34457
1.33244
1.31144