/*--------------------------------*- C++ -*----------------------------------*\
  =========                 |
  \\      /  F ield         | OpenFOAM: The Open Source CFD Toolbox
   \\    /   O peration     | Website:  https://openfoam.org
    \\  /    A nd           | Version:  7
     \\/     M anipulation  |
\*---------------------------------------------------------------------------*/
FoamFile
{
    version     2.0;
    format      ascii;
    class       volScalarField;
    location    "4.9";
    object      T;
}
// * * * * * * * * * * * * * * * * * * * * * * * * * * * * * * * * * * * * * //

dimensions      [0 0 0 1 0 0 0];

internalField   nonuniform List<scalar> 
3700
(
100.421
100.668
100.746
100.796
100.888
101.01
101.068
101.067
101.059
101.075
101.129
101.129
101.102
101.085
101.103
101.128
101.126
101.116
101.085
100.992
100.099
100.191
100.309
100.348
100.433
100.532
100.509
100.364
100.316
100.464
100.627
100.612
100.506
100.46
100.49
100.564
100.616
100.595
100.519
100.324
100.086
100.136
100.137
100.093
100.003
99.8994
99.8587
99.8611
99.8751
99.9037
99.9403
99.9729
100.004
100.028
100.043
100.048
100.049
100.04
100.023
100.017
100.117
100.138
100.096
100.047
99.9811
99.9516
99.9242
99.9113
99.902
99.9148
99.9263
99.957
99.9935
100.03
100.056
100.074
100.092
100.099
100.096
100.073
100.156
100.128
100.086
100.044
100.019
100.024
100.029
100.043
100.046
100.047
100.011
100.004
99.9972
100.016
100.047
100.076
100.1
100.128
100.143
100.153
100.202
100.126
100.08
100.034
100.01
100.03
100.056
100.09
100.126
100.129
100.126
100.119
100.099
100.089
100.076
100.077
100.092
100.133
100.165
100.205
100.272
100.118
100.001
99.9642
99.9688
99.9859
100.023
100.083
100.141
100.169
100.186
100.181
100.185
100.184
100.18
100.172
100.165
100.165
100.181
100.245
100.303
100.033
99.9194
99.9248
99.9492
99.9698
100.002
100.057
100.109
100.163
100.199
100.209
100.231
100.239
100.248
100.257
100.261
100.266
100.272
100.311
100.28
99.9545
99.8842
99.9229
99.9552
99.9838
100.019
100.074
100.105
100.149
100.181
100.209
100.248
100.268
100.288
100.31
100.326
100.339
100.349
100.391
100.217
99.9079
99.8592
99.9471
99.9977
100.071
100.122
100.169
100.193
100.223
100.234
100.258
100.278
100.299
100.319
100.345
100.377
100.4
100.423
100.456
100.126
99.8602
99.8256
99.9242
99.9939
100.114
100.186
100.231
100.279
100.323
100.343
100.362
100.379
100.389
100.396
100.406
100.428
100.454
100.503
100.498
100.021
99.7871
99.7617
99.8648
99.9798
100.13
100.217
100.253
100.317
100.378
100.407
100.429
100.45
100.462
100.477
100.493
100.513
100.532
100.572
100.568
99.9009
99.7046
99.6867
99.8463
100.019
100.197
100.251
100.289
100.364
100.419
100.455
100.481
100.506
100.523
100.549
100.574
100.599
100.622
100.654
100.652
99.7752
99.6326
99.6595
99.8485
100.173
100.366
100.407
100.462
100.515
100.544
100.558
100.569
100.582
100.599
100.626
100.656
100.685
100.711
100.726
100.736
99.6586
99.5879
99.6661
100.002
100.355
100.486
100.53
100.579
100.621
100.642
100.651
100.664
100.68
100.702
100.729
100.752
100.77
100.783
100.779
100.774
99.4979
99.5963
99.9026
100.271
100.49
100.565
100.616
100.663
100.698
100.715
100.727
100.745
100.768
100.795
100.815
100.825
100.823
100.815
100.79
100.745
99.3454
99.7226
100.206
100.469
100.614
100.683
100.725
100.762
100.79
100.803
100.814
100.831
100.849
100.856
100.855
100.844
100.791
100.677
100.517
100.28
99.5102
100.12
100.47
100.657
100.759
100.809
100.842
100.867
100.878
100.881
100.881
100.882
100.881
100.859
100.773
100.622
100.357
100.1
100.005
99.9978
100.118
100.524
100.737
100.836
100.887
100.904
100.92
100.926
100.92
100.908
100.892
100.837
100.724
100.471
100.148
100.01
99.9967
99.9985
99.9992
99.9998
100.695
100.835
100.913
100.946
100.959
100.952
100.954
100.935
100.841
100.757
100.569
100.228
100.028
99.9956
99.9977
99.9989
99.9998
100
100
100
100.997
100.995
100.992
100.986
100.978
100.949
100.891
100.485
99.8278
100
100
100
100
100
100
100
100
100
100
100
100.998
100.995
100.989
100.975
100.95
100.853
100.5
100.02
100
100
100
100
100
100
100
100
100
100
100
100
100.992
100.993
100.989
100.969
100.91
100.608
100.02
99.9997
100
100
100
100
100
100
100
100
100
100
100
100
100.987
100.992
100.989
100.958
100.786
100.223
99.9969
100
100
100
100
100
100
100
100
100
100
100
100
100
100.981
100.992
100.987
100.92
100.578
99.9919
100
100
100
100
100
100
100
100
100
100
100
100
100
100
100.975
100.99
100.984
100.837
100.275
100
100
100
100
100
100
100
100
100
100
100
100
100
100
100
100.971
100.979
100.97
100.7
99.9926
100
100
100
100
100
100
100
100
100
100
100
100
100
100
100
100.979
100.971
100.912
100.47
100
100
100
100
100
100
100
100
100
100
100
100
100
100
100
100
101.005
100.969
100.814
100.129
100
100
100
100
100
100
100
100
100
100
100
100
100
100
100
100
101.017
100.943
100.677
99.9965
100
100
100
100
100
100
100
100
100
100
100
100
100
100
100
100
101.026
100.905
100.514
100
100
100
100
100
100
100
100
100
100
100
100
100
100
100
100
100
101.031
100.861
100.323
100
100
100
100
100
100
100
100
100
100
100
100
100
100
100
100
100
101.033
100.804
100.125
100
100
100
100
100
100
100
100
100
100
100
100
100
100
100
100
100
101.022
100.736
100.008
100
100
100
100
100
100
100
100
100
100
100
100
100
100
100
100
100
101.008
100.655
100
100
100
100
100
100
100
100
100
100
100
100
100
100
100
100
100
100
100.985
100.565
100
100
100
100
100
100
100
100
100
100
100
100
100
100
100
100
100
100
100.96
100.448
100
100
100
100
100
100
100
100
100
100
100
100
100
100
100
100
100
100
100.911
100.235
100
100
100
100
100
100
100
100
100
100
100
100
100
100
100
100
100
100
100.853
100.005
100
100
100
100
100
100
100
100
100
100
100
100
100
100
100
100
100
100
100.812
100
100
100
100
100
100
100
100
100
100
100
100
100
100
100
100
100
100
100
100.81
100
100
100
100
100
100
100
100
100
100
100
100
100
100
100
100
100
100
100
100.853
100.005
100
100
100
100
100
100
100
100
100
100
100
100
100
100
100
100
100
100
100.914
100.239
100
100
100
100
100
100
100
100
100
100
100
100
100
100
100
100
100
100
100.961
100.452
100
100
100
100
100
100
100
100
100
100
100
100
100
100
100
100
100
100
100.985
100.565
100
100
100
100
100
100
100
100
100
100
100
100
100
100
100
100
100
100
101.008
100.654
100
100
100
100
100
100
100
100
100
100
100
100
100
100
100
100
100
100
101.021
100.736
100.008
100
100
100
100
100
100
100
100
100
100
100
100
100
100
100
100
100
101.032
100.802
100.124
100
100
100
100
100
100
100
100
100
100
100
100
100
100
100
100
100
101.03
100.861
100.322
100
100
100
100
100
100
100
100
100
100
100
100
100
100
100
100
100
101.026
100.906
100.516
100
100
100
100
100
100
100
100
100
100
100
100
100
100
100
100
100
101.017
100.943
100.678
99.9965
100
100
100
100
100
100
100
100
100
100
100
100
100
100
100
100
101.005
100.97
100.814
100.127
100
100
100
100
100
100
100
100
100
100
100
100
100
100
100
100
100.979
100.971
100.912
100.469
100
100
100
100
100
100
100
100
100
100
100
100
100
100
100
100
100.971
100.979
100.969
100.698
99.9926
100
100
100
100
100
100
100
100
100
100
100
100
100
100
100
100.975
100.989
100.984
100.838
100.273
100
100
100
100
100
100
100
100
100
100
100
100
100
100
100
100.981
100.992
100.987
100.92
100.582
99.9918
100
100
100
100
100
100
100
100
100
100
100
100
100
100
100.987
100.992
100.989
100.959
100.788
100.224
99.9969
100
100
100
100
100
100
100
100
100
100
100
100
100
100.992
100.993
100.989
100.969
100.911
100.609
100.02
99.9997
100
100
100
100
100
100
100
100
100
100
100
100
100.998
100.995
100.989
100.975
100.95
100.851
100.497
100.02
100
100
100
100
100
100
100
100
100
100
100
100
100.997
100.995
100.992
100.986
100.977
100.949
100.892
100.487
99.8266
100
100
100
100
100
100
100
100
100
100
100
100.695
100.834
100.913
100.947
100.959
100.952
100.954
100.935
100.841
100.757
100.569
100.229
100.029
99.9956
99.9977
99.9989
99.9998
100
100
100
100.122
100.524
100.728
100.83
100.887
100.905
100.921
100.926
100.92
100.908
100.892
100.837
100.724
100.471
100.148
100.01
99.9967
99.9985
99.9992
99.9998
99.5294
100.144
100.501
100.664
100.756
100.807
100.841
100.868
100.878
100.881
100.88
100.882
100.881
100.859
100.773
100.622
100.357
100.1
100.005
99.9978
99.3023
99.6972
100.201
100.47
100.612
100.681
100.725
100.762
100.791
100.803
100.814
100.831
100.849
100.856
100.855
100.844
100.791
100.677
100.516
100.279
99.5302
99.6256
99.9353
100.317
100.5
100.561
100.61
100.658
100.695
100.713
100.725
100.743
100.767
100.795
100.815
100.824
100.822
100.815
100.79
100.745
99.7555
99.6384
99.6907
100.082
100.369
100.485
100.529
100.577
100.619
100.641
100.651
100.663
100.68
100.703
100.73
100.752
100.77
100.783
100.779
100.774
99.8311
99.6856
99.6942
99.8832
100.188
100.38
100.418
100.473
100.522
100.549
100.562
100.573
100.584
100.6
100.626
100.656
100.685
100.711
100.726
100.736
99.911
99.7556
99.7321
99.8608
100.055
100.238
100.277
100.303
100.368
100.418
100.455
100.481
100.505
100.523
100.549
100.574
100.599
100.622
100.655
100.652
99.998
99.8163
99.7738
99.8663
99.9924
100.135
100.224
100.25
100.31
100.373
100.405
100.429
100.451
100.462
100.478
100.494
100.514
100.533
100.572
100.568
100.065
99.8733
99.8346
99.9098
99.9942
100.113
100.192
100.228
100.278
100.326
100.346
100.364
100.382
100.392
100.399
100.408
100.428
100.453
100.502
100.498
100.126
99.9116
99.8697
99.9431
99.9921
100.072
100.129
100.174
100.202
100.233
100.245
100.265
100.281
100.299
100.318
100.344
100.375
100.399
100.423
100.455
100.178
99.9416
99.89
99.9203
99.9482
99.9837
100.03
100.082
100.109
100.146
100.175
100.2
100.241
100.265
100.286
100.309
100.327
100.34
100.35
100.391
100.206
99.9929
99.9157
99.9211
99.9384
99.9611
100.002
100.063
100.108
100.154
100.192
100.205
100.231
100.241
100.251
100.261
100.265
100.27
100.276
100.313
100.201
100.068
99.9824
99.9522
99.9554
99.9776
100.02
100.084
100.134
100.165
100.187
100.186
100.193
100.192
100.19
100.183
100.175
100.173
100.184
100.243
100.145
100.078
100.063
100.025
100.009
100.036
100.056
100.094
100.125
100.136
100.138
100.133
100.118
100.106
100.088
100.082
100.09
100.126
100.16
100.202
100.089
100.074
100.066
100.045
100.035
100.044
100.041
100.056
100.06
100.068
100.036
100.026
100.008
100.017
100.042
100.072
100.095
100.122
100.138
100.151
100.074
100.078
100.065
100.032
100.001
99.9925
99.9521
99.9362
99.9273
99.9342
99.9323
99.9549
99.9911
100.026
100.052
100.07
100.087
100.094
100.092
100.072
100.057
100.081
100.086
100.062
100.001
99.918
99.8787
99.8794
99.8853
99.9068
99.9371
99.9677
100
100.024
100.039
100.044
100.044
100.035
100.02
100.012
100.081
100.15
100.273
100.375
100.406
100.505
100.664
100.776
100.763
100.658
100.417
100.389
100.486
100.577
100.577
100.52
100.464
100.475
100.511
100.568
100.47
100.681
100.746
100.837
100.887
100.971
101.071
101.134
101.129
101.102
101.044
101.037
101.092
101.133
101.129
101.11
101.088
101.09
101.094
101.093
101.029
101.033
101.001
100.978
100.957
100.942
100.92
100.89
100.871
100.871
100.879
100.88
100.869
100.843
100.827
100.826
100.827
100.825
100.817
100.8
100.548
100.669
100.7
100.712
100.753
100.794
100.807
100.808
100.804
100.804
100.811
100.815
100.811
100.8
100.794
100.793
100.793
100.792
100.787
100.778
100.026
100.078
100.186
100.279
100.399
100.505
100.573
100.636
100.659
100.664
100.674
100.684
100.69
100.695
100.703
100.708
100.711
100.712
100.713
100.716
100.074
100.093
100.091
100.088
100.097
100.185
100.342
100.458
100.511
100.54
100.549
100.557
100.569
100.584
100.596
100.605
100.61
100.614
100.62
100.63
100.129
100.139
100.136
100.128
100.119
100.122
100.147
100.25
100.394
100.461
100.467
100.476
100.49
100.51
100.524
100.53
100.533
100.535
100.54
100.551
100.187
100.185
100.185
100.165
100.145
100.144
100.157
100.169
100.215
100.319
100.396
100.425
100.439
100.465
100.486
100.489
100.49
100.488
100.491
100.498
100.237
100.239
100.228
100.195
100.185
100.186
100.189
100.196
100.199
100.202
100.254
100.353
100.405
100.432
100.46
100.466
100.464
100.461
100.463
100.467
100.294
100.287
100.277
100.253
100.226
100.212
100.214
100.21
100.209
100.206
100.198
100.22
100.324
100.396
100.425
100.441
100.437
100.438
100.446
100.447
100.359
100.34
100.324
100.299
100.265
100.248
100.237
100.225
100.221
100.216
100.208
100.194
100.207
100.302
100.375
100.413
100.408
100.417
100.432
100.431
100.43
100.396
100.372
100.346
100.311
100.282
100.259
100.236
100.23
100.227
100.215
100.204
100.188
100.191
100.273
100.362
100.38
100.404
100.417
100.414
100.538
100.442
100.384
100.374
100.359
100.334
100.288
100.257
100.247
100.239
100.23
100.219
100.203
100.18
100.179
100.224
100.315
100.359
100.372
100.379
100.62
100.55
100.462
100.416
100.397
100.38
100.345
100.296
100.266
100.245
100.231
100.225
100.209
100.186
100.165
100.158
100.175
100.222
100.273
100.318
100.608
100.589
100.544
100.476
100.414
100.384
100.358
100.322
100.292
100.274
100.257
100.236
100.215
100.193
100.172
100.155
100.145
100.131
100.143
100.22
100.487
100.547
100.542
100.518
100.469
100.411
100.379
100.35
100.318
100.292
100.269
100.24
100.211
100.187
100.169
100.154
100.133
100.114
100.1
100.109
100.25
100.376
100.445
100.482
100.475
100.448
100.407
100.368
100.324
100.288
100.261
100.235
100.214
100.19
100.176
100.163
100.143
100.117
100.094
100.075
100.043
100.146
100.254
100.335
100.389
100.415
100.405
100.381
100.343
100.303
100.269
100.242
100.224
100.197
100.17
100.147
100.123
100.1
100.083
100.06
100.002
100.015
100.065
100.155
100.233
100.29
100.33
100.349
100.339
100.315
100.281
100.246
100.217
100.189
100.156
100.133
100.116
100.099
100.089
100.068
100
100
100.003
100.024
100.078
100.149
100.209
100.249
100.279
100.29
100.282
100.26
100.227
100.199
100.168
100.143
100.127
100.108
100.086
100.054
100
100
100
100.001
100.006
100.031
100.08
100.139
100.187
100.216
100.242
100.244
100.235
100.215
100.188
100.156
100.128
100.104
100.08
100.048
100
100
100
100
100
100.001
100.007
100.032
100.079
100.128
100.169
100.192
100.21
100.209
100.202
100.183
100.155
100.125
100.101
100.069
100
100
100
100
100
100
100
100.001
100.008
100.031
100.073
100.118
100.154
100.174
100.186
100.184
100.177
100.16
100.136
100.097
100
100
100
100
100
100
100
100
100
100.001
100.008
100.028
100.065
100.107
100.14
100.159
100.168
100.167
100.162
100.138
100
100
100
100
100
100
100
100
100
100
100
100.001
100.007
100.024
100.056
100.096
100.128
100.147
100.154
100.151
100
100
100
100
100
100
100
100
100
100
100
100
100
100.001
100.006
100.02
100.048
100.084
100.113
100.138
100
100
100
100
100
100
100
100
100
100
100
100
100
100
100
100.001
100.004
100.016
100.041
100.105
100.598
100.654
100.61
100.416
100.143
100.018
100.001
100
100
100
100
100
100
100
100
100.671
100.663
100.519
100.218
100.022
100
100
100
100
100
100
100
100
100
100
100.704
100.636
100.373
100.074
100.002
100
100
100
100
100
100
100
100
100
100
100.72
100.519
100.168
100.01
100
100
100
100
100
100
100
100
100
100
100
100.65
100.284
100.025
100
100
100
100
100
100
100
100
100
100
100
100
100.394
100.038
100
100
100
100
100
100
100
100
100
100
100
100
100
100.043
100
100
100
100
100
100
100
100
100
100
100
100
100
100
99.9995
100
100
100
100
100
100
100
100
100
100
100
100
100
100
100
100
100
100
100
100
100
100
100
100
100
100
100
100
100
100
100
100
100
100
100
100
100
100
100
100
100
100
100
100
100
100
100
100
100
100
100
100
100
100
100
100
100
100
100
100
100
100
100
100
100
100
100
100
100
100
100
100
100
100
100
100
100
100
100
100
100
100
100
100
100
100
100
100
100
100
100
100
100
100
100
100
100
100
100
100
100
100
100
100
100
100
100
100
100
100
100
100
100
100
100
100
100
100
100
100
100
100
100
100
100
100
100
100
100
100
100
100
100
100
100
100
100
100
100
100
100
100
100
100
100
100
100
100
100
100
100
100
100
100
100
100
100
100
100
100
100
100
100
100
100
100
100
100
100
100
100
100
100
100
100
100
100
100
100
100
100
100
100
100
100
100
100
100
100
100
100
100
100
100
100
100
100
100
100
100
100
100
100
100
100
100
100
100
100
100
100
100
100
100
100
100
100
100
100
100
100
100
100
100
100
100
100
100
100
100
100
100
100
100
100
100
100
100
100
100
100
100
100
100
100
100
100
100
100
100
100
100
100
100
100
100
100
100
100
100
100
100
100
100
100
100
100
100
100
100
100
100
100
100
100
100
100
100
100
100
100
100
100
100
100
100
100
100
100
100
100
100
100
100
100
100
100
100
100
100
100
100
100
100
100
100
100
100
100
100
100
100
100
100
100
100
100
100
100
100
100
100
100
100
100
100
100
100
100
100
100
100
100
100
100
100
100
100
100
100
100
100
100
100
100
100
100
100
100
100
100
100
100
100
100
100
100
100
100
100
100
100
100
100
100
100
100
100
100
100
100
100
100
100
100
100
100
100
100
100
100
100
100
100
100
100
100
100
100
100
100
100
100
100
100
100
100
100
100
100
100
100
100
100
100
100
100
100
100
100
100
100
100
100
100
100
100
100
100
100
100
100
100
100
100
100
100
100
100
100
100
100
100
100
100
100
100
100
100
100
100
100
100
100
100
100
100
100
100
100
100
100
100
100
100
100
100
100
100
100
100
100
100
100
100
100
100
100
100
100
100
100
100
100
100
100
100
100
100
100
100
100
100
100
100
100
100
100
100
100
100
100
100
100
100
100
100
100
100
100
100
100
100
100
100
100
100
100
100
100
100
100
100
100
100
100
100
100
100
100
100
100
100
100
100
100
100
100
100
100
100
100
100
100
100
100
100
100
100
100
100
100
100
100
100
100
100
100
100
100
100
100
100
100
100
100
100
100
100
100
100
100
100
100
100
100
100
100
100
100
100
100
100
100
100
100
100
100
100
100
100
100
100
100
100
100
100
100
100
100
100
100
100
100
100
100
100
100
100
100
100
100
100
100
100
100
100
100
100
100
100
100
100
100
100
100
100
100
100
100
100
100
100
100
100
100
100
100
100
100
100
100
100
100
100
100
100
100
100
100
100
100
100
100
100
100
100
100
100
100
100
100
100
100
100
100
100
100
100
100
100
100
100
100
100
100
100
100
100
100
100
100
100
100
100
100
100
100
100
100
100
100
100
100
100
100
100
100
100
100
100
100
100
100
100
100
100
100
100
100
100
100
100
100
100
100
100
100
100
100
100
100
100
100
100
100
100
100
100
100
100
100
100
100
100
100
100
100
100
100
100
100
100
100
100
100
100
100
100
100
100
100
100
100
100
100
100
100
100
100
100
100
100
100
100
100
100
100
100
100
100
100
100
100
100
100
100
100
100
100
100
100
100
100
100
100
100
100
100
100
100
100
100
100
100
100
100
100
100
100
100
100
100
100
100
100
100
100
100
100
100
100
100
100
100
100
100
100
100
100
100
100
100
100
100
100
100
100
100
100
100
100
100
100
100
100
100
100
100
100
100
100
100
100
100
100
100
100
100
100
100
100
100
100
100
100
100
100
100
100
100
100
100
100
100
100
100
100
100
100
100
100
100
100
100
100
100
100
100
100
100
100
100
100
99.9995
100
100
100
100
100
100
100
100
100
100
100
100
100
100
100.043
100
100
100
100
100
100
100
100
100
100
100
100
100
100
100.394
100.038
100
100
100
100
100
100
100
100
100
100
100
100
100
100.65
100.284
100.024
100
100
100
100
100
100
100
100
100
100
100
100
100.72
100.519
100.168
100.01
100
100
100
100
100
100
100
100
100
100
100
100.704
100.635
100.373
100.074
100.002
100
100
100
100
100
100
100
100
100
100
100.671
100.663
100.518
100.217
100.022
100
100
100
100
100
100
100
100
100
100
100.598
100.654
100.61
100.416
100.143
100.018
100.001
100
100
100
100
100
100
100
100
100.539
100.619
100.608
100.487
100.25
100.043
100.002
100
100
100
100
100
100
100
100
100.441
100.551
100.588
100.547
100.377
100.146
100.015
100
100
100
100
100
100
100
100
100.38
100.463
100.544
100.542
100.446
100.254
100.065
100.003
100
100
100
100
100
100
100
100.371
100.411
100.478
100.518
100.482
100.335
100.155
100.024
100.001
100
100
100
100
100
100
100.358
100.392
100.414
100.469
100.475
100.389
100.233
100.078
100.006
100
100
100
100
100
100
100.335
100.376
100.384
100.413
100.447
100.415
100.29
100.149
100.031
100.001
100
100
100
100
100
100.297
100.342
100.356
100.381
100.407
100.405
100.329
100.209
100.08
100.007
100
100
100
100
100
100.268
100.3
100.312
100.346
100.368
100.381
100.349
100.249
100.139
100.032
100.001
100
100
100
100
100.252
100.269
100.285
100.313
100.326
100.344
100.34
100.279
100.187
100.079
100.008
100
100
100
100
100.237
100.247
100.277
100.291
100.288
100.304
100.315
100.291
100.217
100.128
100.031
100.001
100
100
100
100.225
100.235
100.265
100.27
100.259
100.269
100.281
100.282
100.242
100.17
100.073
100.008
100
100
100
100.215
100.228
100.245
100.24
100.232
100.243
100.246
100.26
100.244
100.192
100.118
100.028
100.001
100
100
100.198
100.211
100.221
100.212
100.211
100.224
100.216
100.227
100.235
100.21
100.154
100.065
100.007
100
100
100.18
100.185
100.196
100.188
100.19
100.196
100.188
100.199
100.216
100.209
100.174
100.108
100.024
100.001
100
100.178
100.161
100.174
100.171
100.178
100.17
100.156
100.168
100.188
100.202
100.186
100.14
100.056
100.006
100
100.225
100.156
100.155
100.155
100.165
100.147
100.132
100.144
100.156
100.183
100.184
100.159
100.096
100.02
100.001
100.313
100.172
100.143
100.134
100.144
100.123
100.114
100.127
100.128
100.155
100.177
100.168
100.128
100.048
100.004
100.361
100.22
100.13
100.114
100.117
100.1
100.097
100.107
100.104
100.125
100.16
100.167
100.147
100.084
100.016
100.373
100.273
100.142
100.1
100.093
100.082
100.088
100.086
100.08
100.1
100.136
100.162
100.154
100.113
100.041
100.379
100.318
100.22
100.108
100.074
100.06
100.068
100.055
100.048
100.069
100.097
100.138
100.151
100.138
100.105
100.432
100.393
100.372
100.349
100.315
100.284
100.258
100.24
100.233
100.223
100.209
100.194
100.182
100.191
100.276
100.363
100.383
100.407
100.418
100.414
100.361
100.339
100.324
100.303
100.272
100.251
100.237
100.228
100.223
100.211
100.195
100.183
100.201
100.299
100.382
100.422
100.414
100.421
100.433
100.431
100.296
100.286
100.277
100.257
100.233
100.217
100.216
100.212
100.209
100.2
100.191
100.213
100.32
100.397
100.437
100.446
100.441
100.439
100.445
100.446
100.237
100.239
100.231
100.201
100.188
100.186
100.19
100.199
100.2
100.201
100.247
100.351
100.409
100.448
100.465
100.465
100.462
100.457
100.46
100.465
100.187
100.187
100.185
100.163
100.144
100.142
100.153
100.167
100.214
100.316
100.395
100.431
100.45
100.476
100.486
100.487
100.486
100.484
100.487
100.496
100.129
100.136
100.143
100.132
100.117
100.119
100.14
100.244
100.395
100.458
100.466
100.479
100.497
100.515
100.524
100.528
100.53
100.532
100.538
100.549
100.074
100.092
100.092
100.086
100.095
100.175
100.328
100.454
100.514
100.538
100.543
100.555
100.572
100.589
100.598
100.603
100.608
100.613
100.619
100.629
100.025
100.052
100.191
100.293
100.4
100.489
100.557
100.63
100.665
100.664
100.666
100.677
100.691
100.699
100.703
100.706
100.708
100.711
100.713
100.716
100.623
100.624
100.71
100.741
100.762
100.777
100.791
100.807
100.807
100.805
100.806
100.809
100.807
100.799
100.79
100.79
100.792
100.792
100.787
100.778
101.06
101.017
101.003
100.992
100.962
100.941
100.92
100.893
100.872
100.87
100.874
100.873
100.862
100.84
100.826
100.824
100.827
100.824
100.814
100.798
)
;

boundaryField
{
    inlet
    {
        type            fixedValue;
        value           uniform 100;
    }
    outlet
    {
        type            inletOutlet;
        inletValue      uniform 100;
        value           nonuniform List<scalar> 
50
(
100.379
100.318
100.22
100.109
100.075
100.06
100.068
100.054
100.048
100.069
100.097
100.138
100.151
100.138
100.105
100.8
100.778
100.716
100.63
100.551
100.498
100.467
100.447
100.431
100.414
100.414
100.431
100.446
100.465
100.496
100.549
100.629
100.716
100.778
100.798
100.379
100.318
100.22
100.108
100.074
100.06
100.068
100.055
100.048
100.069
100.097
100.138
100.151
100.138
100.105
)
;
    }
    airfoil
    {
        type            zeroGradient;
    }
    top
    {
        type            symmetryPlane;
    }
    bottom
    {
        type            symmetryPlane;
    }
    defaultFaces
    {
        type            empty;
    }
}


// ************************************************************************* //
