/*--------------------------------*- C++ -*----------------------------------*\
  =========                 |
  \\      /  F ield         | OpenFOAM: The Open Source CFD Toolbox
   \\    /   O peration     | Website:  https://openfoam.org
    \\  /    A nd           | Version:  7
     \\/     M anipulation  |
\*---------------------------------------------------------------------------*/
FoamFile
{
    version     2.0;
    format      ascii;
    class       volScalarField;
    location    "8.8";
    object      p;
}
// * * * * * * * * * * * * * * * * * * * * * * * * * * * * * * * * * * * * * //

dimensions      [1 -1 -2 0 0 0 0];

internalField   nonuniform List<scalar> 
3700
(
0.204601
0.281425
0.319541
0.369798
0.372888
0.354497
0.355317
0.36819
0.400374
0.423708
0.449088
0.474664
0.485514
0.481251
0.488883
0.517732
0.523284
0.525279
0.535648
0.517756
0.141225
0.114609
0.113058
0.11504
0.110812
0.099771
0.102931
0.125097
0.156885
0.174978
0.186643
0.194982
0.186372
0.171063
0.166883
0.177622
0.201802
0.227319
0.253294
0.237367
0.135337
0.0981454
0.0792639
0.0548534
0.0476247
0.050517
0.0562611
0.0689695
0.0805462
0.0814894
0.0806814
0.0802902
0.0799225
0.0813827
0.0852965
0.094255
0.105185
0.115916
0.126172
0.134261
0.127506
0.0934657
0.0718512
0.0466016
0.0420677
0.0457094
0.0533948
0.0715803
0.0849717
0.0982657
0.113127
0.117382
0.121737
0.123389
0.124439
0.124765
0.128577
0.139505
0.154869
0.182289
0.108748
0.08539
0.0642123
0.0418344
0.0401015
0.0439836
0.0520862
0.0686153
0.0814784
0.0975562
0.120555
0.134666
0.150051
0.161842
0.171843
0.170678
0.166479
0.168219
0.176418
0.214484
0.0870312
0.0750369
0.0506738
0.0394903
0.0400525
0.047183
0.0604252
0.0719925
0.0811536
0.0945241
0.117356
0.138024
0.164117
0.189589
0.210848
0.230733
0.24117
0.252416
0.253471
0.278749
0.0707949
0.0582314
0.0380631
0.0393586
0.0472282
0.0665928
0.0870528
0.0988782
0.105976
0.114802
0.122161
0.13778
0.169299
0.203542
0.235199
0.271871
0.306226
0.341163
0.359982
0.404543
0.054797
0.0426326
0.034616
0.0397155
0.052256
0.0792798
0.10499
0.125829
0.152269
0.175436
0.178786
0.190056
0.203086
0.229937
0.264738
0.310904
0.364944
0.423666
0.471567
0.566554
0.0386064
0.0329416
0.0359903
0.0403053
0.052681
0.0815287
0.106773
0.132175
0.181493
0.226833
0.257596
0.286752
0.314762
0.34797
0.37084
0.403586
0.44852
0.52684
0.602953
0.748272
0.0268829
0.0274055
0.035942
0.0406821
0.0518192
0.0804825
0.101252
0.125985
0.184862
0.25337
0.31238
0.366139
0.430096
0.483762
0.533145
0.585233
0.635209
0.702142
0.804358
0.956876
0.0198002
0.0223302
0.0327792
0.0401652
0.0564869
0.0967928
0.113242
0.141778
0.191941
0.264038
0.355638
0.44141
0.542071
0.620649
0.709968
0.801608
0.893405
0.974353
1.14278
1.12217
0.0158495
0.0190228
0.0301133
0.0421989
0.0797992
0.143379
0.176822
0.24898
0.341042
0.421085
0.515411
0.609066
0.71605
0.812292
0.926401
1.06933
1.22055
1.35146
1.55291
1.50119
0.0137954
0.0180969
0.0328195
0.0627372
0.129653
0.211482
0.285356
0.406138
0.549203
0.702975
0.830454
0.946689
1.06172
1.16889
1.29279
1.45698
1.65248
1.84267
2.1094
2.09652
0.014175
0.0237266
0.0470236
0.100771
0.181166
0.261115
0.380447
0.539097
0.738129
0.97817
1.16706
1.34867
1.5152
1.6798
1.87895
2.10167
2.32615
2.57514
2.80373
3.00311
0.0152441
0.0323535
0.0679163
0.127532
0.223254
0.308117
0.508889
0.75626
1.07608
1.39192
1.66483
1.9138
2.14671
2.38971
2.6926
2.97606
3.24805
3.50868
3.67464
3.79226
0.012006
0.038993
0.0883678
0.139737
0.316503
0.653467
1.04005
1.4515
1.92745
2.317
2.61221
2.88348
3.14802
3.43735
3.75577
3.95058
4.0711
4.12691
4.03708
3.91568
0.00714853
0.0367376
0.141731
0.343359
0.806497
1.47186
2.05803
2.63905
3.20844
3.57468
3.80597
4.0392
4.23895
4.38589
4.47533
4.40048
4.18234
3.64804
2.79086
1.8905
0.035753
0.156777
0.481347
1.20738
2.14649
2.89043
3.53958
4.2221
4.77493
4.82241
4.75347
4.75218
4.70757
4.53347
4.01812
3.05952
2.08858
1.33255
1.01852
0.992878
0.304871
0.865106
2.00665
3.178
4.17608
4.84869
5.43449
5.88448
5.73449
5.28131
4.85479
4.32097
3.40409
2.33683
1.43144
1.03071
0.98945
0.994957
0.997335
0.99944
2.32079
3.64364
4.89447
5.69186
6.20084
6.40859
6.5516
6.25372
4.55543
3.21372
2.36786
1.55525
1.07603
0.986966
0.992728
0.99623
0.999162
0.999975
1.00002
1.00001
6.96556
6.92029
6.88597
6.85947
6.93023
6.76165
6.01984
2.40635
0.628908
1
1
1
1
1
1
1
1
1
1
1
6.95294
6.89515
6.83161
6.74467
6.71451
5.7764
2.66112
1.02892
1
1
1
1
1
1
1
1
1
1
1
1
6.81015
6.85065
6.83649
6.74423
6.46174
3.31232
1.02204
0.99964
1
1
1
1
1
1
1
1
1
1
1
1
6.69738
6.82377
6.81894
6.55664
4.67165
1.38249
0.995084
1.00009
0.999999
1
1
1
1
1
1
1
1
1
1
1
6.55891
6.82761
6.8069
5.99625
2.7908
0.974564
1.00035
0.999994
1
1
1
1
1
1
1
1
1
1
1
1
6.43161
6.80548
6.82102
5.04448
1.45464
1
1
1
1
1
1
1
1
1
1
1
1
1
1
1
6.35742
6.67037
6.68978
3.51151
0.973618
1
1
1
1
1
1
1
1
1
1
1
1
1
1
1
6.47015
6.60795
6.00902
2.06305
1
1
1
1
1
1
1
1
1
1
1
1
1
1
1
1
7.00459
6.70057
4.89332
1.17057
1
1
1
1
1
1
1
1
1
1
1
1
1
1
1
1
7.25764
6.38376
3.46796
0.988081
1
1
1
1
1
1
1
1
1
1
1
1
1
1
1
1
7.41338
5.9753
2.33555
1
1
1
1
1
1
1
1
1
1
1
1
1
1
1
1
1
7.47836
5.42702
1.6079
1
1
1
1
1
1
1
1
1
1
1
1
1
1
1
1
1
7.51617
4.74239
1.18133
1
1
1
1
1
1
1
1
1
1
1
1
1
1
1
1
1
7.39457
4.00624
1.01325
1
1
1
1
1
1
1
1
1
1
1
1
1
1
1
1
1
7.25496
3.15723
1
1
1
1
1
1
1
1
1
1
1
1
1
1
1
1
1
1
6.87551
2.51581
1
1
1
1
1
1
1
1
1
1
1
1
1
1
1
1
1
1
6.65694
1.94269
1
1
1
1
1
1
1
1
1
1
1
1
1
1
1
1
1
1
6.36387
1.37692
1
1
1
1
1
1
1
1
1
1
1
1
1
1
1
1
1
1
5.65103
1.00571
1
1
1
1
1
1
1
1
1
1
1
1
1
1
1
1
1
1
4.65306
1.00005
1
1
1
1
1
1
1
1
1
1
1
1
1
1
1
1
1
1
4.66105
1.00005
1
1
1
1
1
1
1
1
1
1
1
1
1
1
1
1
1
1
5.64198
1.00545
1
1
1
1
1
1
1
1
1
1
1
1
1
1
1
1
1
1
6.35381
1.37041
1
1
1
1
1
1
1
1
1
1
1
1
1
1
1
1
1
1
6.67973
1.94319
1
1
1
1
1
1
1
1
1
1
1
1
1
1
1
1
1
1
6.87429
2.53812
1
1
1
1
1
1
1
1
1
1
1
1
1
1
1
1
1
1
7.22744
3.15907
1
1
1
1
1
1
1
1
1
1
1
1
1
1
1
1
1
1
7.41067
3.99533
1.00847
1
1
1
1
1
1
1
1
1
1
1
1
1
1
1
1
1
7.52995
4.73277
1.17744
1
1
1
1
1
1
1
1
1
1
1
1
1
1
1
1
1
7.48227
5.42457
1.60274
1
1
1
1
1
1
1
1
1
1
1
1
1
1
1
1
1
7.40692
5.98749
2.33495
1
1
1
1
1
1
1
1
1
1
1
1
1
1
1
1
1
7.2381
6.37273
3.49614
0.988005
1
1
1
1
1
1
1
1
1
1
1
1
1
1
1
1
6.99451
6.71155
4.90851
1.16384
1
1
1
1
1
1
1
1
1
1
1
1
1
1
1
1
6.47959
6.60884
6.02028
2.06434
1
1
1
1
1
1
1
1
1
1
1
1
1
1
1
1
6.35338
6.66595
6.66161
3.48534
0.973964
1
1
1
1
1
1
1
1
1
1
1
1
1
1
1
6.41662
6.79227
6.83215
5.0724
1.43836
1
1
1
1
1
1
1
1
1
1
1
1
1
1
1
6.54574
6.8307
6.81795
6.01454
2.81589
0.97412
1.00035
0.999994
1
1
1
1
1
1
1
1
1
1
1
1
6.69748
6.82907
6.81854
6.49233
4.66931
1.39493
0.995164
1.00009
0.999999
1
1
1
1
1
1
1
1
1
1
1
6.81618
6.85523
6.83643
6.75116
6.48191
3.30035
1.02187
0.999676
1
1
1
1
1
1
1
1
1
1
1
1
6.95878
6.89842
6.83451
6.76162
6.74766
5.78182
2.6417
1.02587
1
1
1
1
1
1
1
1
1
1
1
1
6.97197
6.92455
6.88526
6.85387
6.91783
6.76732
6.0246
2.40442
0.626809
1
1
1
1
1
1
1
1
1
1
1
2.32274
3.64609
4.89893
5.68969
6.17868
6.40087
6.5479
6.25686
4.5617
3.21882
2.37241
1.55774
1.07622
0.986971
0.992716
0.996214
0.999155
0.999975
1.00002
1.00001
0.304642
0.869156
2.01156
3.18719
4.1767
4.83827
5.42367
5.88337
5.73425
5.28008
4.85247
4.31935
3.40275
2.33609
1.43162
1.03092
0.989459
0.994962
0.997338
0.999442
0.0350808
0.151757
0.493924
1.21369
2.14556
2.89163
3.54306
4.22837
4.77745
4.81709
4.74462
4.75349
4.70875
4.53663
4.02313
3.06217
2.08798
1.33162
1.01834
0.992875
0.00742205
0.0321132
0.120295
0.341695
0.806191
1.47026
2.06097
2.64397
3.21192
3.57741
3.80438
4.03855
4.24145
4.39006
4.47582
4.4003
4.18103
3.64569
2.78897
1.89003
0.0142055
0.0391099
0.0825021
0.137052
0.319527
0.645572
1.02796
1.44297
1.92103
2.31305
2.60841
2.88122
3.14866
3.4395
3.75709
3.94989
4.06858
4.12557
4.036
3.91518
0.0171954
0.0355611
0.0671366
0.122772
0.227666
0.32027
0.516043
0.757588
1.07297
1.38692
1.6597
1.91102
2.14639
2.3906
2.6932
2.97577
3.24728
3.5076
3.6734
3.79178
0.0154939
0.028243
0.0478567
0.0948992
0.18218
0.266263
0.388318
0.546131
0.74383
0.979949
1.16762
1.3496
1.5163
1.68054
1.87965
2.10241
2.3266
2.57516
2.8026
3.00168
0.0137969
0.0223275
0.0335454
0.0566488
0.126526
0.208991
0.286158
0.407911
0.551978
0.705431
0.832859
0.948833
1.06357
1.17044
1.29483
1.45916
1.65358
1.84309
2.10879
2.09665
0.0147903
0.0222478
0.0313414
0.0398542
0.0758733
0.138509
0.173438
0.245468
0.338054
0.419447
0.514827
0.60976
0.717728
0.814157
0.928263
1.07052
1.22068
1.35059
1.55264
1.5004
0.0192975
0.0259149
0.0338255
0.0379281
0.0534287
0.0957927
0.112371
0.140884
0.191299
0.263329
0.3553
0.441129
0.542075
0.620703
0.709591
0.800668
0.892095
0.972951
1.14213
1.12269
0.0270141
0.0321776
0.0359822
0.0367039
0.049535
0.0817548
0.10187
0.127497
0.186095
0.254611
0.313125
0.366068
0.429389
0.48286
0.531873
0.583799
0.633939
0.701953
0.803903
0.957849
0.0396491
0.0358372
0.0362234
0.0366733
0.0510137
0.0828155
0.107395
0.134035
0.183245
0.228159
0.257923
0.28645
0.313701
0.34686
0.370438
0.403589
0.448728
0.527964
0.603721
0.748895
0.0559034
0.0419146
0.0352422
0.0369425
0.0512419
0.0795089
0.105243
0.127071
0.153263
0.176306
0.177589
0.188729
0.203235
0.231185
0.26594
0.311701
0.365395
0.424261
0.472315
0.565708
0.0724466
0.0531899
0.0367268
0.0370088
0.0469433
0.0650568
0.0863817
0.0990831
0.105701
0.114383
0.123317
0.140422
0.171776
0.20482
0.235595
0.271845
0.306149
0.340897
0.360358
0.404457
0.0812479
0.0689025
0.0446768
0.0374783
0.0402985
0.0463085
0.0599859
0.0728168
0.0824835
0.0968889
0.12084
0.14075
0.165281
0.189712
0.210303
0.229982
0.240757
0.252336
0.2535
0.278184
0.0925155
0.0784743
0.0591268
0.0401125
0.0399607
0.0439069
0.052643
0.0703925
0.083644
0.100745
0.122906
0.135435
0.149764
0.16102
0.170743
0.170377
0.16668
0.168471
0.176515
0.21411
0.118579
0.0930276
0.0721965
0.0463158
0.0422283
0.0460356
0.0542517
0.0733828
0.0873654
0.100065
0.112775
0.116165
0.120489
0.122408
0.124001
0.125371
0.129604
0.140253
0.155235
0.182534
0.129175
0.0993876
0.082687
0.0593878
0.0491307
0.0518749
0.0566598
0.0692912
0.0808647
0.0797666
0.0787614
0.0786911
0.0790013
0.0812173
0.0864019
0.0956199
0.106037
0.116341
0.126491
0.134804
0.134206
0.109936
0.111584
0.0965155
0.0941699
0.111552
0.125172
0.131845
0.142383
0.147087
0.14847
0.146768
0.148191
0.157221
0.171915
0.174513
0.168117
0.169999
0.183065
0.199146
0.201473
0.271849
0.31812
0.333084
0.331791
0.359571
0.375377
0.371703
0.385548
0.405614
0.431788
0.453525
0.468822
0.47549
0.488288
0.501986
0.491436
0.495104
0.529048
0.529073
0.54276
0.648854
0.709915
0.762448
0.80173
0.859733
0.879398
0.881265
0.871967
0.87811
0.894868
0.934906
0.974474
0.977233
0.95592
0.933066
0.934709
0.955688
0.973102
0.968906
0.274893
0.391976
0.534647
0.656761
0.733523
0.824924
0.861293
0.890351
0.892555
0.895084
0.903875
0.927906
0.954288
0.963677
0.96172
0.955241
0.955091
0.959248
0.962965
0.960842
0.138501
0.152801
0.228454
0.350441
0.523736
0.68618
0.777547
0.854659
0.902136
0.911803
0.919276
0.924385
0.931053
0.944402
0.961977
0.968611
0.970719
0.963681
0.950989
0.952067
0.193403
0.213534
0.244883
0.242432
0.255898
0.326544
0.52423
0.725703
0.8386
0.90406
0.933487
0.914386
0.904344
0.92037
0.955647
0.973471
0.975831
0.965669
0.948505
0.951288
0.24078
0.261219
0.281374
0.292983
0.2837
0.278518
0.297875
0.390229
0.613863
0.830275
0.898144
0.89515
0.885096
0.902578
0.949451
0.978137
0.979112
0.963323
0.943754
0.950167
0.301619
0.32576
0.351112
0.343176
0.319964
0.317135
0.319254
0.323275
0.36342
0.523293
0.740863
0.875872
0.871772
0.887413
0.934627
0.971742
0.973742
0.957245
0.945494
0.954985
0.387121
0.398395
0.414289
0.408749
0.383799
0.366875
0.363617
0.361073
0.366542
0.382644
0.467206
0.686202
0.853933
0.895185
0.917313
0.953469
0.957096
0.946563
0.950975
0.96244
0.505402
0.484254
0.482604
0.475644
0.445951
0.415804
0.40053
0.392731
0.392723
0.390853
0.395863
0.448057
0.655062
0.86351
0.898143
0.943881
0.938855
0.940131
0.960884
0.966504
0.671074
0.587294
0.543199
0.53588
0.514736
0.471862
0.44727
0.429837
0.421576
0.421891
0.414442
0.415068
0.45536
0.632164
0.835659
0.93678
0.915097
0.932103
0.970138
0.966903
0.878218
0.729764
0.620218
0.606147
0.5942
0.556592
0.519272
0.478489
0.447061
0.441793
0.440502
0.439032
0.43916
0.460773
0.608517
0.820169
0.872758
0.937171
0.976843
0.963383
1.2761
0.979158
0.75339
0.643176
0.639237
0.652603
0.636429
0.585086
0.535431
0.501276
0.488482
0.485891
0.481255
0.467775
0.476025
0.557016
0.742553
0.891266
0.944786
0.954141
2.02198
1.52863
1.19688
0.919582
0.761434
0.757828
0.746758
0.683611
0.604434
0.557786
0.539022
0.543674
0.539038
0.52186
0.496301
0.491041
0.524671
0.637179
0.788394
0.910516
2.50716
2.16767
1.71902
1.37121
1.08686
0.900688
0.839383
0.7678
0.690378
0.661766
0.646824
0.636113
0.61805
0.580204
0.549145
0.518976
0.519783
0.527679
0.570138
0.746212
2.36654
2.34917
2.23693
1.92473
1.58701
1.25138
1.06677
0.960885
0.892336
0.828069
0.75515
0.699876
0.658281
0.613378
0.603679
0.595578
0.575178
0.556768
0.545129
0.5826
1.68229
2.14299
2.22338
2.19362
2.06644
1.7897
1.46909
1.24273
1.08351
0.972246
0.864348
0.779884
0.731833
0.705038
0.699298
0.689581
0.659822
0.619775
0.572118
0.573477
1.10939
1.43732
1.84829
2.11453
2.11416
2.07732
1.92881
1.6895
1.4233
1.22914
1.09864
0.986052
0.913733
0.846832
0.78799
0.74996
0.704442
0.653326
0.620957
0.607172
1.00454
1.04476
1.20397
1.54763
1.86195
2.02246
2.0156
1.97272
1.83679
1.61399
1.40844
1.22323
1.07963
0.977934
0.874298
0.813496
0.780187
0.734198
0.718957
0.690889
1.00009
1.00113
1.01026
1.07833
1.27081
1.57006
1.82441
1.93645
1.9296
1.88702
1.77169
1.58291
1.3784
1.22917
1.09548
0.987952
0.940225
0.891214
0.833056
0.755779
1
1.00001
1.00014
1.00252
1.01897
1.10138
1.28938
1.55767
1.76323
1.85819
1.85315
1.81876
1.71745
1.55666
1.388
1.2189
1.09337
1.00395
0.928993
0.833213
1
1
1
1.00003
1.00032
1.00409
1.02378
1.10887
1.28636
1.52669
1.69809
1.7869
1.78375
1.75662
1.67965
1.54242
1.38028
1.22748
1.12546
1.00098
1
1
1
1
1
1.00005
1.00046
1.00485
1.02699
1.10465
1.2635
1.47832
1.64023
1.72107
1.71996
1.70195
1.64184
1.52543
1.39566
1.19739
1
1
1
1
1
1
1
1.00006
1.00059
1.00462
1.02626
1.09286
1.23406
1.41874
1.58312
1.66546
1.66326
1.6502
1.61497
1.46194
1
1
1
1
1
1
1
1
1.00001
1.00006
1.00062
1.00403
1.02211
1.08135
1.19713
1.36608
1.51078
1.6147
1.61398
1.58781
1
1
1
1
1
1
1
1
1
1
1.00001
1.00005
1.00052
1.00355
1.01677
1.0661
1.16339
1.31416
1.44463
1.55209
1
1
1
1
1
1
1
1
1
1
1
1
1.00001
1.00005
1.00039
1.00266
1.01399
1.05135
1.13655
1.38999
1.61934
2.46254
2.58307
2.08638
1.31049
1.03692
1.00187
1.00005
1
1
1
1
1
1
1
2.34713
2.81366
2.52648
1.54088
1.0483
1.00081
1
1
1
1
1
1
1
1
1
2.93111
2.8684
1.97928
1.15255
1.00523
1.00005
1
1
1
1
1
1
1
1
1
3.25217
2.55705
1.36493
1.01944
1.00019
1
1
1
1
1
1
1
1
1
1
3.32447
1.68294
1.04678
1.00048
1
1
1
1
1
1
1
1
1
1
1
2.07068
1.07353
1.0005
0.999999
1
1
1
1
1
1
1
1
1
1
1
1.10237
1.00057
0.999997
1
1
1
1
1
1
1
1
1
1
1
1
0.998135
0.999864
0.999996
1
1
1
1
1
1
1
1
1
1
1
1
0.999966
1
1
1
1
1
1
1
1
1
1
1
1
1
1
1
1
1
1
1
1
1
1
1
1
1
1
1
1
1
1
1
1
1
1
1
1
1
1
1
1
1
1
1
1
1
1
1
1
1
1
1
1
1
1
1
1
1
1
1
1
1
1
1
1
1
1
1
1
1
1
1
1
1
1
1
1
1
1
1
1
1
1
1
1
1
1
1
1
1
1
1
1
1
1
1
1
1
1
1
1
1
1
1
1
1
1
1
1
1
1
1
1
1
1
1
1
1
1
1
1
1
1
1
1
1
1
1
1
1
1
1
1
1
1
1
1
1
1
1
1
1
1
1
1
1
1
1
1
1
1
1
1
1
1
1
1
1
1
1
1
1
1
1
1
1
1
1
1
1
1
1
1
1
1
1
1
1
1
1
1
1
1
1
1
1
1
1
1
1
1
1
1
1
1
1
1
1
1
1
1
1
1
1
1
1
1
1
1
1
1
1
1
1
1
1
1
1
1
1
1
1
1
1
1
1
1
1
1
1
1
1
1
1
1
1
1
1
1
1
1
1
1
1
1
1
1
1
1
1
1
1
1
1
1
1
1
1
1
1
1
1
1
1
1
1
1
1
1
1
1
1
1
1
1
1
1
1
1
1
1
1
1
1
1
1
1
1
1
1
1
1
1
1
1
1
1
1
1
1
1
1
1
1
1
1
1
1
1
1
1
1
1
1
1
1
1
1
1
1
1
1
1
1
1
1
1
1
1
1
1
1
1
1
1
1
1
1
1
1
1
1
1
1
1
1
1
1
1
1
1
1
1
1
1
1
1
1
1
1
1
1
1
1
1
1
1
1
1
1
1
1
1
1
1
1
1
1
1
1
1
1
1
1
1
1
1
1
1
1
1
1
1
1
1
1
1
1
1
1
1
1
1
1
1
1
1
1
1
1
1
1
1
1
1
1
1
1
1
1
1
1
1
1
1
1
1
1
1
1
1
1
1
1
1
1
1
1
1
1
1
1
1
1
1
1
1
1
1
1
1
1
1
1
1
1
1
1
1
1
1
1
1
1
1
1
1
1
1
1
1
1
1
1
1
1
1
1
1
1
1
1
1
1
1
1
1
1
1
1
1
1
1
1
1
1
1
1
1
1
1
1
1
1
1
1
1
1
1
1
1
1
1
1
1
1
1
1
1
1
1
1
1
1
1
1
1
1
1
1
1
1
1
1
1
1
1
1
1
1
1
1
1
1
1
1
1
1
1
1
1
1
1
1
1
1
1
1
1
1
1
1
1
1
1
1
1
1
1
1
1
1
1
1
1
1
1
1
1
1
1
1
1
1
1
1
1
1
1
1
1
1
1
1
1
1
1
1
1
1
1
1
1
1
1
1
1
1
1
1
1
1
1
1
1
1
1
1
1
1
1
1
1
1
1
1
1
1
1
1
1
1
1
1
1
1
1
1
1
1
1
1
1
1
1
1
1
1
1
1
1
1
1
1
1
1
1
1
1
1
1
1
1
1
1
1
1
1
1
1
1
1
1
1
1
1
1
1
1
1
1
1
1
1
1
1
1
1
1
1
1
1
1
1
1
1
1
1
1
1
1
1
1
1
1
1
1
1
1
1
1
1
1
1
1
1
1
1
1
1
1
1
1
1
1
1
1
1
1
1
1
1
1
1
1
1
1
1
1
1
1
1
1
1
1
1
1
1
1
1
1
1
1
1
1
1
1
1
1
1
1
1
1
1
1
1
1
1
1
1
1
1
1
1
1
1
1
1
1
1
1
1
1
1
1
1
1
1
1
1
1
1
1
1
1
1
1
1
1
1
1
1
1
1
1
1
1
1
1
1
1
1
1
1
1
1
1
1
1
1
1
1
1
1
1
1
1
1
1
1
1
1
1
1
1
1
1
1
1
1
1
1
1
1
1
0.999967
1
1
1
1
1
1
1
1
1
1
1
1
1
1
0.998134
0.999864
0.999996
1
1
1
1
1
1
1
1
1
1
1
1
1.10241
1.00057
0.999997
1
1
1
1
1
1
1
1
1
1
1
1
2.07093
1.07357
1.0005
0.999999
1
1
1
1
1
1
1
1
1
1
1
3.32446
1.68295
1.04683
1.00049
1
1
1
1
1
1
1
1
1
1
1
3.25234
2.55737
1.36497
1.01932
1.00019
1
1
1
1
1
1
1
1
1
1
2.93163
2.86902
1.97936
1.15275
1.00526
1.00005
1
1
1
1
1
1
1
1
1
2.34714
2.81412
2.52621
1.54032
1.04823
1.00081
1
1
1
1
1
1
1
1
1
1.61966
2.46229
2.58343
2.08634
1.31033
1.0369
1.00187
1.00005
1
1
1
1
1
1
1
1.27518
2.0202
2.50592
2.36553
1.68188
1.10922
1.00453
1.00009
1
1
1
1
1
1
1
0.984973
1.52623
2.16255
2.34857
2.14358
1.43795
1.04483
1.00113
1.00001
1
1
1
1
1
1
0.753222
1.19835
1.72888
2.23402
2.22273
1.84884
1.20455
1.0103
1.00014
1
1
1
1
1
1
0.640947
0.904767
1.37395
1.93177
2.19358
2.11451
1.54744
1.0784
1.00252
1.00003
1
1
1
1
1
0.634686
0.770353
1.07057
1.58516
2.07052
2.11416
1.86258
1.27046
1.0189
1.00032
1
1
1
1
1
0.646852
0.774928
0.900365
1.24238
1.7847
2.07657
2.02182
1.5699
1.10124
1.00407
1.00005
1
1
1
1
0.626767
0.753939
0.844209
1.07508
1.46361
1.92887
2.01568
1.82394
1.28944
1.02393
1.00046
1
1
1
1
0.572283
0.672963
0.757705
0.969572
1.25185
1.69253
1.97242
1.9368
1.55816
1.10875
1.00484
1.00006
1
1
1
0.530083
0.595458
0.674772
0.887149
1.08606
1.42315
1.83835
1.93025
1.76441
1.28685
1.02695
1.00059
1.00001
1
1
0.50259
0.560821
0.662529
0.820755
0.967742
1.22893
1.61769
1.88773
1.85808
1.52617
1.10506
1.00467
1.00006
1
1
0.491336
0.542911
0.65356
0.756207
0.86297
1.09554
1.40591
1.77144
1.85283
1.69897
1.26355
1.02616
1.00062
1.00001
1
0.48127
0.544831
0.6391
0.70325
0.788195
0.988963
1.21965
1.58178
1.81812
1.78699
1.47865
1.09296
1.00403
1.00005
1
0.477569
0.538557
0.616148
0.654462
0.739903
0.919872
1.0815
1.38022
1.71633
1.78355
1.63927
1.23437
1.02224
1.00052
1.00001
0.47014
0.523853
0.58401
0.613062
0.701195
0.849848
0.974732
1.22613
1.55691
1.75652
1.72141
1.41881
1.08124
1.00355
1.00005
0.476897
0.500251
0.556432
0.602767
0.695405
0.791459
0.873904
1.08821
1.3858
1.67936
1.72046
1.58364
1.19688
1.01671
1.00039
0.55149
0.491231
0.52583
0.588731
0.684014
0.748681
0.817542
0.990726
1.21893
1.54198
1.70247
1.66492
1.36612
1.06622
1.00267
0.733112
0.524651
0.52758
0.56544
0.652085
0.698743
0.779773
0.943682
1.09676
1.38123
1.64199
1.66303
1.51121
1.16372
1.01405
0.885404
0.636456
0.534998
0.555946
0.615854
0.651694
0.732809
0.891876
1.00445
1.22806
1.52584
1.65045
1.61496
1.31424
1.05134
0.939547
0.786868
0.576237
0.5488
0.570958
0.623837
0.722208
0.831589
0.926858
1.12548
1.39639
1.61534
1.61421
1.44483
1.13644
0.95344
0.909379
0.74922
0.584728
0.574007
0.607016
0.693723
0.753663
0.830758
1.00099
1.19807
1.46262
1.58809
1.55241
1.39001
0.881491
0.740179
0.624857
0.604106
0.589737
0.545624
0.506311
0.464002
0.45068
0.454927
0.447131
0.43552
0.438736
0.460488
0.610045
0.824859
0.873676
0.931861
0.973357
0.963251
0.679451
0.595019
0.542938
0.533529
0.516871
0.477015
0.450855
0.433517
0.424223
0.427678
0.409892
0.411436
0.452572
0.635358
0.83561
0.927573
0.907594
0.925338
0.967609
0.967483
0.510874
0.488066
0.47906
0.469639
0.443123
0.414252
0.399476
0.395084
0.396501
0.39173
0.393062
0.448288
0.654883
0.855636
0.888232
0.935302
0.93279
0.93605
0.957892
0.967628
0.387274
0.398531
0.41382
0.407387
0.382928
0.370689
0.368038
0.370039
0.374289
0.384493
0.467401
0.690325
0.864919
0.884981
0.909268
0.955609
0.962754
0.949379
0.95311
0.963986
0.301718
0.326209
0.347428
0.342114
0.322402
0.319893
0.323653
0.328773
0.372164
0.5341
0.750974
0.873181
0.874273
0.888321
0.936395
0.979957
0.982959
0.966293
0.949996
0.957313
0.240748
0.261041
0.288056
0.294563
0.283777
0.281384
0.296512
0.387335
0.621732
0.83617
0.894129
0.890103
0.885238
0.90625
0.954227
0.985798
0.985576
0.968457
0.947243
0.951954
0.193088
0.213357
0.234651
0.239414
0.25956
0.325603
0.508424
0.728198
0.839313
0.906976
0.929615
0.908813
0.905989
0.923481
0.956179
0.974717
0.975761
0.966467
0.950218
0.951297
0.137029
0.160603
0.236625
0.365634
0.536139
0.686807
0.773586
0.861421
0.897196
0.904777
0.912283
0.917884
0.929009
0.946988
0.960084
0.963969
0.963311
0.961229
0.955099
0.954401
0.305912
0.432572
0.55697
0.67303
0.749632
0.829797
0.862088
0.887311
0.886368
0.886628
0.898099
0.926488
0.955504
0.964538
0.956043
0.940216
0.938182
0.94775
0.959313
0.959455
0.562478
0.657173
0.714149
0.766828
0.807726
0.86941
0.882391
0.888526
0.88062
0.873193
0.887514
0.930746
0.970701
0.970055
0.944601
0.926436
0.929773
0.95198
0.971267
0.96654
)
;

boundaryField
{
    inlet
    {
        type            fixedValue;
        value           uniform 1;
    }
    outlet
    {
        type            zeroGradient;
    }
    airfoil
    {
        type            zeroGradient;
    }
    top
    {
        type            symmetryPlane;
    }
    bottom
    {
        type            symmetryPlane;
    }
    defaultFaces
    {
        type            empty;
    }
}


// ************************************************************************* //
