/*--------------------------------*- C++ -*----------------------------------*\
  =========                 |
  \\      /  F ield         | OpenFOAM: The Open Source CFD Toolbox
   \\    /   O peration     | Website:  https://openfoam.org
    \\  /    A nd           | Version:  7
     \\/     M anipulation  |
\*---------------------------------------------------------------------------*/
FoamFile
{
    version     2.0;
    format      ascii;
    class       volScalarField;
    location    "8.8";
    object      rho;
}
// * * * * * * * * * * * * * * * * * * * * * * * * * * * * * * * * * * * * * //

dimensions      [1 -3 0 0 0 0 0];

internalField   nonuniform List<scalar> 
3700
(
0.284257
0.390504
0.443252
0.512825
0.517235
0.491962
0.493099
0.510559
0.554429
0.586385
0.621463
0.656878
0.67196
0.66625
0.677045
0.716974
0.724576
0.727358
0.741742
0.71715
0.197015
0.159939
0.157738
0.160371
0.154475
0.139219
0.143618
0.174292
0.218263
0.243327
0.259472
0.271045
0.259156
0.238104
0.232522
0.247463
0.281041
0.316452
0.352565
0.330581
0.188778
0.137078
0.110819
0.0767943
0.0667054
0.070746
0.0787659
0.0965162
0.1127
0.114044
0.112942
0.112419
0.11193
0.113982
0.119454
0.131966
0.147234
0.162231
0.176572
0.187892
0.177857
0.130548
0.100493
0.0652856
0.0589598
0.0640495
0.074779
0.100165
0.118876
0.137456
0.158226
0.164195
0.170307
0.172653
0.174167
0.174654
0.179985
0.195236
0.21669
0.254981
0.151805
0.119337
0.0898632
0.0586433
0.0562275
0.0616539
0.0729704
0.0960601
0.114032
0.136472
0.168589
0.188317
0.209806
0.226288
0.240285
0.238698
0.232899
0.235369
0.246836
0.29995
0.121667
0.10496
0.0709824
0.0553752
0.0561655
0.0661424
0.0846557
0.100804
0.113604
0.132274
0.164161
0.193022
0.229452
0.265012
0.294704
0.322473
0.337063
0.352795
0.354316
0.389621
0.0990787
0.0815387
0.0533693
0.0551931
0.0662113
0.0932822
0.121874
0.138406
0.148333
0.160646
0.170907
0.192714
0.236721
0.284523
0.328701
0.379856
0.427765
0.47651
0.502786
0.564905
0.0767653
0.0597593
0.0485499
0.0556858
0.0732098
0.110953
0.146855
0.175968
0.212912
0.245271
0.249982
0.265724
0.283933
0.321424
0.36998
0.434347
0.509653
0.591477
0.658253
0.790554
0.0541477
0.0462136
0.0504687
0.0564976
0.0737758
0.114043
0.149299
0.184767
0.253585
0.316858
0.359789
0.400491
0.439568
0.485917
0.517849
0.563546
0.626176
0.73524
0.841221
1.04348
0.0377468
0.0384645
0.0503921
0.057006
0.0725273
0.112517
0.14156
0.1761
0.258217
0.353777
0.436062
0.51102
0.60014
0.674989
0.743829
0.816429
0.886048
0.97924
1.12149
1.3336
0.0278254
0.0313503
0.0459486
0.0562546
0.0789868
0.13523
0.15824
0.198058
0.268018
0.368608
0.496318
0.615838
0.756014
0.865499
0.989894
1.11749
1.24525
1.35782
1.59191
1.56332
0.0222859
0.0267102
0.0422076
0.0590788
0.111521
0.200242
0.246936
0.347506
0.475777
0.587284
0.718733
0.849198
0.998159
1.13216
1.29097
1.48978
1.7
1.88189
2.16153
2.08974
0.0194033
0.0254017
0.0459838
0.0877874
0.181109
0.295209
0.398173
0.566366
0.765521
0.979486
1.15693
1.31865
1.47869
1.6278
1.80012
2.02836
2.29994
2.56392
2.9339
2.916
0.0199243
0.0332736
0.0658647
0.14089
0.25297
0.364382
0.530555
0.751373
1.02823
1.36203
1.62477
1.87726
2.10872
2.33736
2.61384
2.923
3.23451
3.57993
3.89701
4.17367
0.0214037
0.0453698
0.0950991
0.17824
0.311644
0.429876
0.709294
1.05338
1.49792
1.93696
2.31627
2.66211
2.98545
3.32245
3.74236
4.13535
4.51248
4.874
5.10469
5.26832
0.0168607
0.0546696
0.123696
0.195321
0.441478
0.90993
1.44721
2.01877
2.67967
3.22075
3.63069
4.00708
4.37376
4.77448
5.21565
5.4857
5.65319
5.73109
5.60771
5.44138
0.01007
0.0515378
0.198124
0.478748
1.12248
2.0464
2.86002
3.66615
4.45618
4.96441
5.28511
5.60811
5.88444
6.0881
6.21232
6.10911
5.80929
5.07293
3.88718
2.63938
0.0502892
0.219209
0.67078
1.67918
2.98208
4.01407
4.91412
5.86032
6.62673
6.69251
6.59684
6.59492
6.53305
6.29284
5.58224
4.25686
2.9136
1.8637
1.42586
1.39006
0.426299
1.20487
2.78864
4.41242
5.79539
6.72737
7.53865
8.16268
7.95511
7.32734
6.73664
5.99917
4.73142
3.25611
2.00101
1.44285
1.38528
1.39297
1.39628
1.39922
3.22673
5.05892
6.79043
7.89408
8.59882
8.88737
9.08551
8.67414
6.32428
4.46533
3.29621
2.17238
1.50601
1.38182
1.38986
1.39474
1.39883
1.39997
1.40003
1.40002
9.65563
9.5931
9.54585
9.50972
9.60867
9.37706
8.35331
3.35287
0.88195
1.40001
1.40001
1.40001
1.40001
1.40001
1.40001
1.40001
1.40001
1.40001
1.40001
1.40001
9.63807
9.55823
9.47071
9.35154
9.31213
8.01859
3.70718
1.44022
1.40001
1.40001
1.40001
1.40001
1.40001
1.40001
1.40001
1.40001
1.40001
1.40001
1.40001
1.40001
9.44052
9.4966
9.47738
9.35127
8.96425
4.60886
1.43052
1.39951
1.40001
1.40001
1.40001
1.40001
1.40001
1.40001
1.40001
1.40001
1.40001
1.40001
1.40001
1.40001
9.2846
9.4594
9.45305
9.09233
6.48912
1.93122
1.39317
1.40013
1.4
1.40001
1.40001
1.40001
1.40001
1.40001
1.40001
1.40001
1.40001
1.40001
1.40001
1.40001
9.09321
9.46472
9.43652
8.31842
3.88448
1.36451
1.40049
1.4
1.40001
1.40001
1.40001
1.40001
1.40001
1.40001
1.40001
1.40001
1.40001
1.40001
1.40001
1.40001
8.91731
9.43435
9.45637
7.00358
2.03115
1.40001
1.40001
1.40001
1.40001
1.40001
1.40001
1.40001
1.40001
1.40001
1.40001
1.40001
1.40001
1.40001
1.40001
1.40001
8.81481
9.24811
9.27597
4.88214
1.36317
1.40001
1.40001
1.40001
1.40001
1.40001
1.40001
1.40001
1.40001
1.40001
1.40001
1.40001
1.40001
1.40001
1.40001
1.40001
8.97053
9.16224
8.3366
2.87472
1.4
1.40001
1.40001
1.40001
1.40001
1.40001
1.40001
1.40001
1.40001
1.40001
1.40001
1.40001
1.40001
1.40001
1.40001
1.40001
9.70893
9.29065
6.79518
1.63673
1.40001
1.40001
1.40001
1.40001
1.40001
1.40001
1.40001
1.40001
1.40001
1.40001
1.40001
1.40001
1.40001
1.40001
1.40001
1.40001
10.0584
8.85381
4.82223
1.38337
1.40001
1.40001
1.40001
1.40001
1.40001
1.40001
1.40001
1.40001
1.40001
1.40001
1.40001
1.40001
1.40001
1.40001
1.40001
1.40001
10.2733
8.2903
3.25312
1.40001
1.40001
1.40001
1.40001
1.40001
1.40001
1.40001
1.40001
1.40001
1.40001
1.40001
1.40001
1.40001
1.40001
1.40001
1.40001
1.40001
10.363
7.53313
2.24391
1.40001
1.40001
1.40001
1.40001
1.40001
1.40001
1.40001
1.40001
1.40001
1.40001
1.40001
1.40001
1.40001
1.40001
1.40001
1.40001
1.40001
10.4152
6.58665
1.65186
1.40001
1.40001
1.40001
1.40001
1.40001
1.40001
1.40001
1.40001
1.40001
1.40001
1.40001
1.40001
1.40001
1.40001
1.40001
1.40001
1.40001
10.2477
5.56781
1.41845
1.40001
1.40001
1.40001
1.40001
1.40001
1.40001
1.40001
1.40001
1.40001
1.40001
1.40001
1.40001
1.40001
1.40001
1.40001
1.40001
1.40001
10.0555
4.3914
1.40001
1.40001
1.40001
1.40001
1.40001
1.40001
1.40001
1.40001
1.40001
1.40001
1.40001
1.40001
1.40001
1.40001
1.40001
1.40001
1.40001
1.40001
9.53169
3.50228
1.40001
1.40001
1.40001
1.40001
1.40001
1.40001
1.40001
1.40001
1.40001
1.40001
1.40001
1.40001
1.40001
1.40001
1.40001
1.40001
1.40001
1.40001
9.23094
2.70745
1.40001
1.40001
1.40001
1.40001
1.40001
1.40001
1.40001
1.40001
1.40001
1.40001
1.40001
1.40001
1.40001
1.40001
1.40001
1.40001
1.40001
1.40001
8.82882
1.92306
1.40001
1.40001
1.40001
1.40001
1.40001
1.40001
1.40001
1.40001
1.40001
1.40001
1.40001
1.40001
1.40001
1.40001
1.40001
1.40001
1.40001
1.40001
7.84464
1.40793
1.40001
1.40001
1.40001
1.40001
1.40001
1.40001
1.40001
1.40001
1.40001
1.40001
1.40001
1.40001
1.40001
1.40001
1.40001
1.40001
1.40001
1.40001
6.46197
1.40007
1.40001
1.40001
1.40001
1.40001
1.40001
1.40001
1.40001
1.40001
1.40001
1.40001
1.40001
1.40001
1.40001
1.40001
1.40001
1.40001
1.40001
1.40001
6.47296
1.40007
1.40001
1.40001
1.40001
1.40001
1.40001
1.40001
1.40001
1.40001
1.40001
1.40001
1.40001
1.40001
1.40001
1.40001
1.40001
1.40001
1.40001
1.40001
7.83217
1.40756
1.40001
1.40001
1.40001
1.40001
1.40001
1.40001
1.40001
1.40001
1.40001
1.40001
1.40001
1.40001
1.40001
1.40001
1.40001
1.40001
1.40001
1.40001
8.81515
1.91406
1.40001
1.40001
1.40001
1.40001
1.40001
1.40001
1.40001
1.40001
1.40001
1.40001
1.40001
1.40001
1.40001
1.40001
1.40001
1.40001
1.40001
1.40001
9.26241
2.70815
1.40001
1.40001
1.40001
1.40001
1.40001
1.40001
1.40001
1.40001
1.40001
1.40001
1.40001
1.40001
1.40001
1.40001
1.40001
1.40001
1.40001
1.40001
9.52983
3.53312
1.40001
1.40001
1.40001
1.40001
1.40001
1.40001
1.40001
1.40001
1.40001
1.40001
1.40001
1.40001
1.40001
1.40001
1.40001
1.40001
1.40001
1.40001
10.0172
4.39394
1.40001
1.40001
1.40001
1.40001
1.40001
1.40001
1.40001
1.40001
1.40001
1.40001
1.40001
1.40001
1.40001
1.40001
1.40001
1.40001
1.40001
1.40001
10.2701
5.55282
1.4118
1.40001
1.40001
1.40001
1.40001
1.40001
1.40001
1.40001
1.40001
1.40001
1.40001
1.40001
1.40001
1.40001
1.40001
1.40001
1.40001
1.40001
10.4344
6.57342
1.64646
1.40001
1.40001
1.40001
1.40001
1.40001
1.40001
1.40001
1.40001
1.40001
1.40001
1.40001
1.40001
1.40001
1.40001
1.40001
1.40001
1.40001
10.3685
7.5298
2.23676
1.40001
1.40001
1.40001
1.40001
1.40001
1.40001
1.40001
1.40001
1.40001
1.40001
1.40001
1.40001
1.40001
1.40001
1.40001
1.40001
1.40001
10.2644
8.30712
3.2523
1.40001
1.40001
1.40001
1.40001
1.40001
1.40001
1.40001
1.40001
1.40001
1.40001
1.40001
1.40001
1.40001
1.40001
1.40001
1.40001
1.40001
10.0313
8.83847
4.8612
1.38326
1.40001
1.40001
1.40001
1.40001
1.40001
1.40001
1.40001
1.40001
1.40001
1.40001
1.40001
1.40001
1.40001
1.40001
1.40001
1.40001
9.69489
9.30566
6.81614
1.62738
1.40001
1.40001
1.40001
1.40001
1.40001
1.40001
1.40001
1.40001
1.40001
1.40001
1.40001
1.40001
1.40001
1.40001
1.40001
1.40001
8.98347
9.16339
8.35217
2.87649
1.4
1.40001
1.40001
1.40001
1.40001
1.40001
1.40001
1.40001
1.40001
1.40001
1.40001
1.40001
1.40001
1.40001
1.40001
1.40001
8.80929
9.24207
9.23711
4.8459
1.36365
1.40001
1.40001
1.40001
1.40001
1.40001
1.40001
1.40001
1.40001
1.40001
1.40001
1.40001
1.40001
1.40001
1.40001
1.40001
8.89665
9.41625
9.47189
7.04229
2.00856
1.40001
1.40001
1.40001
1.40001
1.40001
1.40001
1.40001
1.40001
1.40001
1.40001
1.40001
1.40001
1.40001
1.40001
1.40001
9.07506
9.46902
9.45183
8.34376
3.91926
1.36389
1.40049
1.4
1.40001
1.40001
1.40001
1.40001
1.40001
1.40001
1.40001
1.40001
1.40001
1.40001
1.40001
1.40001
9.28477
9.46673
9.45249
9.00335
6.48575
1.94848
1.39328
1.40013
1.4
1.40001
1.40001
1.40001
1.40001
1.40001
1.40001
1.40001
1.40001
1.40001
1.40001
1.40001
9.44884
9.5029
9.47724
9.36076
8.99196
4.59218
1.43027
1.39956
1.40001
1.40001
1.40001
1.40001
1.40001
1.40001
1.40001
1.40001
1.40001
1.40001
1.40001
1.40001
9.64606
9.56268
9.47464
9.37489
9.35794
8.02624
3.68036
1.43597
1.40001
1.40001
1.40001
1.40001
1.40001
1.40001
1.40001
1.40001
1.40001
1.40001
1.40001
1.40001
9.66445
9.59895
9.54484
9.50198
9.59159
9.38502
8.35998
3.35019
0.879004
1.40001
1.40001
1.40001
1.40001
1.40001
1.40001
1.40001
1.40001
1.40001
1.40001
1.40001
3.22943
5.0623
6.79659
7.89108
8.56821
8.87678
9.08046
8.67851
6.33292
4.47236
3.3025
2.17583
1.50628
1.38182
1.38984
1.39472
1.39883
1.39997
1.40003
1.40002
0.425983
1.2105
2.79546
4.42516
5.79625
6.71299
7.52377
8.16112
7.95474
7.32559
6.7334
5.99693
4.72959
3.25513
2.00127
1.44313
1.38529
1.39297
1.39629
1.39923
0.0493484
0.212224
0.688235
1.6879
2.98078
4.01576
4.91898
5.86901
6.63018
6.68509
6.58456
6.59675
6.5347
6.29724
5.58917
4.26054
2.91276
1.8624
1.4256
1.39006
0.0104544
0.0450579
0.16824
0.476439
1.12206
2.0442
2.86412
3.67298
4.46096
4.96814
5.28288
5.60723
5.88793
6.09389
6.21299
6.10884
5.80747
5.06966
3.88456
2.63874
0.0199396
0.0548157
0.115508
0.191557
0.445672
0.898983
1.43045
2.00695
2.67076
3.21525
3.62542
4.00397
4.37467
4.77747
5.21748
5.48473
5.6497
5.72924
5.60623
5.4407
0.024126
0.0498628
0.094024
0.171602
0.317775
0.446771
0.71923
1.05522
1.4936
1.93003
2.30916
2.65827
2.98502
3.3237
3.7432
4.13493
4.51142
4.87251
5.10299
5.26768
0.0217546
0.0395988
0.0670558
0.132706
0.254384
0.371549
0.541508
0.76116
1.03617
1.36451
1.62556
1.87857
2.11027
2.3384
2.61481
2.92401
3.23512
3.57996
3.89545
4.1717
0.0193964
0.0313096
0.0470092
0.0792882
0.176754
0.291745
0.399295
0.568836
0.76938
0.982897
1.16028
1.32164
1.48128
1.62996
1.80294
2.03138
2.30144
2.56451
2.93307
2.91618
0.0207932
0.0312073
0.0439179
0.055805
0.106042
0.193451
0.242217
0.342604
0.471598
0.584986
0.717914
0.850165
1.0005
1.13475
1.29355
1.49142
1.70018
1.8807
2.16117
2.08865
0.0271137
0.0363443
0.0473956
0.053126
0.0747124
0.133831
0.157022
0.196805
0.26711
0.367607
0.495839
0.615445
0.756016
0.865567
0.98936
1.11618
1.24343
1.35588
1.59101
1.56404
0.0379222
0.0451167
0.0504278
0.0514402
0.0693306
0.114292
0.142421
0.178206
0.259928
0.355502
0.437099
0.510921
0.599151
0.673727
0.742053
0.814432
0.884284
0.978984
1.12086
1.33495
0.0555939
0.0502426
0.0507795
0.0514136
0.0714369
0.115835
0.150163
0.187357
0.256023
0.318706
0.360246
0.400068
0.438085
0.484366
0.517286
0.563549
0.626467
0.736809
0.842293
1.04434
0.0782979
0.0587421
0.0494193
0.0518039
0.071784
0.111268
0.147205
0.177698
0.2143
0.246486
0.248312
0.263872
0.284138
0.323159
0.37165
0.435454
0.510281
0.592307
0.659294
0.789371
0.101384
0.0744945
0.0514993
0.0519046
0.0658087
0.0911329
0.120933
0.138689
0.147944
0.160056
0.172516
0.1964
0.240172
0.286299
0.329248
0.379819
0.427659
0.476137
0.503307
0.564782
0.113637
0.0964197
0.0626086
0.05256
0.0565073
0.0649162
0.0840368
0.101951
0.11546
0.135576
0.169019
0.196821
0.231069
0.265177
0.29394
0.321425
0.336485
0.35268
0.354352
0.38883
0.129273
0.109726
0.0827693
0.0562351
0.0560287
0.0615458
0.0737472
0.0985395
0.117052
0.14092
0.171866
0.189384
0.209399
0.225137
0.238749
0.238277
0.233177
0.235718
0.246966
0.299425
0.165468
0.129948
0.100971
0.0648839
0.0591824
0.0645039
0.0759733
0.102678
0.122217
0.139967
0.157731
0.16249
0.168561
0.171283
0.173554
0.175496
0.181414
0.196276
0.217198
0.255323
0.180227
0.138812
0.115588
0.0831191
0.0688067
0.072641
0.0793214
0.096964
0.113144
0.111636
0.110258
0.110185
0.110641
0.113749
0.120996
0.133871
0.148424
0.162825
0.177016
0.188651
0.187263
0.153479
0.155747
0.134808
0.131475
0.155407
0.17426
0.183637
0.198342
0.204803
0.2067
0.204404
0.206422
0.218933
0.239356
0.243073
0.234475
0.237262
0.25544
0.277737
0.280014
0.377369
0.441371
0.4623
0.460546
0.498796
0.520507
0.515323
0.534225
0.561626
0.597729
0.627858
0.649069
0.658338
0.676139
0.695214
0.680911
0.686267
0.73326
0.733029
0.752139
0.8993
0.984091
1.05711
1.11182
1.19247
1.2199
1.22267
1.21003
1.21876
1.24211
1.29769
1.35257
1.35644
1.32708
1.29563
1.29801
1.32715
1.35135
1.34564
0.382767
0.54554
0.743502
0.912814
1.01917
1.14587
1.19618
1.23639
1.23947
1.24311
1.25538
1.28873
1.32528
1.33831
1.33566
1.32679
1.32664
1.33245
1.33763
1.33475
0.193844
0.213852
0.319339
0.489153
0.730092
0.955761
1.08235
1.1891
1.25472
1.26804
1.27838
1.28542
1.29457
1.31298
1.3373
1.34648
1.34938
1.33958
1.32192
1.3234
0.270534
0.298671
0.342478
0.339074
0.357826
0.456249
0.731367
1.01154
1.16819
1.25884
1.29962
1.27304
1.25899
1.2811
1.32997
1.35464
1.35784
1.34363
1.3197
1.32346
0.336656
0.365207
0.393379
0.409604
0.396702
0.389471
0.416433
0.545088
0.856311
1.15708
1.25138
1.24714
1.23313
1.25735
1.32238
1.36216
1.36345
1.34144
1.31417
1.32298
0.421534
0.455235
0.490622
0.479582
0.447231
0.443293
0.446267
0.451883
0.507836
0.730401
1.03304
1.22069
1.215
1.23675
1.30233
1.35385
1.3566
1.33365
1.31727
1.3304
0.540727
0.556483
0.578668
0.570964
0.536195
0.512594
0.508079
0.504582
0.512229
0.534688
0.652449
0.957151
1.19039
1.2478
1.27856
1.32877
1.3338
1.31916
1.32528
1.34118
0.705488
0.676111
0.673818
0.664131
0.622769
0.58075
0.559499
0.548701
0.548746
0.546179
0.553166
0.625894
0.914
1.20395
1.25214
1.31567
1.30868
1.31046
1.3393
1.34709
0.936115
0.819546
0.758166
0.747984
0.718562
0.658844
0.624611
0.600397
0.588971
0.589456
0.579113
0.580012
0.636172
0.88234
1.16547
1.30604
1.27586
1.29949
1.35236
1.34786
1.22419
1.01771
0.865333
0.845798
0.829222
0.776878
0.724923
0.668175
0.624494
0.617224
0.615469
0.613453
0.613663
0.643831
0.849589
1.14411
1.21722
1.30671
1.36189
1.34319
1.77704
1.36452
1.05069
0.897422
0.892013
0.910642
0.888148
0.816703
0.74764
0.700155
0.682396
0.67883
0.672409
0.653689
0.665225
0.778099
1.0364
1.24326
1.31776
1.33075
2.81345
2.12841
1.66751
1.28201
1.06217
1.05726
1.04192
0.954075
0.843875
0.77899
0.752936
0.759466
0.753067
0.72921
0.693637
0.686396
0.733313
0.890093
1.10071
1.27066
3.4888
3.01707
2.39373
1.91042
1.51514
1.25632
1.17111
1.07151
0.963727
0.923959
0.903259
0.888434
0.863353
0.810697
0.767481
0.725473
0.726678
0.737795
0.797061
1.04241
3.29706
3.27096
3.11486
2.68082
2.2113
1.74469
1.48794
1.34064
1.24527
1.15588
1.05444
0.977541
0.919673
0.857149
0.843711
0.832497
0.804143
0.778573
0.762434
0.814769
2.34934
2.98893
3.09893
3.05634
2.87936
2.49438
2.04842
1.73354
1.51198
1.35715
1.20693
1.08934
1.02246
0.985194
0.977284
0.963825
0.922426
0.866675
0.800242
0.802297
1.55248
2.00933
2.58106
2.95045
2.94838
2.89623
2.68946
2.35636
1.98586
1.71559
1.53388
1.3771
1.27641
1.18326
1.10134
1.04841
0.984998
0.913742
0.868645
0.849538
1.40633
1.46245
1.68448
2.16335
2.60067
2.82324
2.81257
2.75222
2.56283
2.25251
1.96625
1.70828
1.50824
1.36655
1.22212
1.13741
1.091
1.02687
1.00568
0.966629
1.40013
1.40158
1.41432
1.50929
1.77774
2.19482
2.54887
2.7043
2.69393
2.63417
2.47339
2.21033
1.92539
1.71743
1.53109
1.38118
1.31466
1.24634
1.16527
1.05751
1.40001
1.40002
1.40021
1.40353
1.42647
1.54146
1.8037
2.17772
2.46395
2.59585
2.58817
2.54008
2.39879
2.17464
1.93955
1.70379
1.52878
1.40408
1.29954
1.16592
1.40001
1.40001
1.40001
1.40004
1.40045
1.40572
1.43319
1.55192
1.79949
2.13462
2.37333
2.49689
2.49203
2.45415
2.34678
2.15543
1.9294
1.71633
1.57406
1.4004
1.40001
1.40001
1.40001
1.40001
1.40001
1.40008
1.40065
1.40678
1.43767
1.54603
1.76762
2.0672
2.29279
2.40536
2.40349
2.37836
2.29453
2.13219
1.95127
1.67471
1.40001
1.40001
1.40001
1.40001
1.40001
1.40001
1.40001
1.4001
1.40083
1.40645
1.43665
1.52958
1.72656
1.98414
2.21324
2.32795
2.32467
2.30646
2.25732
2.04391
1.40001
1.40001
1.40001
1.40001
1.40001
1.40001
1.40001
1.40001
1.40001
1.40009
1.40087
1.40563
1.43086
1.51352
1.67505
1.91069
2.1124
2.25725
2.2561
2.2196
1.40001
1.40001
1.40001
1.40001
1.40001
1.40001
1.40001
1.40001
1.40001
1.40001
1.40001
1.40008
1.40073
1.40496
1.42341
1.49224
1.62797
1.83828
2.0202
2.16994
1.40001
1.40001
1.40001
1.40001
1.40001
1.40001
1.40001
1.40001
1.40001
1.40001
1.40001
1.40001
1.40001
1.40007
1.40055
1.40372
1.41953
1.47165
1.59053
1.94394
2.25364
3.42522
3.5944
2.90884
1.83208
1.45144
1.40261
1.40007
1.40001
1.40001
1.40001
1.40001
1.40001
1.40001
1.40001
3.26406
3.91323
3.51886
2.15255
1.46731
1.40114
1.40001
1.4
1.40001
1.40001
1.40001
1.40001
1.40001
1.40001
1.40001
4.07483
3.99042
2.7607
1.61238
1.40729
1.40007
1.40001
1.40001
1.40001
1.40001
1.40001
1.40001
1.40001
1.40001
1.40001
4.52052
3.56147
1.90773
1.42709
1.40028
1.40001
1.40001
1.40001
1.40001
1.40001
1.40001
1.40001
1.40001
1.40001
1.40001
4.62412
2.34946
1.46514
1.40068
1.40001
1.40001
1.40001
1.40001
1.40001
1.40001
1.40001
1.40001
1.40001
1.40001
1.40001
2.88751
1.50237
1.40071
1.4
1.4
1.40001
1.40001
1.40001
1.40001
1.40001
1.40001
1.40001
1.40001
1.40001
1.40001
1.54266
1.4008
1.4
1.4
1.40001
1.40001
1.40001
1.40001
1.40001
1.40001
1.40001
1.40001
1.40001
1.40001
1.40001
1.3974
1.39982
1.4
1.40001
1.40001
1.40001
1.40001
1.40001
1.40001
1.40001
1.40001
1.40001
1.40001
1.40001
1.40001
1.39996
1.40001
1.40001
1.40001
1.40001
1.40001
1.40001
1.40001
1.40001
1.40001
1.40001
1.40001
1.40001
1.40001
1.40001
1.40001
1.40001
1.40001
1.40001
1.40001
1.40001
1.40001
1.40001
1.40001
1.40001
1.40001
1.40001
1.40001
1.40001
1.40001
1.40001
1.40001
1.40001
1.40001
1.40001
1.40001
1.40001
1.40001
1.40001
1.40001
1.40001
1.40001
1.40001
1.40001
1.40001
1.40001
1.40001
1.40001
1.40001
1.40001
1.40001
1.40001
1.40001
1.40001
1.40001
1.40001
1.40001
1.40001
1.40001
1.40001
1.40001
1.40001
1.40001
1.40001
1.40001
1.40001
1.40001
1.40001
1.40001
1.40001
1.40001
1.40001
1.40001
1.40001
1.40001
1.40001
1.40001
1.40001
1.40001
1.40001
1.40001
1.40001
1.40001
1.40001
1.40001
1.40001
1.40001
1.40001
1.40001
1.40001
1.40001
1.40001
1.40001
1.40001
1.40001
1.40001
1.40001
1.40001
1.40001
1.40001
1.40001
1.40001
1.40001
1.40001
1.40001
1.40001
1.40001
1.40001
1.40001
1.40001
1.40001
1.40001
1.40001
1.40001
1.40001
1.40001
1.40001
1.40001
1.40001
1.40001
1.40001
1.40001
1.40001
1.40001
1.40001
1.40001
1.40001
1.40001
1.40001
1.40001
1.40001
1.40001
1.40001
1.40001
1.40001
1.40001
1.40001
1.40001
1.40001
1.40001
1.40001
1.40001
1.40001
1.40001
1.40001
1.40001
1.40001
1.40001
1.40001
1.40001
1.40001
1.40001
1.40001
1.40001
1.40001
1.40001
1.40001
1.40001
1.40001
1.40001
1.40001
1.40001
1.40001
1.40001
1.40001
1.40001
1.40001
1.40001
1.40001
1.40001
1.40001
1.40001
1.40001
1.40001
1.40001
1.40001
1.40001
1.40001
1.40001
1.40001
1.40001
1.40001
1.40001
1.40001
1.40001
1.40001
1.40001
1.40001
1.40001
1.40001
1.40001
1.40001
1.40001
1.40001
1.40001
1.40001
1.40001
1.40001
1.40001
1.40001
1.40001
1.40001
1.40001
1.40001
1.40001
1.40001
1.40001
1.40001
1.40001
1.40001
1.40001
1.40001
1.40001
1.40001
1.40001
1.40001
1.40001
1.40001
1.40001
1.40001
1.40001
1.40001
1.40001
1.40001
1.40001
1.40001
1.40001
1.40001
1.40001
1.40001
1.40001
1.40001
1.40001
1.40001
1.40001
1.40001
1.40001
1.40001
1.40001
1.40001
1.40001
1.40001
1.40001
1.40001
1.40001
1.40001
1.40001
1.40001
1.40001
1.40001
1.40001
1.40001
1.40001
1.40001
1.40001
1.40001
1.40001
1.40001
1.40001
1.40001
1.40001
1.40001
1.40001
1.40001
1.40001
1.40001
1.40001
1.40001
1.40001
1.40001
1.40001
1.40001
1.40001
1.40001
1.40001
1.40001
1.40001
1.40001
1.40001
1.40001
1.40001
1.40001
1.40001
1.40001
1.40001
1.40001
1.40001
1.40001
1.40001
1.40001
1.40001
1.40001
1.40001
1.40001
1.40001
1.40001
1.40001
1.40001
1.40001
1.40001
1.40001
1.40001
1.40001
1.40001
1.40001
1.40001
1.40001
1.40001
1.40001
1.40001
1.40001
1.40001
1.40001
1.40001
1.40001
1.40001
1.40001
1.40001
1.40001
1.40001
1.40001
1.40001
1.40001
1.40001
1.40001
1.40001
1.40001
1.40001
1.40001
1.40001
1.40001
1.40001
1.40001
1.40001
1.40001
1.40001
1.40001
1.40001
1.40001
1.40001
1.40001
1.40001
1.40001
1.40001
1.40001
1.40001
1.40001
1.40001
1.40001
1.40001
1.40001
1.40001
1.40001
1.40001
1.40001
1.40001
1.40001
1.40001
1.40001
1.40001
1.40001
1.40001
1.40001
1.40001
1.40001
1.40001
1.40001
1.40001
1.40001
1.40001
1.40001
1.40001
1.40001
1.40001
1.40001
1.40001
1.40001
1.40001
1.40001
1.40001
1.40001
1.40001
1.40001
1.40001
1.40001
1.40001
1.40001
1.40001
1.40001
1.40001
1.40001
1.40001
1.40001
1.40001
1.40001
1.40001
1.40001
1.40001
1.40001
1.40001
1.40001
1.40001
1.40001
1.40001
1.40001
1.40001
1.40001
1.40001
1.40001
1.40001
1.40001
1.40001
1.40001
1.40001
1.40001
1.40001
1.40001
1.40001
1.40001
1.40001
1.40001
1.40001
1.40001
1.40001
1.40001
1.40001
1.40001
1.40001
1.40001
1.40001
1.40001
1.40001
1.40001
1.40001
1.40001
1.40001
1.40001
1.40001
1.40001
1.40001
1.40001
1.40001
1.40001
1.40001
1.40001
1.40001
1.40001
1.40001
1.40001
1.40001
1.40001
1.40001
1.40001
1.40001
1.40001
1.40001
1.40001
1.40001
1.40001
1.40001
1.40001
1.40001
1.40001
1.40001
1.40001
1.40001
1.40001
1.40001
1.40001
1.40001
1.40001
1.40001
1.40001
1.40001
1.40001
1.40001
1.40001
1.40001
1.40001
1.40001
1.40001
1.40001
1.40001
1.40001
1.40001
1.40001
1.40001
1.40001
1.40001
1.40001
1.40001
1.40001
1.40001
1.40001
1.40001
1.40001
1.40001
1.40001
1.40001
1.40001
1.40001
1.40001
1.40001
1.40001
1.40001
1.40001
1.40001
1.40001
1.40001
1.40001
1.40001
1.40001
1.40001
1.40001
1.40001
1.40001
1.40001
1.40001
1.40001
1.40001
1.40001
1.40001
1.40001
1.40001
1.40001
1.40001
1.40001
1.40001
1.40001
1.40001
1.40001
1.40001
1.40001
1.40001
1.40001
1.40001
1.40001
1.40001
1.40001
1.40001
1.40001
1.40001
1.40001
1.40001
1.40001
1.40001
1.40001
1.40001
1.40001
1.40001
1.40001
1.40001
1.40001
1.40001
1.40001
1.40001
1.40001
1.40001
1.40001
1.40001
1.40001
1.40001
1.40001
1.40001
1.40001
1.40001
1.40001
1.40001
1.40001
1.40001
1.40001
1.40001
1.40001
1.40001
1.40001
1.40001
1.40001
1.40001
1.40001
1.40001
1.40001
1.40001
1.40001
1.40001
1.40001
1.40001
1.40001
1.40001
1.40001
1.40001
1.40001
1.40001
1.40001
1.40001
1.40001
1.40001
1.40001
1.40001
1.40001
1.40001
1.40001
1.40001
1.40001
1.40001
1.40001
1.40001
1.40001
1.40001
1.40001
1.40001
1.40001
1.40001
1.40001
1.40001
1.40001
1.40001
1.40001
1.40001
1.40001
1.40001
1.40001
1.40001
1.40001
1.40001
1.40001
1.40001
1.40001
1.40001
1.40001
1.40001
1.40001
1.40001
1.40001
1.40001
1.40001
1.40001
1.40001
1.40001
1.40001
1.40001
1.40001
1.40001
1.40001
1.40001
1.40001
1.40001
1.40001
1.40001
1.40001
1.40001
1.40001
1.40001
1.40001
1.40001
1.40001
1.40001
1.40001
1.40001
1.40001
1.40001
1.40001
1.40001
1.40001
1.40001
1.40001
1.40001
1.40001
1.40001
1.40001
1.40001
1.40001
1.40001
1.40001
1.40001
1.40001
1.40001
1.40001
1.40001
1.40001
1.40001
1.40001
1.40001
1.40001
1.40001
1.40001
1.40001
1.40001
1.40001
1.40001
1.40001
1.40001
1.40001
1.40001
1.40001
1.40001
1.40001
1.40001
1.40001
1.40001
1.40001
1.40001
1.40001
1.40001
1.40001
1.40001
1.40001
1.40001
1.40001
1.40001
1.40001
1.40001
1.40001
1.40001
1.40001
1.40001
1.40001
1.40001
1.40001
1.40001
1.40001
1.40001
1.40001
1.40001
1.40001
1.40001
1.40001
1.40001
1.40001
1.40001
1.40001
1.40001
1.40001
1.40001
1.40001
1.40001
1.40001
1.40001
1.40001
1.40001
1.40001
1.40001
1.40001
1.40001
1.40001
1.40001
1.40001
1.40001
1.40001
1.40001
1.40001
1.40001
1.40001
1.40001
1.40001
1.40001
1.40001
1.40001
1.40001
1.40001
1.40001
1.40001
1.40001
1.40001
1.40001
1.40001
1.40001
1.40001
1.40001
1.40001
1.40001
1.40001
1.40001
1.40001
1.40001
1.40001
1.40001
1.40001
1.40001
1.40001
1.40001
1.40001
1.40001
1.40001
1.40001
1.40001
1.40001
1.40001
1.40001
1.40001
1.40001
1.40001
1.40001
1.40001
1.40001
1.40001
1.40001
1.40001
1.40001
1.40001
1.40001
1.40001
1.40001
1.40001
1.40001
1.40001
1.40001
1.40001
1.40001
1.40001
1.40001
1.40001
1.40001
1.40001
1.40001
1.40001
1.40001
1.40001
1.40001
1.40001
1.40001
1.40001
1.40001
1.40001
1.40001
1.40001
1.40001
1.40001
1.40001
1.40001
1.40001
1.40001
1.40001
1.40001
1.40001
1.40001
1.40001
1.40001
1.40001
1.40001
1.40001
1.40001
1.40001
1.40001
1.40001
1.40001
1.39996
1.40001
1.40001
1.40001
1.40001
1.40001
1.40001
1.40001
1.40001
1.40001
1.40001
1.40001
1.40001
1.40001
1.40001
1.3974
1.39982
1.4
1.40001
1.40001
1.40001
1.40001
1.40001
1.40001
1.40001
1.40001
1.40001
1.40001
1.40001
1.40001
1.54272
1.4008
1.4
1.4
1.40001
1.40001
1.40001
1.40001
1.40001
1.40001
1.40001
1.40001
1.40001
1.40001
1.40001
2.88786
1.50243
1.4007
1.4
1.4
1.40001
1.40001
1.40001
1.40001
1.40001
1.40001
1.40001
1.40001
1.40001
1.40001
4.62411
2.34946
1.46522
1.40069
1.40001
1.40001
1.40001
1.40001
1.40001
1.40001
1.40001
1.40001
1.40001
1.40001
1.40001
4.52077
3.56191
1.90779
1.42692
1.40027
1.40001
1.40001
1.40001
1.40001
1.40001
1.40001
1.40001
1.40001
1.40001
1.40001
4.07556
3.99128
2.76082
1.61266
1.40733
1.40008
1.40001
1.40001
1.40001
1.40001
1.40001
1.40001
1.40001
1.40001
1.40001
3.26408
3.91386
3.51849
2.15177
1.46721
1.40114
1.40001
1.4
1.40001
1.40001
1.40001
1.40001
1.40001
1.40001
1.40001
2.25409
3.42488
3.59491
2.90878
1.83186
1.45141
1.40261
1.40007
1.40001
1.40001
1.40001
1.40001
1.40001
1.40001
1.40001
1.77575
2.81099
3.48708
3.29567
2.34876
1.55225
1.40633
1.40013
1.40001
1.40001
1.40001
1.40001
1.40001
1.40001
1.40001
1.3726
2.12508
3.00995
3.27012
2.98974
2.01021
1.46255
1.40159
1.40002
1.40001
1.40001
1.40001
1.40001
1.40001
1.40001
1.05045
1.66954
2.40743
3.11081
3.09803
2.58184
1.68528
1.41438
1.40021
1.40001
1.40001
1.40001
1.40001
1.40001
1.40001
0.894311
1.2614
1.91422
2.6906
3.05627
2.95042
2.16309
1.5094
1.40353
1.40004
1.40001
1.40001
1.40001
1.40001
1.40001
0.88568
1.07459
1.49248
2.20872
2.88503
2.94837
2.60156
1.77726
1.42638
1.40045
1.40001
1.40001
1.40001
1.40001
1.40001
0.902635
1.08106
1.25588
1.73217
2.48742
2.89519
2.82235
2.19459
1.54127
1.40569
1.40007
1.40001
1.40001
1.40001
1.40001
0.874701
1.05193
1.17783
1.4995
2.0408
2.68956
2.81269
2.54821
1.80378
1.4334
1.40065
1.40001
1.40001
1.40001
1.40001
0.798884
0.939248
1.05744
1.35272
1.74623
2.36058
2.75179
2.70478
2.1784
1.55175
1.40675
1.40009
1.40001
1.40001
1.40001
0.740194
0.831367
0.941976
1.23803
1.51553
1.98564
2.56499
2.69483
2.46559
1.80018
1.43762
1.40083
1.40001
1.40001
1.40001
0.701987
0.783228
0.925034
1.14569
1.35087
1.71528
2.25766
2.63516
2.5957
2.13389
1.54661
1.40653
1.40009
1.40001
1.40001
0.686368
0.758345
0.912646
1.05591
1.20501
1.52957
1.96273
2.47305
2.58771
2.37456
1.76769
1.43651
1.40087
1.40001
1.40001
0.672384
0.76107
0.892593
0.98224
1.10092
1.38116
1.7033
2.20875
2.53917
2.49702
2.06767
1.52972
1.40562
1.40008
1.40001
0.667269
0.752394
0.860698
0.914338
1.0337
1.28496
1.51085
1.92793
2.39723
2.49175
2.29145
1.727
1.43105
1.40073
1.40001
0.656984
0.731989
0.815997
0.8567
0.979818
1.18746
1.36209
1.71319
2.175
2.454
2.40583
1.98423
1.51337
1.40496
1.40007
0.666447
0.699159
0.777644
0.842436
0.971852
1.10617
1.22158
1.52095
1.93649
2.34638
2.40418
2.21396
1.6747
1.42333
1.40055
0.770398
0.686655
0.735034
0.822961
0.956072
1.04662
1.14305
1.38506
1.70384
2.15481
2.37909
2.32719
1.91074
1.49242
1.40373
1.02325
0.733275
0.737567
0.790573
0.911644
0.977049
1.09042
1.31948
1.53351
1.93072
2.29473
2.32435
2.113
1.62844
1.41961
1.23512
0.889082
0.748013
0.777432
0.861209
0.911468
1.02493
1.24727
1.40478
1.71714
2.13277
2.3068
2.25762
1.83839
1.47164
1.31048
1.09859
0.805566
0.767558
0.798627
0.872665
1.01021
1.16322
1.29656
1.57409
1.95229
2.25783
2.25641
2.02047
1.59038
1.32978
1.26908
1.04659
0.817737
0.803036
0.849317
0.970583
1.05456
1.1625
1.40042
1.67566
2.04485
2.21998
2.17038
1.94397
1.22873
1.03219
0.871786
0.842953
0.823004
0.761612
0.70689
0.648008
0.629543
0.635515
0.624703
0.608554
0.613075
0.643435
0.851718
1.15064
1.2185
1.29935
1.35704
1.343
0.947764
0.830295
0.7578
0.744709
0.721528
0.66603
0.629625
0.605536
0.592655
0.597511
0.572774
0.574948
0.632297
0.886784
1.1654
1.29326
1.26546
1.2901
1.34884
1.34866
0.713108
0.681419
0.668887
0.65577
0.618825
0.578593
0.558044
0.551986
0.554003
0.547392
0.549261
0.626213
0.913773
1.19298
1.23836
1.30379
1.30028
1.3048
1.33513
1.34865
0.540937
0.556673
0.578017
0.569068
0.534979
0.517915
0.514249
0.517071
0.523016
0.537254
0.652709
0.962896
1.20569
1.23359
1.26736
1.33177
1.3417
1.32309
1.32825
1.34333
0.421669
0.455861
0.485493