/*--------------------------------*- C++ -*----------------------------------*\
  =========                 |
  \\      /  F ield         | OpenFOAM: The Open Source CFD Toolbox
   \\    /   O peration     | Website:  https://openfoam.org
    \\  /    A nd           | Version:  7
     \\/     M anipulation  |
\*---------------------------------------------------------------------------*/
FoamFile
{
    version     2.0;
    format      ascii;
    class       volVectorField;
    location    "8.8";
    object      U;
}
// * * * * * * * * * * * * * * * * * * * * * * * * * * * * * * * * * * * * * //

dimensions      [0 1 -1 0 0 0 0];

internalField   nonuniform List<vector> 
3700
(
(1.39174 -0.484154 0)
(1.36305 -0.531468 0)
(1.28345 -0.398411 0)
(1.24705 -0.26574 0)
(1.35623 -0.281332 0)
(1.49069 -0.376472 0)
(1.50645 -0.378294 0)
(1.45807 -0.307756 0)
(1.42959 -0.222412 0)
(1.47185 -0.171986 0)
(1.51187 -0.121502 0)
(1.55207 -0.0878272 0)
(1.60183 -0.105508 0)
(1.6193 -0.17975 0)
(1.65789 -0.271176 0)
(1.66724 -0.266737 0)
(1.67244 -0.196857 0)
(1.74882 -0.09979 0)
(1.86973 -0.0591367 0)
(1.92539 -0.0781692 0)
(1.59139 -1.44124 0)
(1.77015 -1.44665 0)
(1.85883 -1.71978 0)
(1.86789 -1.74543 0)
(1.89565 -1.73664 0)
(1.93351 -1.9185 0)
(1.8614 -1.7723 0)
(1.72636 -1.56763 0)
(1.66344 -1.30886 0)
(1.6977 -1.09363 0)
(1.77907 -0.954501 0)
(1.87373 -0.920819 0)
(1.94917 -0.930389 0)
(2.06109 -1.11394 0)
(2.08275 -1.26256 0)
(2.076 -1.28595 0)
(2.06504 -1.24029 0)
(2.08666 -1.06482 0)
(2.21989 -0.945867 0)
(2.33671 -0.95695 0)
(1.6528 -1.4219 0)
(1.96433 -1.34499 0)
(2.16364 -1.85827 0)
(2.16284 -2.16767 0)
(2.08968 -2.29672 0)
(2.05997 -2.34 0)
(2.07418 -2.21897 0)
(1.99207 -2.18867 0)
(2.01339 -2.14683 0)
(2.05308 -2.06056 0)
(2.17309 -1.99723 0)
(2.28521 -1.96585 0)
(2.39764 -1.89803 0)
(2.46414 -1.85669 0)
(2.50879 -1.83625 0)
(2.53149 -1.78823 0)
(2.49396 -1.79659 0)
(2.49095 -1.68536 0)
(2.49372 -1.67201 0)
(2.54578 -1.57584 0)
(1.76167 -1.45683 0)
(2.10511 -1.32666 0)
(2.26803 -1.82502 0)
(2.20883 -2.13046 0)
(2.18561 -2.20587 0)
(2.13162 -2.28714 0)
(2.17278 -2.15637 0)
(2.0567 -2.13676 0)
(2.07509 -2.11622 0)
(2.16515 -2.02084 0)
(2.21837 -1.94163 0)
(2.32101 -1.84335 0)
(2.42342 -1.74636 0)
(2.54825 -1.63538 0)
(2.68266 -1.51793 0)
(2.76812 -1.42906 0)
(2.75266 -1.46023 0)
(2.74056 -1.4291 0)
(2.65034 -1.47792 0)
(2.59493 -1.40266 0)
(1.91473 -1.52014 0)
(2.17352 -1.36524 0)
(2.15006 -1.88215 0)
(2.01042 -2.17436 0)
(2.06705 -2.19289 0)
(2.12133 -2.26907 0)
(2.18988 -2.13616 0)
(2.14517 -2.07182 0)
(2.2377 -1.98671 0)
(2.35769 -1.87624 0)
(2.32111 -1.93639 0)
(2.38755 -1.77973 0)
(2.42499 -1.70773 0)
(2.48905 -1.62554 0)
(2.61444 -1.50313 0)
(2.68367 -1.35083 0)
(2.75857 -1.13573 0)
(2.85084 -1.00653 0)
(2.85213 -0.965593 0)
(2.73465 -1.06514 0)
(1.90557 -1.55857 0)
(1.98742 -1.53186 0)
(1.85133 -1.99377 0)
(1.80667 -2.19027 0)
(1.98027 -2.17021 0)
(2.02427 -2.15434 0)
(2.12199 -2.09221 0)
(2.23969 -1.96889 0)
(2.32001 -1.9228 0)
(2.46397 -1.72481 0)
(2.50558 -1.74595 0)
(2.57474 -1.62132 0)
(2.56378 -1.56165 0)
(2.56376 -1.48579 0)
(2.58943 -1.40143 0)
(2.6222 -1.29149 0)
(2.67459 -1.17593 0)
(2.80415 -1.07303 0)
(2.83739 -0.822568 0)
(2.83578 -0.682809 0)
(1.739 -1.55374 0)
(1.69575 -1.69506 0)
(1.58349 -2.01504 0)
(1.68133 -2.13658 0)
(1.73183 -2.10145 0)
(1.89945 -1.98924 0)
(1.99159 -1.99264 0)
(2.21154 -1.75709 0)
(2.38001 -1.67194 0)
(2.53366 -1.53686 0)
(2.58433 -1.50415 0)
(2.68261 -1.341 0)
(2.69438 -1.29803 0)
(2.68866 -1.26246 0)
(2.69432 -1.15581 0)
(2.68401 -1.07999 0)
(2.68002 -0.980945 0)
(2.74363 -0.965708 0)
(2.74818 -0.809021 0)
(2.79318 -0.582181 0)
(1.51428 -1.46762 0)
(1.49304 -1.60044 0)
(1.47297 -1.98428 0)
(1.62922 -2.09851 0)
(1.71487 -2.06164 0)
(1.84187 -1.9697 0)
(1.96089 -1.91471 0)
(2.12796 -1.68625 0)
(2.23926 -1.58603 0)
(2.4049 -1.50583 0)
(2.52107 -1.25651 0)
(2.65121 -1.11503 0)
(2.69123 -0.912106 0)
(2.73318 -0.858076 0)
(2.76533 -0.748977 0)
(2.75919 -0.749853 0)
(2.7447 -0.649322 0)
(2.72767 -0.690817 0)
(2.72709 -0.668319 0)
(2.71278 -0.469081 0)
(1.38158 -1.26953 0)
(1.398 -1.41416 0)
(1.46846 -1.87563 0)
(1.63327 -2.05729 0)
(1.77052 -1.9969 0)
(1.88097 -1.95872 0)
(2.03308 -1.86403 0)
(2.19306 -1.60575 0)
(2.24494 -1.53844 0)
(2.32979 -1.49978 0)
(2.4467 -1.2724 0)
(2.56732 -1.1524 0)
(2.62431 -0.878981 0)
(2.74404 -0.766312 0)
(2.74017 -0.490253 0)
(2.75264 -0.399049 0)
(2.74398 -0.269813 0)
(2.71958 -0.262492 0)
(2.70284 -0.370915 0)
(2.66356 -0.262381 0)
(1.30907 -1.08173 0)
(1.33061 -1.3211 0)
(1.52856 -1.82045 0)
(1.68066 -2.07038 0)
(1.83715 -1.95522 0)
(2.02017 -1.9 0)
(2.18464 -1.70682 0)
(2.34383 -1.36355 0)
(2.46892 -1.31751 0)
(2.48085 -1.34642 0)
(2.52915 -1.14525 0)
(2.578 -1.00138 0)
(2.59525 -0.812472 0)
(2.681 -0.726847 0)
(2.67847 -0.489033 0)
(2.71738 -0.35138 0)
(2.7036 -0.143231 0)
(2.67764 -0.00111058 0)
(2.63314 -0.00518461 0)
(2.61804 -0.0238029 0)
(1.18446 -0.969853 0)
(1.29648 -1.28173 0)
(1.66192 -1.88773 0)
(1.76907 -2.18972 0)
(2.30613 -1.91272 0)
(2.45423 -1.96194 0)
(2.61811 -1.51246 0)
(2.69746 -1.1507 0)
(2.73694 -0.945144 0)
(2.73254 -0.815533 0)
(2.73136 -0.703947 0)
(2.71597 -0.545764 0)
(2.68644 -0.455442 0)
(2.68886 -0.38068 0)
(2.66051 -0.27061 0)
(2.65068 -0.208899 0)
(2.64048 -0.0998435 0)
(2.60705 0.0611491 0)
(2.54843 0.207861 0)
(2.5659 0.158955 0)
(1.02756 -0.902845 0)
(1.28076 -1.304 0)
(1.7491 -1.96881 0)
(2.14381 -2.30317 0)
(2.58164 -1.76295 0)
(2.4758 -1.78681 0)
(2.62125 -1.26701 0)
(2.68737 -0.989773 0)
(2.71682 -0.890164 0)
(2.70023 -0.501 0)
(2.72888 -0.344109 0)
(2.68385 -0.110441 0)
(2.67106 -0.0144644 0)
(2.6404 0.097778 0)
(2.61261 0.150469 0)
(2.57729 0.165318 0)
(2.54944 0.154471 0)
(2.52703 0.181348 0)
(2.44978 0.338741 0)
(2.45957 0.331825 0)
(0.896801 -0.840778 0)
(1.36022 -1.39168 0)
(2.07061 -2.09325 0)
(2.28143 -2.04433 0)
(2.34788 -1.63562 0)
(2.30991 -1.52321 0)
(2.40999 -1.12196 0)
(2.47549 -0.890862 0)
(2.49115 -0.755658 0)
(2.53461 -0.534495 0)
(2.60352 -0.336403 0)
(2.57696 -0.0641715 0)
(2.58159 0.108078 0)
(2.53173 0.294827 0)
(2.48449 0.42695 0)
(2.44442 0.48212 0)
(2.3906 0.530934 0)
(2.38604 0.472625 0)
(2.3259 0.540908 0)
(2.32794 0.510882 0)
(0.83943 -0.887482 0)
(1.70079 -1.9578 0)
(2.12075 -2.00224 0)
(2.07972 -1.71966 0)
(2.19427 -1.50435 0)
(2.32945 -1.1957 0)
(2.42102 -0.849557 0)
(2.48383 -0.626882 0)
(2.48927 -0.318772 0)
(2.51703 -0.211082 0)
(2.52356 -0.0183412 0)
(2.4815 0.1654 0)
(2.45424 0.295004 0)
(2.40823 0.420819 0)
(2.35471 0.538262 0)
(2.32209 0.601363 0)
(2.23311 0.714943 0)
(2.18815 0.754108 0)
(2.16832 0.777556 0)
(2.14859 0.781703 0)
(0.903566 -1.05794 0)
(1.63584 -2.06055 0)
(1.91436 -1.86189 0)
(2.03793 -1.43052 0)
(2.26268 -1.24669 0)
(2.37779 -0.394363 0)
(2.49981 -0.184078 0)
(2.51843 0.0398558 0)
(2.4654 0.214522 0)
(2.45461 0.340567 0)
(2.40525 0.490384 0)
(2.33454 0.613129 0)
(2.27461 0.68973 0)
(2.21994 0.750595 0)
(2.18001 0.768044 0)
(2.14325 0.790381 0)
(2.08676 0.849383 0)
(2.05647 0.892499 0)
(2.02741 0.941398 0)
(2.05723 0.959164 0)
(1.03245 -1.06104 0)
(1.54531 -1.80252 0)
(1.94357 -1.63683 0)
(2.20398 -0.440449 0)
(2.419 -0.353974 0)
(2.44291 -0.0373661 0)
(2.4605 0.118193 0)
(2.38853 0.383085 0)
(2.33878 0.469716 0)
(2.31212 0.606807 0)
(2.22542 0.757828 0)
(2.12925 0.879155 0)
(2.06119 0.94447 0)
(2.00478 0.997119 0)
(1.97468 0.987909 0)
(1.95826 0.989769 0)
(1.95706 1.00977 0)
(1.97122 0.993161 0)
(1.99504 0.994165 0)
(2.06871 0.979905 0)
(1.18607 -0.452082 0)
(1.84562 -0.60322 0)
(2.32103 -0.66176 0)
(2.36397 0.105318 0)
(2.34497 0.386634 0)
(2.3465 0.334587 0)
(2.27393 0.508318 0)
(2.21107 0.624901 0)
(2.14061 0.744244 0)
(2.09519 0.879062 0)
(1.99103 0.991155 0)
(1.92536 1.05098 0)
(1.88295 1.07894 0)
(1.86556 1.09197 0)
(1.86873 1.05896 0)
(1.89685 1.04921 0)
(1.96281 1.02074 0)
(2.1654 0.901936 0)
(2.38277 0.790395 0)
(2.77872 0.440841 0)
(1.16334 -0.082233 0)
(1.97206 -0.258565 0)
(2.21588 0.524463 0)
(2.23518 0.542023 0)
(2.21413 0.565823 0)
(2.14733 0.737899 0)
(2.02815 0.906278 0)
(1.9542 0.980733 0)
(1.90466 1.03808 0)
(1.85631 1.12335 0)
(1.79736 1.1584 0)
(1.79236 1.14857 0)
(1.80757 1.12939 0)
(1.84597 1.08839 0)
(2.03944 0.95188 0)
(2.25991 0.828613 0)
(2.66434 0.503787 0)
(3.03551 0.0925682 0)
(3.05535 -0.0238011 0)
(3.00407 -0.00469536 0)
(1.01391 0.0161917 0)
(1.90376 0.858289 0)
(2.12695 0.785429 0)
(2.009 0.943142 0)
(1.95618 0.995601 0)
(1.86161 1.09305 0)
(1.78824 1.13421 0)
(1.75853 1.1455 0)
(1.75772 1.16232 0)
(1.7386 1.20415 0)
(1.72519 1.19386 0)
(1.8728 1.06383 0)
(2.09883 0.881667 0)
(2.49648 0.5797 0)
(2.98249 0.139974 0)
(3.07355 -0.0287713 0)
(3.00816 -0.00768352 0)
(3.00292 -0.00382524 0)
(3.00122 -0.00218914 0)
(3.00008 -0.000483409 0)
(1.15563 0.786006 0)
(1.83905 1.13845 0)
(1.84128 1.15362 0)
(1.74292 1.1974 0)
(1.71466 1.20253 0)
(1.66073 1.24496 0)
(1.65087 1.21734 0)
(1.7202 1.16731 0)
(1.74953 1.24121 0)
(1.79148 1.1513 0)
(2.28028 0.741002 0)
(2.86525 0.204287 0)
(3.09846 -0.0304363 0)
(3.02087 -0.0127409 0)
(3.00471 -0.00559487 0)
(3.00187 -0.00306814 0)
(3.00005 -0.000591879 0)
(2.99998 -2.19957e-05 0)
(2.99999 1.43941e-05 0)
(3 5.92781e-06 0)
(1.58059 1.25657 0)
(1.58606 1.26094 0)
(1.59608 1.26571 0)
(1.60158 1.26859 0)
(1.6067 1.26243 0)
(1.59392 1.26718 0)
(1.87265 1.17539 0)
(2.94915 0.411932 0)
(3.37686 -0.659438 0)
(3 6.253e-11 0)
(3 -7.34497e-11 0)
(3 7.80236e-11 0)
(3 2.31415e-15 0)
(3 -4.25685e-13 0)
(3 -1.8254e-14 0)
(3 1.39109e-14 0)
(3 -8.17756e-15 0)
(3 -8.62074e-16 0)
(3 -1.48985e-15 0)
(3 -1.37894e-15 0)
(1.57745 1.24074 0)
(1.59308 1.25244 0)
(1.60623 1.26245 0)
(1.60889 1.27386 0)
(1.63847 1.26494 0)
(1.74432 1.19861 0)
(2.24732 0.741358 0)
(2.99473 0.0153337 0)
(3 5.9641e-08 0)
(3 -2.87148e-11 0)
(3 7.06162e-15 0)
(3 -3.12052e-15 0)
(3 -2.42944e-15 0)
(3 -1.03598e-15 0)
(3 -3.45729e-15 0)
(3 -2.79459e-15 0)
(3 -1.13298e-15 0)
(3 -2.21715e-15 0)
(3 -2.17554e-15 0)
(3 -2.0242e-15 0)
(1.57909 1.24735 0)
(1.60327 1.25353 0)
(1.61674 1.25828 0)
(1.61134 1.26889 0)
(1.74485 1.19592 0)
(2.25378 0.777798 0)
(3.00675 -0.0118714 0)
(2.99996 -0.000258534 0)
(3 7.07195e-07 0)
(3 5.87635e-11 0)
(3 -2.13481e-13 0)
(3 -7.34799e-16 0)
(3 -2.17142e-15 0)
(3 -3.13352e-15 0)
(3 -3.156e-15 0)
(3 -3.60886e-15 0)
(3 -2.52142e-15 0)
(3 -3.00465e-15 0)
(3 -3.27727e-15 0)
(3 -3.2955e-15 0)
(1.58108 1.25242 0)
(1.60165 1.25723 0)
(1.62448 1.26436 0)
(1.62181 1.28281 0)
(1.89829 1.0657 0)
(2.76616 0.211736 0)
(3.00411 0.00016846 0)
(2.99993 5.6957e-05 0)
(3 -8.60753e-07 0)
(3 8.74012e-10 0)
(3 -2.02824e-14 0)
(3 -1.65741e-15 0)
(3 -1.78105e-15 0)
(3 -2.91758e-15 0)
(3 -3.36119e-15 0)
(3 -4.56964e-15 0)
(3 -3.48845e-15 0)
(3 -4.15572e-15 0)
(3 -3.61437e-15 0)
(3 -4.36037e-15 0)
(1.58213 1.26729 0)
(1.5948 1.27208 0)
(1.62514 1.26825 0)
(1.6251 1.28305 0)
(2.3071 0.673867 0)
(3.02194 -0.0194936 0)
(2.99972 9.76125e-05 0)
(3 -4.0243e-06 0)
(3 8.02057e-08 0)
(3 -8.96035e-10 0)
(3 2.27506e-13 0)
(3 -1.11454e-15 0)
(3 -1.29578e-15 0)
(3 -3.22368e-15 0)
(3 -5.26445e-15 0)
(3 -5.23015e-15 0)
(3 -4.25167e-15 0)
(3 -4.00442e-15 0)
(3 -3.531e-15 0)
(3 -5.25667e-15 0)
(1.58278 1.28448 0)
(1.58816 1.28835 0)
(1.6452 1.26136 0)
(1.821 1.12259 0)
(2.69712 0.250732 0)
(3 -5.91418e-10 0)
(3 1.3782e-08 0)
(3 -1.23899e-08 0)
(3 5.25058e-10 0)
(3 2.06454e-12 0)
(3 -1.03313e-13 0)
(3 9.22972e-16 0)
(3 -1.54398e-15 0)
(3 -2.795e-15 0)
(3 -5.45885e-15 0)
(3 -6.53651e-15 0)
(3 -5.98428e-15 0)
(3 -4.2825e-15 0)
(3 -4.65998e-15 0)
(3 -5.92937e-15 0)
(1.58477 1.29885 0)
(1.55298 1.30243 0)
(1.6804 1.22326 0)
(2.17729 0.81658 0)
(3.02311 -0.0213728 0)
(3 -2.41845e-12 0)
(3 1.2642e-12 0)
(3 6.74893e-13 0)
(3 -1.43966e-12 0)
(3 2.39533e-14 0)
(3 -3.504e-16 0)
(3 2.32815e-17 0)
(3 2.60999e-17 0)
(3 -2.30111e-15 0)
(3 -3.55916e-15 0)
(3 -4.56349e-15 0)
(3 -5.5826e-15 0)
(3 -5.01161e-15 0)
(3 -5.56025e-15 0)
(3 -6.25777e-15 0)
(1.59507 1.33063 0)
(1.50181 1.33484 0)
(1.72279 1.19073 0)
(2.38189 0.554401 0)
(3 -4.48521e-08 0)
(3 1.44856e-11 0)
(3 -2.34829e-14 0)
(3 -4.88784e-16 0)
(3 2.60941e-15 0)
(3 -7.17809e-16 0)
(3 2.64146e-16 0)
(3 5.85378e-16 0)
(3 -2.60288e-16 0)
(3 -1.8073e-15 0)
(3 -2.16697e-15 0)
(3 -3.24047e-15 0)
(3 -4.22362e-15 0)
(3 -4.54147e-15 0)
(3 -5.9942e-15 0)
(3 -6.2516e-15 0)
(1.58585 1.30052 0)
(1.47577 1.33951 0)
(2.00154 1.0204 0)
(2.89493 0.100376 0)
(3 -7.30731e-09 0)
(3 4.29864e-11 0)
(3 -1.12946e-13 0)
(3 2.44497e-15 0)
(3 1.00962e-15 0)
(3 1.71808e-15 0)
(3 1.69954e-15 0)
(3 1.52482e-15 0)
(3 7.0753e-16 0)
(3 -2.92485e-16 0)
(3 -1.0901e-15 0)
(3 -1.711e-15 0)
(3 -2.34845e-15 0)
(3 -4.30145e-15 0)
(3 -4.97854e-15 0)
(3 -6.04307e-15 0)
(1.59887 1.29132 0)
(1.46839 1.38955 0)
(2.15513 0.838133 0)
(3.01046 -0.00833298 0)
(3 2.91977e-08 0)
(3 -4.79265e-11 0)
(3 1.07257e-13 0)
(3 1.8616e-15 0)
(3 1.92708e-15 0)
(3 1.51719e-15 0)
(3 1.81293e-15 0)
(3 2.27482e-15 0)
(3 2.07675e-15 0)
(3 1.47671e-15 0)
(3 2.72679e-16 0)
(3 -9.49428e-16 0)
(3 -7.6793e-16 0)
(3 -1.59022e-15 0)
(3 -3.54421e-15 0)
(3 -3.77934e-15 0)
(1.61771 1.28087 0)
(1.55227 1.32784 0)
(2.40157 0.558988 0)
(3 -4.36373e-12 0)
(3 -2.07231e-11 0)
(3 3.9135e-13 0)
(3 -1.341e-15 0)
(3 2.28139e-15 0)
(3 1.75934e-15 0)
(3 1.6026e-15 0)
(3 1.8209e-15 0)
(3 2.08938e-15 0)
(3 2.41074e-15 0)
(3 2.46774e-15 0)
(3 1.89226e-15 0)
(3 9.00773e-16 0)
(3 3.15864e-16 0)
(3 1.299e-16 0)
(3 -7.22361e-16 0)
(3 -1.86396e-15 0)
(1.63648 1.26715 0)
(1.65814 1.23394 0)
(2.65305 0.289084 0)
(3 2.08213e-12 0)
(3 -2.19506e-13 0)
(3 -2.20298e-15 0)
(3 1.84188e-15 0)
(3 1.2359e-15 0)
(3 1.94279e-15 0)
(3 1.26856e-15 0)
(3 1.46615e-15 0)
(3 1.80423e-15 0)
(3 2.53734e-15 0)
(3 2.51296e-15 0)
(3 1.8756e-15 0)
(3 1.62528e-15 0)
(3 1.13333e-15 0)
(3 6.14596e-16 0)
(3 2.15349e-16 0)
(3 -2.66392e-17 0)
(1.65298 1.23726 0)
(1.80183 1.10262 0)
(2.86498 0.0983237 0)
(3 3.71139e-16 0)
(3 1.17126e-15 0)
(3 8.30141e-16 0)
(3 1.00749e-15 0)
(3 1.38076e-15 0)
(3 1.07606e-15 0)
(3 8.4416e-16 0)
(3 8.36819e-16 0)
(3 1.22241e-15 0)
(3 2.20931e-15 0)
(3 2.0201e-15 0)
(3 1.74739e-15 0)
(3 1.30609e-15 0)
(3 1.62239e-15 0)
(3 6.94158e-16 0)
(3 2.54587e-16 0)
(3 3.12921e-16 0)
(1.66932 1.20413 0)
(1.89577 0.972583 0)
(2.98597 0.00826559 0)
(3 4.8767e-16 0)
(3 1.57223e-16 0)
(3 -1.49337e-16 0)
(3 7.23208e-17 0)
(3 5.77249e-16 0)
(3 2.86178e-17 0)
(3 -2.87794e-16 0)
(3 -4.96932e-17 0)
(3 2.54206e-16 0)
(3 7.89778e-16 0)
(3 1.30085e-15 0)
(3 1.66165e-15 0)
(3 1.54603e-15 0)
(3 1.27202e-15 0)
(3 1.29589e-15 0)
(3 5.68644e-16 0)
(3 -2.62104e-16 0)
(1.73427 1.16882 0)
(2.07567 0.817016 0)
(3 -4.16265e-16 0)
(3 -1.11496e-15 0)
(3 -7.65465e-16 0)
(3 -7.55021e-16 0)
(3 -1.41454e-15 0)
(3 -1.34507e-15 0)
(3 -1.2966e-15 0)
(3 -1.17739e-15 0)
(3 -3.88833e-16 0)
(3 6.09377e-17 0)
(3 2.39954e-16 0)
(3 1.29803e-15 0)
(3 1.74467e-15 0)
(3 1.98288e-15 0)
(3 2.08518e-15 0)
(3 2.03235e-15 0)
(3 1.53402e-15 0)
(3 6.14177e-16 0)
(1.75032 1.09572 0)
(2.22489 0.65554 0)
(3 9.71272e-16 0)
(3 8.50589e-16 0)
(3 1.30672e-15 0)
(3 1.77744e-15 0)
(3 2.31033e-15 0)
(3 2.15857e-15 0)
(3 2.44374e-15 0)
(3 2.21803e-15 0)
(3 1.98898e-15 0)
(3 1.87708e-15 0)
(3 2.45277e-15 0)
(3 3.34074e-15 0)
(3 3.04346e-15 0)
(3 3.0968e-15 0)
(3 3.53196e-15 0)
(3 3.39256e-15 0)
(3 3.33921e-15 0)
(3 3.08735e-15 0)
(1.80308 1.01325 0)
(2.41883 0.459823 0)
(3 1.20959e-15 0)
(3 1.08247e-15 0)
(3 1.55243e-15 0)
(3 2.91497e-15 0)
(3 3.47554e-15 0)
(3 3.00978e-15 0)
(3 2.6367e-15 0)
(3 2.34859e-15 0)
(3 2.12672e-15 0)
(3 1.79656e-15 0)
(3 1.60045e-15 0)
(3 2.05694e-15 0)
(3 1.88303e-15 0)
(3 1.77838e-15 0)
(3 2.53024e-15 0)
(3 3.55299e-15 0)
(3 4.27749e-15 0)
(3 3.88635e-15 0)
(1.9477 0.887181 0)
(2.70378 0.216918 0)
(3 3.14385e-15 0)
(3 3.16569e-15 0)
(3 3.56431e-15 0)
(3 3.37208e-15 0)
(3 2.49972e-15 0)
(3 2.20805e-15 0)
(3 1.76415e-15 0)
(3 9.9482e-16 0)
(3 1.04505e-15 0)
(3 1.20367e-15 0)
(3 1.44829e-15 0)
(3 2.30037e-15 0)
(3 3.22846e-15 0)
(3 3.63176e-15 0)
(3 4.06886e-15 0)
(3 3.63738e-15 0)
(3 3.57431e-15 0)
(3 3.66643e-15 0)
(2.10389 0.643779 0)
(2.99108 0.000266265 0)
(3 6.97841e-16 0)
(3 1.49821e-15 0)
(3 2.04982e-15 0)
(3 3.5927e-15 0)
(3 3.61855e-15 0)
(3 3.31927e-15 0)
(3 2.89141e-15 0)
(3 2.74514e-15 0)
(3 2.72906e-15 0)
(3 2.52647e-15 0)
(3 2.36354e-15 0)
(3 2.2743e-15 0)
(3 2.21111e-15 0)
(3 2.05307e-15 0)
(3 2.0502e-15 0)
(3 2.34105e-15 0)
(3 2.80668e-15 0)
(3 3.00346e-15 0)
(1.99531 0.375635 0)
(2.99994 -7.76528e-06 0)
(3 7.07417e-16 0)
(3 9.58348e-16 0)
(3 2.29499e-15 0)
(3 3.04147e-15 0)
(3 3.03522e-15 0)
(3 2.88016e-15 0)
(3 2.59294e-15 0)
(3 2.03284e-15 0)
(3 1.74368e-15 0)
(3 1.44778e-15 0)
(3 1.16891e-15 0)
(3 1.0536e-15 0)
(3 7.67309e-16 0)
(3 3.49197e-16 0)
(3 -2.91849e-17 0)
(3 -2.63104e-16 0)
(3 -3.81087e-16 0)
(3 -4.69616e-16 0)
(1.99473 -0.376752 0)
(2.99994 7.18695e-06 0)
(3 1.47497e-15 0)
(3 9.27761e-16 0)
(3 6.03758e-16 0)
(3 9.68851e-16 0)
(3 1.18576e-15 0)
(3 1.11389e-15 0)
(3 1.16128e-15 0)
(3 1.3671e-15 0)
(3 1.43173e-15 0)
(3 1.50794e-15 0)
(3 1.42951e-15 0)
(3 1.13802e-15 0)
(3 9.69876e-16 0)
(3 9.21422e-16 0)
(3 1.05349e-15 0)
(3 1.19698e-15 0)
(3 1.19005e-15 0)
(3 1.01603e-15 0)
(2.10214 -0.640531 0)
(2.99147 -0.000277048 0)
(3 -2.49054e-15 0)
(3 -1.89679e-15 0)
(3 -1.64324e-15 0)
(3 -2.73418e-16 0)
(3 1.16766e-15 0)
(3 8.4623e-16 0)
(3 3.78323e-16 0)
(3 5.69757e-16 0)
(3 3.94248e-16 0)
(3 2.8752e-16 0)
(3 2.3556e-16 0)
(3 8.79311e-17 0)
(3 8.64945e-17 0)
(3 1.04813e-16 0)
(3 2.95699e-16 0)
(3 4.20059e-16 0)
(3 3.47198e-16 0)
(3 1.10138e-16 0)
(1.95382 -0.886595 0)
(2.70923 -0.213656 0)
(3 -3.57178e-15 0)
(3 -2.85894e-15 0)
(3 -1.90198e-15 0)
(3 -6.1514e-16 0)
(3 3.45505e-16 0)
(3 5.53115e-16 0)
(3 4.49011e-16 0)
(3 -4.38132e-16 0)
(3 -1.21613e-15 0)
(3 -8.08175e-16 0)
(3 -7.32551e-16 0)
(3 -4.63116e-16 0)
(3 -6.49521e-16 0)
(3 -6.17329e-16 0)
(3 -8.8218e-16 0)
(3 -1.59695e-15 0)
(3 -1.76375e-15 0)
(3 -1.54784e-15 0)
(1.80737 -1.01405 0)
(2.4183 -0.460541 0)
(3 -3.07571e-16 0)
(3 -8.79827e-16 0)
(3 -3.98457e-16 0)
(3 2.45392e-17 0)
(3 2.64718e-16 0)
(3 -2.6671e-16 0)
(3 -1.31194e-15 0)
(3 -1.05061e-15 0)
(3 -2.38069e-16 0)
(3 7.5444e-16 0)
(3 1.07324e-15 0)
(3 1.65045e-15 0)
(3 2.41401e-15 0)
(3 2.26414e-15 0)
(3 1.84332e-15 0)
(3 1.32739e-15 0)
(3 9.48807e-16 0)
(3 1.56373e-16 0)
(1.74133 -1.09879 0)
(2.21747 -0.658635 0)
(3 2.50169e-15 0)
(3 3.00897e-15 0)
(3 2.34098e-15 0)
(3 1.59934e-15 0)
(3 5.82347e-16 0)
(3 -1.48485e-16 0)
(3 -5.39368e-16 0)
(3 -3.94484e-16 0)
(3 9.84175e-16 0)
(3 1.46043e-15 0)
(3 1.51178e-15 0)
(3 1.36165e-15 0)
(3 8.80435e-16 0)
(3 2.45365e-16 0)
(3 3.07288e-16 0)
(3 4.12746e-17 0)
(3 -7.51532e-17 0)
(3 -5.88668e-16 0)
(1.73496 -1.16676 0)
(2.07327 -0.819948 0)
(3 4.18336e-15 0)
(3 4.65311e-15 0)
(3 4.82476e-15 0)
(3 4.53695e-15 0)
(3 3.61199e-15 0)
(3 2.78338e-15 0)
(3 1.8372e-15 0)
(3 9.60441e-16 0)
(3 8.47742e-16 0)
(3 1.52427e-16 0)
(3 6.25108e-16 0)
(3 3.56573e-16 0)
(3 -9.07906e-17 0)
(3 -3.76387e-16 0)
(3 -8.44158e-16 0)
(3 -9.42872e-16 0)
(3 -1.09131e-15 0)
(3 -1.03834e-15 0)
(1.67219 -1.20312 0)
(1.90317 -0.969885 0)
(2.9919 -0.00451003 0)
(3 -8.10726e-17 0)
(3 4.07927e-15 0)
(3 4.10072e-15 0)
(3 3.28896e-15 0)
(3 2.60263e-15 0)
(3 1.92201e-15 0)
(3 1.01476e-15 0)
(3 7.17562e-16 0)
(3 4.74039e-16 0)
(3 5.91636e-16 0)
(3 4.54635e-16 0)
(3 2.87336e-16 0)
(3 -2.72978e-16 0)
(3 -9.5763e-16 0)
(3 -1.03252e-15 0)
(3 -5.15457e-16 0)
(3 6.15946e-16 0)
(1.65324 -1.23802 0)
(1.79779 -1.10176 0)
(2.86646 -0.0954349 0)
(3 5.3491e-14 0)
(3 8.78518e-16 0)
(3 1.8653e-15 0)
(3 1.70414e-15 0)
(3 1.34852e-15 0)
(3 1.50773e-15 0)
(3 1.21809e-15 0)
(3 1.12916e-15 0)
(3 1.69203e-15 0)
(3 1.57052e-15 0)
(3 1.09698e-15 0)
(3 1.04428e-15 0)
(3 9.48893e-16 0)
(3 5.05713e-16 0)
(3 8.08291e-16 0)
(3 1.40876e-15 0)
(3 2.45285e-15 0)
(1.63671 -1.26595 0)
(1.66161 -1.23074 0)
(2.65419 -0.286431 0)
(3 -2.30328e-12 0)
(3 2.09366e-13 0)
(3 4.06439e-15 0)
(3 1.17892e-15 0)
(3 1.67051e-15 0)
(3 1.47308e-15 0)
(3 1.88449e-15 0)
(3 2.11587e-15 0)
(3 2.32094e-15 0)
(3 2.1382e-15 0)
(3 1.45459e-15 0)
(3 9.52151e-16 0)
(3 7.09051e-16 0)
(3 3.48733e-16 0)
(3 1.82731e-16 0)
(3 7.77354e-16 0)
(3 1.91521e-15 0)
(1.61802 -1.28158 0)
(1.5558 -1.32444 0)
(2.40365 -0.5548 0)
(3 3.63714e-12 0)
(3 1.40199e-11 0)
(3 -2.88639e-13 0)
(3 3.95117e-15 0)
(3 1.40825e-15 0)
(3 1.49308e-15 0)
(3 1.97729e-15 0)
(3 1.80105e-15 0)
(3 2.03763e-15 0)
(3 1.01911e-15 0)
(3 3.77091e-16 0)
(3 1.57855e-16 0)
(3 -9.63156e-17 0)
(3 -5.58656e-16 0)
(3 4.79077e-16 0)
(3 2.07008e-15 0)
(3 3.66879e-15 0)
(1.59833 -1.29268 0)
(1.46797 -1.39456 0)
(2.14007 -0.851008 0)
(3.01059 0.00845992 0)
(3 -2.12348e-08 0)
(3 4.27564e-11 0)
(3 -1.04474e-13 0)
(3 2.13954e-15 0)
(3 1.4226e-15 0)
(3 1.19518e-15 0)
(3 1.4082e-15 0)
(3 1.45858e-15 0)
(3 9.08433e-16 0)
(3 4.78189e-16 0)
(3 6.86407e-16 0)
(3 3.75334e-16 0)
(3 2.25706e-15 0)
(3 5.27819e-15 0)
(3 5.19964e-15 0)
(3 5.5359e-15 0)
(1.58404 -1.30004 0)
(1.47396 -1.33662 0)
(2.01194 -1.0228 0)
(2.89954 -0.101124 0)
(3 4.72302e-09 0)
(3 -2.72657e-11 0)
(3 1.1503e-13 0)
(3 1.0873e-15 0)
(3 1.67018e-15 0)
(3 1.26263e-15 0)
(3 1.18082e-15 0)
(3 1.41938e-15 0)
(3 1.22903e-15 0)
(3 1.14916e-15 0)
(3 1.09024e-15 0)
(3 1.18374e-15 0)
(3 3.93004e-15 0)
(3 5.8642e-15 0)
(3 5.67737e-15 0)
(3 5.77446e-15 0)
(1.5934 -1.32867 0)
(1.50226 -1.33234 0)
(1.72441 -1.19148 0)
(2.38396 -0.553463 0)
(3 6.15282e-08 0)
(3 -2.78295e-11 0)
(3 -1.0321e-13 0)
(3 5.36451e-14 0)
(3 -9.46996e-15 0)
(3 1.76132e-15 0)
(3 1.45248e-15 0)
(3 1.57065e-15 0)
(3 1.83727e-15 0)
(3 3.06388e-15 0)
(3 2.47422e-15 0)
(3 3.96625e-15 0)
(3 3.07601e-15 0)
(3 5.0092e-15 0)
(3 5.07148e-15 0)
(3 5.28073e-15 0)
(1.58625 -1.29955 0)
(1.55374 -1.29912 0)
(1.67739 -1.21946 0)
(2.15858 -0.817079 0)
(3.02332 0.0207725 0)
(3 5.47262e-12 0)
(3 6.04857e-12 0)
(3 -1.21749e-11 0)
(3 3.23051e-12 0)
(3 -9.68558e-15 0)
(3 1.19219e-15 0)
(3 2.14586e-15 0)
(3 2.77652e-15 0)
(3 2.93682e-15 0)
(3 3.08068e-15 0)
(3 4.93634e-15 0)
(3 4.00273e-15 0)
(3 4.22571e-15 0)
(3 5.1112e-15 0)
(3 5.26562e-15 0)
(1.5842 -1.28592 0)
(1.58887 -1.28982 0)
(1.64622 -1.25947 0)
(1.84451 -1.1066 0)
(2.70739 -0.242039 0)
(3 5.89097e-10 0)
(3 -1.36633e-08 0)
(3 1.2279e-08 0)
(3 -5.19414e-10 0)
(3 -1.94137e-12 0)
(3 9.50894e-14 0)
(3 1.48541e-15 0)
(3 2.05836e-15 0)
(3 3.48622e-15 0)
(3 3.61977e-15 0)
(3 4.43744e-15 0)
(3 3.92212e-15 0)
(3 3.94795e-15 0)
(3 4.58711e-15 0)
(3 5.17469e-15 0)
(1.58263 -1.26908 0)
(1.59562 -1.27297 0)
(1.62562 -1.26846 0)
(1.61932 -1.28538 0)
(2.30461 -0.678637 0)
(3.02232 0.0199427 0)
(2.99971 -8.0806e-05 0)
(3 3.95598e-06 0)
(3 -7.91841e-08 0)
(3 8.87848e-10 0)
(3 -1.54146e-13 0)
(3 2.17306e-15 0)
(3 2.02683e-15 0)
(3 3.23058e-15 0)
(3 3.4142e-15 0)
(3 3.91035e-15 0)
(3 3.40571e-15 0)
(3 3.844e-15 0)
(3 3.91775e-15 0)
(3 3.76399e-15 0)
(1.5811 -1.25349 0)
(1.60072 -1.25867 0)
(1.62298 -1.2661 0)
(1.60533 -1.29617 0)
(1.88514 -1.07555 0)
(2.7589 -0.218553 0)
(3.00406 -0.000351888 0)
(2.99993 -5.32093e-05 0)
(3 8.19982e-07 0)
(3 -8.65612e-10 0)
(3 8.90679e-15 0)
(3 3.15973e-15 0)
(3 2.55925e-15 0)
(3 3.39019e-15 0)
(3 2.79969e-15 0)
(3 3.11177e-15 0)
(3 2.87612e-15 0)
(3 2.88937e-15 0)
(3 3.03267e-15 0)
(3 3.3903e-15 0)
(1.57914 -1.24838 0)
(1.60219 -1.25498 0)
(1.61548 -1.25969 0)
(1.61139 -1.26874 0)
(1.75834 -1.19182 0)
(2.24868 -0.786973 0)
(3.00565 0.0109219 0)
(2.99995 0.000228794 0)
(3 -6.57693e-07 0)
(3 -5.88053e-11 0)
(3 1.17298e-13 0)
(3 2.04527e-15 0)
(3 4.11956e-15 0)
(3 3.73362e-15 0)
(3 2.97729e-15 0)
(3 1.64389e-15 0)
(3 2.69807e-15 0)
(3 2.56633e-15 0)
(3 2.40478e-15 0)
(3 3.13461e-15 0)
(1.57641 -1.24015 0)
(1.59241 -1.25267 0)
(1.60599 -1.26306 0)
(1.61063 -1.27158 0)
(1.64289 -1.25684 0)
(1.75256 -1.1945 0)
(2.25732 -0.735414 0)
(2.99657 -0.0132696 0)
(3 -6.366e-08 0)
(3 3.16281e-11 0)
(3 9.35994e-15 0)
(3 3.77807e-15 0)
(3 5.15005e-15 0)
(3 3.14572e-15 0)
(3 2.27033e-15 0)
(3 1.86584e-15 0)
(3 1.53148e-15 0)
(3 1.29118e-15 0)
(3 1.51257e-15 0)
(3 2.29002e-15 0)
(1.58003 -1.25522 0)
(1.5862 -1.25955 0)
(1.59642 -1.26527 0)
(1.60148 -1.26879 0)
(1.60826 -1.2631 0)
(1.5969 -1.26591 0)
(1.87012 -1.1716 0)
(2.951 -0.404354 0)
(3.38151 0.661302 0)
(3 -6.33675e-11 0)
(3 7.45894e-11 0)
(3 -7.84142e-11 0)
(3 -1.21178e-15 0)
(3 4.32286e-13 0)
(3 1.83232e-14 0)
(3 -1.77599e-14 0)
(3 1.26555e-14 0)
(3 1.2236e-15 0)
(3 1.54145e-15 0)
(3 3.36936e-15 0)
(1.15557 -0.785266 0)
(1.83775 -1.13829 0)
(1.84214 -1.15256 0)
(1.74254 -1.19756 0)
(1.71576 -1.20447 0)
(1.66035 -1.24623 0)
(1.65093 -1.21801 0)
(1.71933 -1.16686 0)
(1.74605 -1.24173 0)
(1.78571 -1.15399 0)
(2.27702 -0.745685 0)
(2.86321 -0.207265 0)
(3.09748 0.0294612 0)
(3.02071 0.0126541 0)
(3.00472 0.00559629 0)
(3.00189 0.0030804 0)
(3.00005 0.000596046 0)
(2.99998 2.2374e-05 0)
(2.99999 -1.43732e-05 0)
(3 -5.92046e-06 0)
(1.01099 -0.0221008 0)
(1.90568 -0.84463 0)
(2.12455 -0.786969 0)
(2.00909 -0.940354 0)
(1.95768 -0.993376 0)
(1.86437 -1.09094 0)
(1.78949 -1.13391 0)
(1.75737 -1.14564 0)
(1.75592 -1.16257 0)
(1.73616 -1.20496 0)
(1.72391 -1.19466 0)
(1.87562 -1.06411 0)
(2.10298 -0.880553 0)
(2.49863 -0.578204 0)
(2.9825 -0.139597 0)
(3.07347 0.0287602 0)
(3.00817 0.0076833 0)
(3.00292 0.00382153 0)
(3.00122 0.00218627 0)
(3.00008 0.000481965 0)
(1.151 0.10973 0)
(1.96727 0.185261 0)
(2.23145 -0.456524 0)
(2.23675 -0.535931 0)
(2.21188 -0.573655 0)
(2.14949 -0.737997 0)
(2.02905 -0.90552 0)
(1.95447 -0.97858 0)
(1.90277 -1.03737 0)
(1.85625 -1.12321 0)
(1.79738 -1.15772 0)
(1.79322 -1.14778 0)
(1.80828 -1.12858 0)
(1.84569 -1.08833 0)
(2.03792 -0.95322 0)
(2.25926 -0.829728 0)
(2.66488 -0.503641 0)
(3.03575 -0.0920612 0)
(3.05527 0.0238644 0)
(3.00406 0.00469504 0)
(1.18013 0.447895 0)
(1.72954 0.761534 0)
(2.32875 0.430364 0)
(2.40003 -0.0703344 0)
(2.35384 -0.383865 0)
(2.35 -0.342228 0)
(2.27656 -0.508802 0)
(2.20984 -0.627325 0)
(2.13819 -0.746958 0)
(2.09457 -0.879642 0)
(1.99121 -0.990678 0)
(1.92616 -1.04981 0)
(1.88306 -1.07867 0)
(1.86552 -1.09261 0)
(1.86794 -1.05976 0)
(1.89638 -1.04976 0)
(1.96301 -1.02068 0)
(2.16611 -0.901155 0)
(2.38328 -0.789584 0)
(2.77865 -0.44048 0)
(0.95961 1.10311 0)
(1.5482 1.72106 0)
(1.90689 1.65239 0)
(2.21339 0.426024 0)
(2.43014 0.376019 0)
(2.44418 0.0160529 0)
(2.45905 -0.143829 0)
(2.38642 -0.396337 0)
(2.33654 -0.477698 0)
(2.3093 -0.611228 0)
(2.22499 -0.758614 0)
(2.13028 -0.878468 0)
(2.06184 -0.944608 0)
(2.00522 -0.998055 0)
(1.97413 -0.988864 0)
(1.958 -0.989981 0)
(1.95741 -1.00915 0)
(1.97158 -0.992768 0)
(1.99526 -0.993842 0)
(2.06857 -0.979859 0)
(0.988242 1.22054 0)
(1.54546 2.02194 0)
(1.84327 1.89576 0)
(2.03319 1.3775 0)
(2.23711 1.25623 0)
(2.37648 0.460585 0)
(2.49457 0.218605 0)
(2.51279 -0.0246541 0)
(2.46066 -0.209617 0)
(2.45169 -0.336084 0)
(2.40492 -0.486434 0)
(2.33566 -0.610563 0)
(2.2756 -0.689007 0)
(2.22026 -0.750936 0)
(2.17896 -0.769325 0)
(2.14258 -0.790802 0)
(2.08644 -0.849379 0)
(2.05658 -0.892298 0)
(2.02749 -0.941201 0)
(2.05716 -0.959107 0)
(0.95756 1.08168 0)
(1.71903 2.1127 0)
(2.04421 2.06709 0)
(2.10377 1.64382 0)
(2.16532 1.52106 0)
(2.30985 1.20318 0)
(2.40973 0.868431 0)
(2.47458 0.633057 0)
(2.48423 0.331744 0)
(2.51364 0.216907 0)
(2.52264 0.022349 0)
(2.48184 -0.163598 0)
(2.45452 -0.29534 0)
(2.40672 -0.423685 0)
(2.35304 -0.540442 0)
(2.32092 -0.602125 0)
(2.23297 -0.714564 0)
(2.18875 -0.752902 0)
(2.16903 -0.776235 0)
(2.14821 -0.782093 0)
(0.905928 0.911019 0)
(1.45273 1.75111 0)
(2.05794 2.1952 0)
(2.37656 1.91113 0)
(2.35208 1.65142 0)
(2.32529 1.51291 0)
(2.42479 1.12205 0)
(2.48594 0.882249 0)
(2.4964 0.750991 0)
(2.53712 0.530659 0)
(2.60527 0.334358 0)
(2.57843 0.0629127 0)
(2.58157 -0.110532 0)
(2.5303 -0.297217 0)
(2.48362 -0.426679 0)
(2.44424 -0.480754 0)
(2.39156 -0.528453 0)
(2.38665 -0.471501 0)
(2.32573 -0.540875 0)
(2.32809 -0.510272 0)
(0.977788 0.917957 0)
(1.29938 1.59694 0)
(1.82518 2.04248 0)
(2.26226 2.20477 0)
(2.64166 1.75047 0)
(2.51638 1.791 0)
(2.65733 1.27097 0)
(2.71419 0.981551 0)
(2.73263 0.881684 0)
(2.70982 0.498275 0)
(2.73464 0.341624 0)
(2.68799 0.110112 0)
(2.67276 0.0147653 0)
(2.6408 -0.0964827 0)
(2.61238 -0.149528 0)
(2.5778 -0.16307 0)
(2.55063 -0.152487 0)
(2.52642 -0.183104 0)
(2.44961 -0.33931 0)
(2.45893 -0.333725 0)
(1.06972 0.993927 0)
(1.26105 1.55348 0)
(1.73846 1.97195 0)
(1.85297 2.15077 0)
(2.34177 1.85986 0)
(2.4247 1.97178 0)
(2.59295 1.52096 0)
(2.67895 1.1624 0)
(2.71874 0.955882 0)
(2.72856 0.820009 0)
(2.73256 0.709779 0)
(2.71736 0.548066 0)
(2.68637 0.455982 0)
(2.68829 0.380726 0)
(2.66051 0.270219 0)
(2.65207 0.209389 0)
(2.64086 0.0969675 0)
(2.60676 -0.0635474 0)
(2.54744 -0.209508 0)
(2.5656 -0.158151 0)
(1.22027 1.09501 0)
(1.25835 1.55523 0)
(1.5611 1.9018 0)
(1.78847 2.03065 0)
(1.88012 1.9004 0)
(1.98184 1.9126 0)
(2.16987 1.69404 0)
(2.33115 1.36394 0)
(2.46231 1.30814 0)
(2.4735 1.34399 0)
(2.52458 1.14747 0)
(2.57572 1.00324 0)
(2.59369 0.811457 0)
(2.67984 0.725931 0)
(2.6784 0.488586 0)
(2.71752 0.349628 0)
(2.70285 0.140305 0)
(2.67632 0.00272921 0)
(2.63254 0.00742481 0)
(2.61867 0.0234868 0)
(1.33899 1.30293 0)
(1.33615 1.62095 0)
(1.47665 1.95809 0)
(1.75425 2.00853 0)
(1.80649 1.93038 0)
(1.84994 1.97114 0)
(2.03306 1.83655 0)
(2.18594 1.59821 0)
(2.24279 1.52707 0)
(2.32641 1.49379 0)
(2.44525 1.26535 0)
(2.56645 1.1496 0)
(2.62261 0.875062 0)
(2.74042 0.763198 0)
(2.73811 0.489479 0)
(2.7507 0.399206 0)
(2.74235 0.272544 0)
(2.71777 0.264105 0)
(2.70296 0.374597 0)
(2.66478 0.259116 0)
(1.45535 1.53566 0)
(1.46002 1.73977 0)
(1.47547 2.07831 0)
(1.71508 2.03378 0)
(1.71322 2.05945 0)
(1.83636 1.97618 0)
(1.96979 1.89413 0)
(2.1305 1.68237 0)
(2.24306 1.57386 0)
(2.40722 1.49197 0)
(2.51439 1.24196 0)
(2.6454 1.10642 0)
(2.68724 0.913285 0)
(2.7312 0.860859 0)
(2.76366 0.752292 0)
(2.7568 0.752627 0)
(2.74198 0.653705 0)
(2.72529 0.690036 0)
(2.7272 0.671012 0)
(2.71508 0.467702 0)
(1.67519 1.68072 0)
(1.63742 1.85469 0)
(1.57113 2.14009 0)
(1.73339 2.11856 0)
(1.72019 2.13124 0)
(1.91913 1.97047 0)
(2.00919 1.98236 0)
(2.2236 1.76439 0)
(2.38558 1.66062 0)
(2.53254 1.53135 0)
(2.58735 1.51374 0)
(2.68836 1.33746 0)
(2.69179 1.29754 0)
(2.68361 1.26446 0)
(2.68946 1.15888 0)
(2.68004 1.08188 0)
(2.67789 0.982834 0)
(2.74246 0.965362 0)