/*--------------------------------*- C++ -*----------------------------------*\
  =========                 |
  \\      /  F ield         | OpenFOAM: The Open Source CFD Toolbox
   \\    /   O peration     | Website:  https://openfoam.org
    \\  /    A nd           | Version:  7
     \\/     M anipulation  |
\*---------------------------------------------------------------------------*/
FoamFile
{
    version     2.0;
    format      ascii;
    class       volScalarField;
    location    "4.8";
    object      rho;
}
// * * * * * * * * * * * * * * * * * * * * * * * * * * * * * * * * * * * * * //

dimensions      [1 -3 0 0 0 0 0];

internalField   nonuniform List<scalar> 
3700
(
0.147156
0.260662
0.321703
0.364184
0.395008
0.453136
0.526002
0.56796
0.595091
0.61518
0.640298
0.649648
0.655895
0.64778
0.637195
0.669945
0.700186
0.710628
0.718877
0.736079
0.114737
0.119034
0.138758
0.139193
0.146086
0.174457
0.201264
0.194729
0.168917
0.168881
0.189265
0.207158
0.216673
0.21453
0.214458
0.225809
0.244883
0.264559
0.286605
0.303627
0.128781
0.1171
0.11081
0.0982272
0.0851504
0.0792797
0.0742523
0.0750375
0.0748517
0.0793155
0.0859388
0.0963656
0.108865
0.125418
0.142398
0.15756
0.169908
0.17502
0.178685
0.177515
0.13525
0.112461
0.0988324
0.083753
0.079573
0.0839967
0.0920755
0.104476
0.108478
0.117807
0.113577
0.12018
0.127446
0.141981
0.15976
0.181183
0.206158
0.229388
0.251777
0.262736
0.139819
0.10019
0.0848634
0.0736847
0.0723709
0.081977
0.0973675
0.124477
0.144638
0.159027
0.166887
0.177222
0.174146
0.176508
0.178527
0.191133
0.21842
0.256198
0.294174
0.342996
0.151924
0.0901457
0.0720353
0.0666985
0.0669438
0.0755102
0.0927482
0.122607
0.154606
0.179879
0.206895
0.225199
0.245601
0.262601
0.264878
0.264379
0.270901
0.2905
0.333378
0.422958
0.153316
0.0805254
0.0641199
0.0646057
0.0667825
0.0750628
0.0897888
0.115517
0.148857
0.183584
0.226861
0.25492
0.295386
0.330683
0.361864
0.386323
0.405889
0.422578
0.443534
0.52949
0.146273
0.0715746
0.0586025
0.064947
0.0723614
0.0907968
0.11505
0.132009
0.153398
0.182223
0.228796
0.26878
0.32961
0.384349
0.438783
0.498573
0.549612
0.603568
0.63271
0.73786
0.125319
0.0624067
0.0531876
0.0663671
0.0797807
0.123374
0.169425
0.201838
0.230048
0.256317
0.27538
0.310598
0.368384
0.439635
0.514315
0.601912
0.697147
0.797146
0.865977
1.03275
0.0947484
0.053145
0.0468913
0.0572194
0.0806117
0.13557
0.198765
0.258737
0.321899
0.389715
0.44115
0.496987
0.549726
0.61361
0.671739
0.753735
0.875459
1.01741
1.16712
1.35447
0.0701179
0.0444213
0.0403889
0.0491303
0.0805895
0.131634
0.19605
0.266918
0.364304
0.487733
0.592883
0.693304
0.798255
0.893312
0.974769
1.06911
1.18009
1.31386
1.60466
1.59501
0.0510854
0.0357451
0.0341504
0.0443685
0.082268
0.128247
0.185015
0.248841
0.370768
0.548392
0.721397
0.885536
1.05896
1.19706
1.35064
1.51035
1.67026
1.82847
2.13211
2.08557
0.0351658
0.0261596
0.0292207
0.0408333
0.0933109
0.189464
0.270794
0.379707
0.576327
0.790472
1.01551
1.21711
1.42274
1.60279
1.82853
2.08324
2.3328
2.56273
2.90425
2.88431
0.0250673
0.0197867
0.025895
0.0478799
0.172546
0.381326
0.565646
0.808944
1.10653
1.40202
1.6512
1.87664
2.10171
2.31737
2.59231
2.91077
3.23855
3.58331
3.87483
4.15746
0.0204091
0.017716
0.0285523
0.127534
0.353577
0.616801
0.91849
1.2756
1.68574
2.09954
2.41797
2.73104
3.04358
3.37671
3.786
4.17212
4.54161
4.87497
5.07481
5.2487
0.0148204
0.0191756
0.0750731
0.289267
0.60151
0.948154
1.42486
1.98234
2.60625
3.13608
3.54448
3.93456
4.3271
4.75871
5.21085
5.4945
5.66584
5.73843
5.61228
5.44451
0.00935446
0.046922
0.23375
0.560301
1.15548
1.97352
2.76486
3.5661
4.39199
4.92657
5.25734
5.58074
5.86785
6.0951
6.20893
6.10224
5.79726
5.05822
3.87934
2.6445
0.0438899
0.230297
0.746282
1.64825
2.85541
3.98209
4.95543
5.94627
6.65211
6.70715
6.58236
6.58953
6.53212
6.30134
5.59856
4.26987
2.91262
1.85788
1.424
1.38991
0.436512
1.21575
2.71913
4.40209
5.82063
6.73309
7.51506
8.17006
7.97734
7.34762
6.73912
5.99768
4.72675
3.24389
1.99203
1.44119
1.38529
1.39299
1.39628
1.39923
3.22968
5.05929
6.81302
7.93158
8.53545
8.91784
9.10595
8.67361
6.3262
4.46754
3.30762
2.18763
1.51147
1.38237
1.39001
1.39477
1.39882
1.39997
1.40003
1.40002
9.6798
9.60259
9.54076
9.52907
9.59952
9.47138
8.34376
3.17965
0.911496
1.40001
1.40001
1.40001
1.40001
1.40001
1.40001
1.40001
1.40001
1.40001
1.40001
1.40001
9.65219
9.56571
9.46343
9.38058
9.43761
8.02596
3.60295
1.41994
1.40001
1.40001
1.40001
1.40001
1.40001
1.40001
1.40001
1.40001
1.40001
1.40001
1.40001
1.40001
9.44496
9.51102
9.46735
9.2521
8.94375
4.6423
1.45407
1.39904
1.40001
1.40001
1.40001
1.40001
1.40001
1.40001
1.40001
1.40001
1.40001
1.40001
1.40001
1.40001
9.26557
9.48348
9.46678
8.92199
6.56791
1.99488
1.39194
1.40014
1.4
1.40001
1.40001
1.40001
1.40001
1.40001
1.40001
1.40001
1.40001
1.40001
1.40001
1.40001
9.03644
9.47542
9.49385
8.45602
3.91733
1.36344
1.40052
1.4
1.40001
1.40001
1.40001
1.40001
1.40001
1.40001
1.40001
1.40001
1.40001
1.40001
1.40001
1.40001
8.86168
9.3716
9.49417
7.04336
1.94286
1.40001
1.40001
1.40001
1.40001
1.40001
1.40001
1.40001
1.40001
1.40001
1.40001
1.40001
1.40001
1.40001
1.40001
1.40001
8.80221
9.22056
9.15819
4.81716
1.36474
1.40001
1.40001
1.40001
1.40001
1.40001
1.40001
1.40001
1.40001
1.40001
1.40001
1.40001
1.40001
1.40001
1.40001
1.40001
8.95649
9.1789
8.41416
2.90179
1.40001
1.40001
1.40001
1.40001
1.40001
1.40001
1.40001
1.40001
1.40001
1.40001
1.40001
1.40001
1.40001
1.40001
1.40001
1.40001
9.60501
9.31299
6.87606
1.63466
1.40001
1.40001
1.40001
1.40001
1.40001
1.40001
1.40001
1.40001
1.40001
1.40001
1.40001
1.40001
1.40001
1.40001
1.40001
1.40001
9.99101
8.81634
4.92811
1.3827
1.40001
1.40001
1.40001
1.40001
1.40001
1.40001
1.40001
1.40001
1.40001
1.40001
1.40001
1.40001
1.40001
1.40001
1.40001
1.40001
10.3126
8.36291
3.21331
1.40001
1.40001
1.40001
1.40001
1.40001
1.40001
1.40001
1.40001
1.40001
1.40001
1.40001
1.40001
1.40001
1.40001
1.40001
1.40001
1.40001
10.432
7.51354
2.21839
1.40001
1.40001
1.40001
1.40001
1.40001
1.40001
1.40001
1.40001
1.40001
1.40001
1.40001
1.40001
1.40001
1.40001
1.40001
1.40001
1.40001
10.4905
6.54163
1.62378
1.40001
1.40001
1.40001
1.40001
1.40001
1.40001
1.40001
1.40001
1.40001
1.40001
1.40001
1.40001
1.40001
1.40001
1.40001
1.40001
1.40001
10.2853
5.46787
1.40069
1.40001
1.40001
1.40001
1.40001
1.40001
1.40001
1.40001
1.40001
1.40001
1.40001
1.40001
1.40001
1.40001
1.40001
1.40001
1.40001
1.40001
9.87778
4.43873
1.40001
1.40001
1.40001
1.40001
1.40001
1.40001
1.40001
1.40001
1.40001
1.40001
1.40001
1.40001
1.40001
1.40001
1.40001
1.40001
1.40001
1.40001
9.56375
3.63133
1.40001
1.40001
1.40001
1.40001
1.40001
1.40001
1.40001
1.40001
1.40001
1.40001
1.40001
1.40001
1.40001
1.40001
1.40001
1.40001
1.40001
1.40001
9.34916
2.68933
1.40001
1.40001
1.40001
1.40001
1.40001
1.40001
1.40001
1.40001
1.40001
1.40001
1.40001
1.40001
1.40001
1.40001
1.40001
1.40001
1.40001
1.40001
8.73973
1.8927
1.40001
1.40001
1.40001
1.40001
1.40001
1.40001
1.40001
1.40001
1.40001
1.40001
1.40001
1.40001
1.40001
1.40001
1.40001
1.40001
1.40001
1.40001
7.83575
1.40734
1.40001
1.40001
1.40001
1.40001
1.40001
1.40001
1.40001
1.40001
1.40001
1.40001
1.40001
1.40001
1.40001
1.40001
1.40001
1.40001
1.40001
1.40001
6.45863
1.40008
1.40001
1.40001
1.40001
1.40001
1.40001
1.40001
1.40001
1.40001
1.40001
1.40001
1.40001
1.40001
1.40001
1.40001
1.40001
1.40001
1.40001
1.40001
6.48097
1.40008
1.40001
1.40001
1.40001
1.40001
1.40001
1.40001
1.40001
1.40001
1.40001
1.40001
1.40001
1.40001
1.40001
1.40001
1.40001
1.40001
1.40001
1.40001
7.83231
1.4069
1.40001
1.40001
1.40001
1.40001
1.40001
1.40001
1.40001
1.40001
1.40001
1.40001
1.40001
1.40001
1.40001
1.40001
1.40001
1.40001
1.40001
1.40001
8.73964
1.88501
1.40001
1.40001
1.40001
1.40001
1.40001
1.40001
1.40001
1.40001
1.40001
1.40001
1.40001
1.40001
1.40001
1.40001
1.40001
1.40001
1.40001
1.40001
9.35371
2.68899
1.40001
1.40001
1.40001
1.40001
1.40001
1.40001
1.40001
1.40001
1.40001
1.40001
1.40001
1.40001
1.40001
1.40001
1.40001
1.40001
1.40001
1.40001
9.55557
3.6365
1.40001
1.40001
1.40001
1.40001
1.40001
1.40001
1.40001
1.40001
1.40001
1.40001
1.40001
1.40001
1.40001
1.40001
1.40001
1.40001
1.40001
1.40001
9.87838
4.44171
1.40001
1.40001
1.40001
1.40001
1.40001
1.40001
1.40001
1.40001
1.40001
1.40001
1.40001
1.40001
1.40001
1.40001
1.40001
1.40001
1.40001
1.40001
10.29
5.47896
1.40078
1.40001
1.40001
1.40001
1.40001
1.40001
1.40001
1.40001
1.40001
1.40001
1.40001
1.40001
1.40001
1.40001
1.40001
1.40001
1.40001
1.40001
10.4928
6.53643
1.62536
1.40001
1.40001
1.40001
1.40001
1.40001
1.40001
1.40001
1.40001
1.40001
1.40001
1.40001
1.40001
1.40001
1.40001
1.40001
1.40001
1.40001
10.4335
7.51026
2.21172
1.40001
1.40001
1.40001
1.40001
1.40001
1.40001
1.40001
1.40001
1.40001
1.40001
1.40001
1.40001
1.40001
1.40001
1.40001
1.40001
1.40001
10.314
8.3695
3.21212
1.40001
1.40001
1.40001
1.40001
1.40001
1.40001
1.40001
1.40001
1.40001
1.40001
1.40001
1.40001
1.40001
1.40001
1.40001
1.40001
1.40001
9.9943
8.82119
4.93695
1.38264
1.40001
1.40001
1.40001
1.40001
1.40001
1.40001
1.40001
1.40001
1.40001
1.40001
1.40001
1.40001
1.40001
1.40001
1.40001
1.40001
9.59843
9.31113
6.88185
1.63714
1.40001
1.40001
1.40001
1.40001
1.40001
1.40001
1.40001
1.40001
1.40001
1.40001
1.40001
1.40001
1.40001
1.40001
1.40001
1.40001
8.95055
9.17973
8.41862
2.89745
1.40001
1.40001
1.40001
1.40001
1.40001
1.40001
1.40001
1.40001
1.40001
1.40001
1.40001
1.40001
1.40001
1.40001
1.40001
1.40001
8.80115
9.21702
9.1477
4.80393
1.36522
1.40001
1.40001
1.40001
1.40001
1.40001
1.40001
1.40001
1.40001
1.40001
1.40001
1.40001
1.40001
1.40001
1.40001
1.40001
8.85911
9.36986
9.49886
7.03976
1.93291
1.40001
1.40001
1.40001
1.40001
1.40001
1.40001
1.40001
1.40001
1.40001
1.40001
1.40001
1.40001
1.40001
1.40001
1.40001
9.03235
9.47737
9.50134
8.48768
3.92399
1.36319
1.40052
1.4
1.40001
1.40001
1.40001
1.40001
1.40001
1.40001
1.40001
1.40001
1.40001
1.40001
1.40001
1.40001
9.2591
9.48259
9.46279
8.89495
6.58081
2.00859
1.39188
1.40014
1.4
1.40001
1.40001
1.40001
1.40001
1.40001
1.40001
1.40001
1.40001
1.40001
1.40001
1.40001
9.4401
9.51051
9.46307
9.23282
8.92586
4.63833
1.45387
1.39906
1.40001
1.40001
1.40001
1.40001
1.40001
1.40001
1.40001
1.40001
1.40001
1.40001
1.40001
1.40001
9.65391
9.56884
9.47034
9.39049
9.46711
8.02124
3.59315
1.41883
1.40001
1.40001
1.40001
1.40001
1.40001
1.40001
1.40001
1.40001
1.40001
1.40001
1.40001
1.40001
9.68423
9.60506
9.5445
9.53389
9.59994
9.47016
8.34932
3.18307
0.909948
1.40001
1.40001
1.40001
1.40001
1.40001
1.40001
1.40001
1.40001
1.40001
1.40001
1.40001
3.23118
5.05947
6.80527
7.92331
8.52817
8.91785
9.10592
8.67536
6.32835
4.46887
3.30628
2.18503
1.51018
1.38239
1.39006
1.39479
1.39883
1.39997
1.40003
1.40002
0.439256
1.23194
2.76967
4.43749
5.81888
6.71705
7.49836
8.16164
7.97119
7.34572
6.73909
5.99508
4.72145
3.23763
1.9874
1.43997
1.38531
1.393
1.39629
1.39923
0.0382668
0.201039
0.693655
1.65504
2.8942
4.00294
4.95595
5.94158
6.64662
6.69901
6.57895
6.59237
6.53623
6.30566
5.59922
4.26642
2.90798
1.85529
1.42351
1.38991
0.01218
0.0519408
0.231809
0.519028
1.12726
1.97966
2.78427
3.58909
4.4114
4.94073
5.26471
5.58716
5.87809
6.10673
6.21658
6.10795
5.79867
5.05499
3.87528
2.64256
0.0144711
0.0257735
0.0929741
0.276076
0.576658
0.92619
1.40838
1.96919
2.60244
3.13565
3.54551
3.93565
4.3301
4.76531
5.2166
5.49681
5.6643
5.73635
5.61012
5.44285
0.0214378
0.0214222
0.0301464
0.13924
0.354246
0.601159
0.901106
1.25621
1.66371
2.08285
2.40517
2.72032
3.03465
3.37191
3.78545
4.17377
4.54295
4.87724
5.07572
5.24784
0.026966
0.0221202
0.0217199
0.0580305
0.178963
0.387166
0.575181
0.822248
1.11782
1.40941
1.65137
1.87437
2.09961
2.31806
2.59392
2.91252
3.24033
3.5846
3.87764
4.15678
0.0336701
0.024693
0.0241779
0.0459343
0.0909261
0.201478
0.286836
0.405733
0.603984
0.809718
1.02549
1.21934
1.41936
1.59803
1.82355
2.08224
2.33495
2.56756
2.90685
2.88473
0.045205
0.0308377
0.0299603
0.0500911
0.0800759
0.130013
0.180738
0.238177
0.357446
0.535427
0.711251
0.876187
1.05186
1.19184
1.34968
1.51281
1.67497
1.83154
2.13302
2.08271
0.0648367
0.0414025
0.038686
0.0525971
0.0804787
0.130338
0.189255
0.254485
0.353128
0.478047
0.585963
0.689352
0.798712
0.895465
0.979857
1.07548
1.18475
1.31421
1.60181
1.5947
0.0884874
0.0513763
0.0463858
0.0569782
0.083302
0.135222
0.193912
0.254361
0.320637
0.392188
0.447135
0.505265
0.56001
0.623666
0.678302
0.755712
0.872108
1.014
1.16401
1.35543
0.110185
0.0602585
0.052728
0.0648031
0.0848006
0.126141
0.172303
0.211654
0.240814
0.268717
0.286124
0.317646
0.368812
0.437456
0.510685
0.597297
0.693672
0.795127
0.867043
1.03304
0.132168
0.0698222
0.0562404
0.0623002
0.0767633
0.0966878
0.121211
0.143114
0.159711
0.18185
0.222109
0.26238
0.323785
0.379822
0.435526
0.496454
0.548954
0.60459
0.635629
0.737308
0.159607
0.0820063
0.0605321
0.0611055
0.0664714
0.0746984
0.0866381
0.113566
0.143776
0.178015
0.221198
0.250011
0.29232
0.329174
0.36172
0.388515
0.409148
0.426517
0.446521
0.526306
0.176052
0.101874
0.0703637
0.0643828
0.0659398
0.0738631
0.0860442
0.117882
0.149472
0.175918
0.205413
0.224569
0.246704
0.265331
0.269672
0.268647
0.274716
0.290797
0.328804
0.416318
0.177085
0.114827
0.0881904
0.073557
0.0712661
0.0802206
0.0901621
0.118644
0.143453
0.158969
0.170934
0.183791
0.178671
0.179724
0.180297
0.189076
0.213401
0.250752
0.289395
0.34114
0.158175
0.120157
0.10386
0.0874853
0.0805883
0.0838768
0.0870791
0.100945
0.11335
0.125612
0.118551
0.123049
0.127481
0.139721
0.156372
0.17681
0.201303
0.225717
0.24991
0.2652
0.135061
0.120929
0.115688
0.105844
0.0904818
0.0832096
0.0745344
0.0749727
0.0786914
0.0827786
0.0860241
0.0941241
0.105647
0.121766
0.138558
0.154442
0.168012
0.174759
0.179846
0.180493
0.119553
0.12943
0.152222
0.192383
0.200739
0.190507
0.188329
0.205112
0.225553
0.22687
0.207617
0.200246
0.21576
0.252113
0.29886
0.342813
0.378053
0.366439
0.339437
0.283809
0.15918
0.278739
0.313135
0.403942
0.464861
0.487375
0.533931
0.590642
0.637107
0.650039
0.64913
0.655077
0.684098
0.695659
0.704824
0.720736
0.726337
0.711083
0.69315
0.671724
0.785732
0.868182
0.970074
1.14099
1.15735
1.16614
1.158
1.16926
1.21373
1.29323
1.32368
1.32015
1.29571
1.28569
1.30826
1.33703
1.34558
1.34062
1.32735
1.32001
0.436313
0.580248
0.744248
0.943347
1.07023
1.16947
1.16601
1.16494
1.21038
1.2724
1.30846
1.31256
1.30284
1.28507
1.29084
1.31112
1.33226
1.33699
1.33494
1.32799
0.188716
0.222881
0.324512
0.451681
0.71923
0.983078
1.07207
1.16713
1.2264
1.25643
1.28971
1.30441
1.30913
1.3038
1.29752
1.3008
1.31889
1.33038
1.33543
1.33659
0.262203
0.297415
0.323447
0.335906
0.362624
0.482214
0.778728
1.03826
1.14591
1.21608
1.27479
1.29356
1.30589
1.31794
1.30875
1.30559
1.31766
1.33016
1.33681
1.33936
0.338581
0.359039
0.376435
0.399835
0.422089
0.422902
0.453928
0.607125
0.878286
1.09276
1.21108
1.26682
1.30439
1.33011
1.32541
1.31877
1.32297
1.3263
1.33529
1.33947
0.443477
0.453831
0.465615
0.459057
0.458476
0.474023
0.487057
0.474818
0.518683
0.687415
0.95158
1.14636
1.27436
1.3256
1.33194
1.33586
1.33244
1.32764
1.33144
1.3402
0.559775
0.573028
0.541655
0.503789
0.508114
0.528086
0.535124
0.536147
0.529988
0.51939
0.608656
0.876662
1.11285
1.30166
1.33302
1.33836
1.33204
1.31965
1.3284
1.33997
0.731626
0.707018
0.654004
0.579517
0.561573
0.575745
0.594762
0.595266
0.57945
0.550039
0.536577
0.599907
0.852278
1.1337
1.30191
1.33681
1.32511
1.31225
1.33667
1.34091
0.942207
0.870795
0.776686
0.664775
0.618507
0.631279
0.64553
0.64385
0.632456
0.605938
0.567212
0.557865
0.608892
0.854497
1.13586
1.31007
1.27816
1.30051
1.34438
1.34128
1.19562
1.07733
0.95193
0.79745
0.709358
0.696125
0.696046
0.691796
0.686425
0.663683
0.62775
0.591326
0.58883
0.631606
0.847979
1.15111
1.2231
1.30261
1.35087
1.33742
1.74777
1.31868
1.16703
1.03917
0.86375
0.772966
0.758227
0.776555
0.775682
0.75757
0.717274
0.678797
0.651994
0.636952
0.658907
0.787889
1.04595
1.23366
1.31055
1.32754
2.86113
2.00966
1.58499
1.43714
1.25762
1.06444
0.918844
0.881165
0.861674
0.824436
0.79113
0.774534
0.749444
0.7206
0.678275
0.681363
0.736386
0.884374
1.09769
1.26904
3.48695
3.03667
2.36286
1.86115
1.56953
1.36316
1.14636
1.00702
0.979121
0.928515
0.896269
0.880675
0.85701
0.821013
0.777166
0.732413
0.734811
0.744584
0.803152
1.04217
3.29554
3.27214
3.11903
2.67285
2.14757
1.78697
1.54291
1.3248
1.22498
1.14765
1.06816
0.977338
0.918031
0.874806
0.848874
0.819567
0.78639
0.771014
0.76651
0.817777
2.34992
2.98818
3.0927
3.05334
2.87293
2.47539
2.0942
1.74259
1.48241
1.34305
1.22428
1.10482
1.02437
0.986166
0.985328
0.963508
0.912045
0.86476
0.811685
0.811639
1.55141
2.0086
2.57795
2.94916
2.94899
2.89461
2.69853
2.36166
1.98489
1.71359
1.51541
1.37686
1.2721
1.17411
1.11953
1.05234
0.972848
0.91114
0.881125
0.848358
1.40628
1.46217
1.68589
2.16703
2.59874
2.82073
2.81239
2.75208
2.56229
2.25847
1.95099
1.70873
1.52047
1.34492
1.22902
1.15738
1.08326
1.02514
1.0191
0.98241
1.40013
1.40159
1.41466
1.50934
1.77678
2.19614
2.55196
2.70076
2.69016
2.6313
2.46897
2.20691
1.93565
1.71148
1.50503
1.40536
1.32254
1.23071
1.15693
1.06289
1.40001
1.40002
1.40021
1.40342
1.4271
1.53899
1.80456
2.17613
2.46876
2.59443
2.58706
2.5363
2.39434
2.18114
1.92756
1.70017
1.54378
1.40407
1.28698
1.15957
1.40001
1.40001
1.40001
1.40004
1.40047
1.40539
1.43374
1.55254
1.79981
2.12843
2.38127
2.49841
2.49185
2.45434
2.34552
2.14621
1.92817
1.72232
1.57209
1.39443
1.40001
1.40001
1.40001
1.40001
1.40001
1.40007
1.40068
1.40664
1.43765
1.54648
1.76874
2.06577
2.28797
2.4121
2.40828
2.38
2.29611
2.13487
1.9508
1.6715
1.40001
1.40001
1.40001
1.40001
1.40001
1.40001
1.40001
1.40009
1.40083
1.40662
1.4352
1.53292
1.72515
1.99283
2.19895
2.32801
2.32673
2.30998
2.2586
2.04555
1.40001
1.40001
1.40001
1.40001
1.40001
1.40001
1.40001
1.40001
1.40001
1.40009
1.40082
1.40588
1.43128
1.5103
1.67641
1.9156
2.11357
2.24345
2.25525
2.22334
1.40001
1.40001
1.40001
1.40001
1.40001
1.40001
1.40001
1.40001
1.40001
1.40001
1.40001
1.40008
1.40075
1.40457
1.42504
1.48959
1.62836
1.83787
2.02108
2.16763
1.40001
1.40001
1.40001
1.40001
1.40001
1.40001
1.40001
1.40001
1.40001
1.40001
1.40001
1.40001
1.40001
1.40007
1.40059
1.40361
1.41963
1.4716
1.59055
1.94232
2.26696
3.42766
3.59602
2.90575
1.83032
1.45139
1.40262
1.40007
1.40001
1.40001
1.40001
1.40001
1.40001
1.40001
1.40001
3.26119
3.92105
3.51962
2.15179
1.46709
1.40113
1.40001
1.4
1.40001
1.40001
1.40001
1.40001
1.40001
1.40001
1.40001
4.07975
3.99841
2.76522
1.61156
1.40719
1.40007
1.40001
1.40001
1.40001
1.40001
1.40001
1.40001
1.40001
1.40001
1.40001
4.5228
3.56034
1.90629
1.42665
1.40026
1.40001
1.40001
1.40001
1.40001
1.40001
1.40001
1.40001
1.40001
1.40001
1.40001
4.61949
2.35421
1.46642
1.40075
1.40001
1.40001
1.40001
1.40001
1.40001
1.40001
1.40001
1.40001
1.40001
1.40001
1.40001
2.89344
1.5032
1.40068
1.4
1.4
1.4
1.40001
1.40001
1.40001
1.40001
1.40001
1.40001
1.40001
1.40001
1.40001
1.54489
1.40085
1.4
1.4
1.40001
1.40001
1.40001
1.40001
1.40001
1.40001
1.40001
1.40001
1.40001
1.40001
1.40001
1.39736
1.39981
1.4
1.40001
1.40001
1.40001
1.40001
1.40001
1.40001
1.40001
1.40001
1.40001
1.40001
1.40001
1.40001
1.39996
1.40001
1.40001
1.40001
1.40001
1.40001
1.40001
1.40001
1.40001
1.40001
1.40001
1.40001
1.40001
1.40001
1.40001
1.40001
1.40001
1.40001
1.40001
1.40001
1.40001
1.40001
1.40001
1.40001
1.40001
1.40001
1.40001
1.40001
1.40001
1.40001
1.40001
1.40001
1.40001
1.40001
1.40001
1.40001
1.40001
1.40001
1.40001
1.40001
1.40001
1.40001
1.40001
1.40001
1.40001
1.40001
1.40001
1.40001
1.40001
1.40001
1.40001
1.40001
1.40001
1.40001
1.40001
1.40001
1.40001
1.40001
1.40001
1.40001
1.40001
1.40001
1.40001
1.40001
1.40001
1.40001
1.40001
1.40001
1.40001
1.40001
1.40001
1.40001
1.40001
1.40001
1.40001
1.40001
1.40001
1.40001
1.40001
1.40001
1.40001
1.40001
1.40001
1.40001
1.40001
1.40001
1.40001
1.40001
1.40001
1.40001
1.40001
1.40001
1.40001
1.40001
1.40001
1.40001
1.40001
1.40001
1.40001
1.40001
1.40001
1.40001
1.40001
1.40001
1.40001
1.40001
1.40001
1.40001
1.40001
1.40001
1.40001
1.40001
1.40001
1.40001
1.40001
1.40001
1.40001
1.40001
1.40001
1.40001
1.40001
1.40001
1.40001
1.40001
1.40001
1.40001
1.40001
1.40001
1.40001
1.40001
1.40001
1.40001
1.40001
1.40001
1.40001
1.40001
1.40001
1.40001
1.40001
1.40001
1.40001
1.40001
1.40001
1.40001
1.40001
1.40001
1.40001
1.40001
1.40001
1.40001
1.40001
1.40001
1.40001
1.40001
1.40001
1.40001
1.40001
1.40001
1.40001
1.40001
1.40001
1.40001
1.40001
1.40001
1.40001
1.40001
1.40001
1.40001
1.40001
1.40001
1.40001
1.40001
1.40001
1.40001
1.40001
1.40001
1.40001
1.40001
1.40001
1.40001
1.40001
1.40001
1.40001
1.40001
1.40001
1.40001
1.40001
1.40001
1.40001
1.40001
1.40001
1.40001
1.40001
1.40001
1.40001
1.40001
1.40001
1.40001
1.40001
1.40001
1.40001
1.40001
1.40001
1.40001
1.40001
1.40001
1.40001
1.40001
1.40001
1.40001
1.40001
1.40001
1.40001
1.40001
1.40001
1.40001
1.40001
1.40001
1.40001
1.40001
1.40001
1.40001
1.40001
1.40001
1.40001
1.40001
1.40001
1.40001
1.40001
1.40001
1.40001
1.40001
1.40001
1.40001
1.40001
1.40001
1.40001
1.40001
1.40001
1.40001
1.40001
1.40001
1.40001
1.40001
1.40001
1.40001
1.40001
1.40001
1.40001
1.40001
1.40001
1.40001
1.40001
1.40001
1.40001
1.40001
1.40001
1.40001
1.40001
1.40001
1.40001
1.40001
1.40001
1.40001
1.40001
1.40001
1.40001
1.40001
1.40001
1.40001
1.40001
1.40001
1.40001
1.40001
1.40001
1.40001
1.40001
1.40001
1.40001
1.40001
1.40001
1.40001
1.40001
1.40001
1.40001
1.40001
1.40001
1.40001
1.40001
1.40001
1.40001
1.40001
1.40001
1.40001
1.40001
1.40001
1.40001
1.40001
1.40001
1.40001
1.40001
1.40001
1.40001
1.40001
1.40001
1.40001
1.40001
1.40001
1.40001
1.40001
1.40001
1.40001
1.40001
1.40001
1.40001
1.40001
1.40001
1.40001
1.40001
1.40001
1.40001
1.40001
1.40001
1.40001
1.40001
1.40001
1.40001
1.40001
1.40001
1.40001
1.40001
1.40001
1.40001
1.40001
1.40001
1.40001
1.40001
1.40001
1.40001
1.40001
1.40001
1.40001
1.40001
1.40001
1.40001
1.40001
1.40001
1.40001
1.40001
1.40001
1.40001
1.40001
1.40001
1.40001
1.40001
1.40001
1.40001
1.40001
1.40001
1.40001
1.40001
1.40001
1.40001
1.40001
1.40001
1.40001
1.40001
1.40001
1.40001
1.40001
1.40001
1.40001
1.40001
1.40001
1.40001
1.40001
1.40001
1.40001
1.40001
1.40001
1.40001
1.40001
1.40001
1.40001
1.40001
1.40001
1.40001
1.40001
1.40001
1.40001
1.40001
1.40001
1.40001
1.40001
1.40001
1.40001
1.40001
1.40001
1.40001
1.40001
1.40001
1.40001
1.40001
1.40001
1.40001
1.40001
1.40001
1.40001
1.40001
1.40001
1.40001
1.40001
1.40001
1.40001
1.40001
1.40001
1.40001
1.40001
1.40001
1.40001
1.40001
1.40001
1.40001
1.40001
1.40001
1.40001
1.40001
1.40001
1.40001
1.40001
1.40001
1.40001
1.40001
1.40001
1.40001
1.40001
1.40001
1.40001
1.40001
1.40001
1.40001
1.40001
1.40001
1.40001
1.40001
1.40001
1.40001
1.40001
1.40001
1.40001
1.40001
1.40001
1.40001
1.40001
1.40001
1.40001
1.40001
1.40001
1.40001
1.40001
1.40001
1.40001
1.40001
1.40001
1.40001
1.40001
1.40001
1.40001
1.40001
1.40001
1.40001
1.40001
1.40001
1.40001
1.40001
1.40001
1.40001
1.40001
1.40001
1.40001
1.40001
1.40001
1.40001
1.40001
1.40001
1.40001
1.40001
1.40001
1.40001
1.40001
1.40001
1.40001
1.40001
1.40001
1.40001
1.40001
1.40001
1.40001
1.40001
1.40001
1.40001
1.40001
1.40001
1.40001
1.40001
1.40001
1.40001
1.40001
1.40001
1.40001
1.40001
1.40001
1.40001
1.40001
1.40001
1.40001
1.40001
1.40001
1.40001
1.40001
1.40001
1.40001
1.40001
1.40001
1.40001
1.40001
1.40001
1.40001
1.40001
1.40001
1.40001
1.40001
1.40001
1.40001
1.40001
1.40001
1.40001
1.40001
1.40001
1.40001
1.40001
1.40001
1.40001
1.40001
1.40001
1.40001
1.40001
1.40001
1.40001
1.40001
1.40001
1.40001
1.40001
1.40001
1.40001
1.40001
1.40001
1.40001
1.40001
1.40001
1.40001
1.40001
1.40001
1.40001
1.40001
1.40001
1.40001
1.40001
1.40001
1.40001
1.40001
1.40001
1.40001
1.40001
1.40001
1.40001
1.40001
1.40001
1.40001
1.40001
1.40001
1.40001
1.40001
1.40001
1.40001
1.40001
1.40001
1.40001
1.40001
1.40001
1.40001
1.40001
1.40001
1.40001
1.40001
1.40001
1.40001
1.40001
1.40001
1.40001
1.40001
1.40001
1.40001
1.40001
1.40001
1.40001
1.40001
1.40001
1.40001
1.40001
1.40001
1.40001
1.40001
1.40001
1.40001
1.40001
1.40001
1.40001
1.40001
1.40001
1.40001
1.40001
1.40001
1.40001
1.40001
1.40001
1.40001
1.40001
1.40001
1.40001
1.40001
1.40001
1.40001
1.40001
1.40001
1.40001
1.40001
1.40001
1.40001
1.40001
1.40001
1.40001
1.40001
1.40001
1.40001
1.40001
1.40001
1.40001
1.40001
1.40001
1.40001
1.40001
1.40001
1.40001
1.40001
1.40001
1.40001
1.40001
1.40001
1.40001
1.40001
1.40001
1.40001
1.40001
1.40001
1.40001
1.40001
1.40001
1.40001
1.40001
1.40001
1.40001
1.40001
1.40001
1.40001
1.40001
1.40001
1.40001
1.40001
1.40001
1.40001
1.40001
1.40001
1.40001
1.40001
1.40001
1.40001
1.40001
1.40001
1.40001
1.40001
1.40001
1.40001
1.40001
1.40001
1.40001
1.40001
1.40001
1.40001
1.40001
1.40001
1.40001
1.40001
1.40001
1.40001
1.40001
1.40001
1.40001
1.40001
1.40001
1.40001
1.40001
1.40001
1.40001
1.40001
1.40001
1.40001
1.40001
1.40001
1.40001
1.40001
1.40001
1.40001
1.40001
1.40001
1.40001
1.40001
1.40001
1.40001
1.40001
1.40001
1.40001
1.40001
1.40001
1.40001
1.40001
1.40001
1.40001
1.40001
1.40001
1.40001
1.40001
1.40001
1.40001
1.40001
1.40001
1.40001
1.40001
1.40001
1.40001
1.40001
1.40001
1.40001
1.40001
1.40001
1.40001
1.40001
1.40001
1.40001
1.40001
1.40001
1.40001
1.40001
1.40001
1.40001
1.40001
1.40001
1.40001
1.40001
1.40001
1.40001
1.40001
1.40001
1.40001
1.40001
1.40001
1.40001
1.40001
1.40001
1.40001
1.40001
1.40001
1.40001
1.40001
1.40001
1.40001
1.40001
1.40001
1.40001
1.40001
1.40001
1.40001
1.40001
1.40001
1.40001
1.40001
1.40001
1.40001
1.40001
1.40001
1.40001
1.40001
1.40001
1.40001
1.40001
1.40001
1.40001
1.40001
1.40001
1.40001
1.40001
1.40001
1.40001
1.40001
1.40001
1.40001
1.40001
1.40001
1.40001
1.40001
1.40001
1.40001
1.40001
1.40001
1.40001
1.40001
1.40001
1.40001
1.40001
1.40001
1.40001
1.40001
1.40001
1.40001
1.40001
1.40001
1.40001
1.40001
1.40001
1.40001
1.40001
1.40001
1.40001
1.40001
1.40001
1.39996
1.40001
1.40001
1.40001
1.40001
1.40001
1.40001
1.40001
1.40001
1.40001
1.40001
1.40001
1.40001
1.40001
1.40001
1.39736
1.39981
1.4
1.40001
1.40001
1.40001
1.40001
1.40001
1.40001
1.40001
1.40001
1.40001
1.40001
1.40001
1.40001
1.54477
1.40085
1.4
1.4
1.40001
1.40001
1.40001
1.40001
1.40001
1.40001
1.40001
1.40001
1.40001
1.40001
1.40001
2.8935
1.50328
1.40068
1.4
1.4
1.4
1.40001
1.40001
1.40001
1.40001
1.40001
1.40001
1.40001
1.40001
1.40001
4.6191
2.35485
1.46645
1.40074
1.40001
1.40001
1.40001
1.40001
1.40001
1.40001
1.40001
1.40001
1.40001
1.40001
1.40001
4.52183
3.56004
1.90676
1.42679
1.40026
1.40001
1.40001
1.40001
1.40001
1.40001
1.40001
1.40001
1.40001
1.40001
1.40001
4.08062
3.99832
2.76518
1.61151
1.40718
1.40007
1.40001
1.40001
1.40001
1.40001
1.40001
1.40001
1.40001
1.40001
1.40001
3.2591
3.92166
3.51988
2.15178
1.46706
1.40113
1.40001
1.4
1.40001
1.40001
1.40001
1.40001
1.40001
1.40001
1.40001
2.26747
3.42674
3.59629
2.90609
1.83044
1.45141
1.40262
1.40007
1.40001
1.40001
1.40001
1.40001
1.40001
1.40001
1.40001
1.74208
2.86451
3.4853
3.29569
2.34973
1.55165
1.40629
1.40013
1.40001
1.40001
1.40001
1.40001
1.40001
1.40001
1.40001
1.30393
2.01598
3.03942
3.27238
2.99085
2.00901
1.46214
1.40158
1.40002
1.40001
1.40001
1.40001
1.40001
1.40001
1.40001
1.1704
1.55328
2.36387
3.1202
3.0932
2.57872
1.6861
1.41467
1.40021
1.40001
1.40001
1.40001
1.40001
1.40001
1.40001
1.05982
1.42437
1.85667
2.66972
3.05273
2.94875
2.16727
1.5094
1.40342
1.40004
1.40001
1.40001
1.40001
1.40001
1.40001
0.886719
1.26547
1.56392
2.15117
2.87041
2.94849
2.59843
1.77682
1.4271
1.40047
1.40001
1.40001
1.40001
1.40001
1.40001
0.778556
1.07295
1.35574
1.79429
2.47396
2.89359
2.82014
2.19614
1.53906
1.40539
1.40007
1.40001
1.40001
1.40001
1.40001
0.767255
0.943718
1.12494
1.52194
2.09451
2.69756
2.81226
2.5518
1.80455
1.43374
1.40068
1.40001
1.40001
1.40001
1.40001
0.775037
0.896806
1.01
1.29097
1.74019
2.36432
2.75306
2.70149
2.17621
1.55244
1.40663
1.40009
1.40001
1.40001
1.40001
0.761383
0.854389
0.991818
1.22724
1.48192
1.99139
2.56293
2.69094
2.4692
1.79976
1.43763
1.40083
1.40001
1.40001
1.40001
0.735077
0.807654
0.952238
1.16774
1.33637
1.71151
2.26034
2.632
2.59488
2.1286
1.54649
1.40662
1.40009
1.40001
1.40001
0.701811
0.774535
0.916594
1.08241
1.21749
1.51358
1.953
2.46989
2.58747
2.38152
1.76888
1.43523
1.40082
1.40001
1.40001
0.671947
0.762573
0.886394
0.981007
1.09474
1.37834
1.70916
2.20845
2.53691
2.49881
2.066
1.53297
1.40588
1.40008
1.40001
0.65113
0.741768
0.855882
0.920007
1.02429
1.27485
1.51865
1.93703
2.3949
2.49216
2.28823
1.72526
1.43129
1.40075
1.40001
0.651091
0.712947
0.816148
0.874722
0.995157
1.17918
1.34243
1.71341
2.18128
2.45447
2.41224
1.99296
1.51032
1.40457
1.40007
0.670902
0.671411
0.768572
0.847183
0.99191
1.12408
1.22546
1.50577
1.92781
2.34558
2.40838
2.19899
1.67642
1.42504
1.40059
0.797071
0.67829
0.727802
0.817239
0.965139
1.05389
1.15323
1.40368
1.69946
2.14655
2.38011
2.32804
1.91554
1.48955
1.40361
1.04792
0.736571
0.732191
0.782322
0.910383
0.972418
1.07975
1.32061
1.54313
1.92836
2.29613
2.3267
2.1135
1.62831
1.41963
1.23536
0.887614
0.745977
0.767916
0.861943
0.911153
1.02398
1.23029
1.40453
1.72219
2.13464
2.30987
2.24327
1.8378
1.4716
1.31022
1.09811
0.804286
0.764656
0.809661
0.882258
1.01871
1.15732
1.28769
1.57182
1.95054
2.25844
2.25515
2.02103
1.59055
1.3266
1.26767
1.0399
0.815328
0.809622
0.850122
0.982871
1.06312
1.15986
1.39404
1.67136
2.04547
2.22329
2.1676
1.94232
1.19936
1.07394
0.962364
0.813057
0.71429
0.692346
0.693727
0.699538
0.682219
0.650078
0.608615
0.591925
0.598086
0.642135
0.866253
1.17029
1.2298
1.30349
1.35282
1.33798
0.948217
0.871884
0.780767
0.665611
0.624648
0.635559
0.649996
0.650268
0.63652
0.607545
0.568411
0.568837
0.622992
0.86823
1.18019
1.31957
1.28443
1.30131
1.34563
1.34113
0.733737
0.711503
0.657226
0.575851
0.551906
0.564913
0.595851
0.599277
0.589475
0.563473
0.54488
0.613543
0.877768
1.17873
1.30331
1.32892
1.3138
1.30525
1.33383
1.34067
0.561043
0.576915
0.538442
0.492547
0.495314
0.515963
0.534996
0.54035
0.542253
0.523723
0.61191
0.898264
1.15644
1.31706
1.31374
1.3223
1.31829
1.31015
1.32255
1.33925
0.444121
0.457229
0.460981