/*--------------------------------*- C++ -*----------------------------------*\
  =========                 |
  \\      /  F ield         | OpenFOAM: The Open Source CFD Toolbox
   \\    /   O peration     | Website:  https://openfoam.org
    \\  /    A nd           | Version:  7
     \\/     M anipulation  |
\*---------------------------------------------------------------------------*/
FoamFile
{
    version     2.0;
    format      ascii;
    class       volVectorField;
    location    "4.8";
    object      U;
}
// * * * * * * * * * * * * * * * * * * * * * * * * * * * * * * * * * * * * * //

dimensions      [0 1 -1 0 0 0 0];

internalField   nonuniform List<vector> 
3700
(
(1.47624 -0.654126 0)
(1.28424 -0.699516 0)
(1.32388 -0.494141 0)
(1.39421 -0.54347 0)
(1.38821 -0.369041 0)
(1.41737 -0.14701 0)
(1.53576 -0.0200527 0)
(1.66809 -0.0887398 0)
(1.65903 -0.208194 0)
(1.5903 -0.229453 0)
(1.51516 -0.194478 0)
(1.53403 -0.108142 0)
(1.63181 -0.111073 0)
(1.68669 -0.192188 0)
(1.7504 -0.303125 0)
(1.79479 -0.350856 0)
(1.77438 -0.335109 0)
(1.74374 -0.312548 0)
(1.73133 -0.266089 0)
(1.72165 -0.172507 0)
(1.52899 -1.51108 0)
(1.51064 -1.65442 0)
(1.58033 -1.61676 0)
(1.65497 -1.76268 0)
(1.7298 -1.68538 0)
(1.71194 -1.30973 0)
(1.79218 -1.05307 0)
(1.90935 -1.1605 0)
(1.95002 -1.43848 0)
(1.85783 -1.43935 0)
(1.79251 -1.34903 0)
(1.84253 -1.24764 0)
(1.99276 -1.2585 0)
(2.10229 -1.4302 0)
(2.18116 -1.51407 0)
(2.2227 -1.48948 0)
(2.24598 -1.3833 0)
(2.25824 -1.26002 0)
(2.2701 -1.10912 0)
(2.2836 -1.05099 0)
(1.41837 -1.50368 0)
(1.53274 -1.75687 0)
(1.63997 -1.91901 0)
(1.76805 -2.06876 0)
(1.87 -2.19696 0)
(1.90764 -2.24298 0)
(1.92699 -2.18269 0)
(1.91796 -2.18168 0)
(1.97502 -2.16259 0)
(2.08162 -2.13781 0)
(2.19035 -2.0776 0)
(2.24695 -2.04321 0)
(2.31392 -1.94892 0)
(2.30714 -1.93417 0)
(2.32901 -1.85081 0)
(2.38013 -1.80164 0)
(2.45191 -1.73664 0)
(2.53612 -1.65625 0)
(2.63186 -1.59521 0)
(2.75227 -1.50551 0)
(1.34297 -1.51094 0)
(1.48935 -1.82611 0)
(1.72222 -2.10394 0)
(1.85551 -2.29378 0)
(1.94871 -2.33899 0)
(1.9608 -2.36555 0)
(1.99401 -2.14227 0)
(1.94996 -2.07028 0)
(2.02077 -1.99331 0)
(2.18012 -1.97239 0)
(2.35219 -1.7416 0)
(2.47995 -1.71416 0)
(2.58671 -1.63128 0)
(2.57934 -1.69107 0)
(2.56667 -1.6783 0)
(2.52665 -1.68481 0)
(2.52335 -1.6374 0)
(2.55529 -1.49553 0)
(2.61385 -1.45883 0)
(2.7212 -1.268 0)
(1.29634 -1.52082 0)
(1.55695 -1.93896 0)
(1.86583 -2.19292 0)
(2.03064 -2.30346 0)
(2.19039 -2.30481 0)
(2.11749 -2.37408 0)
(2.11828 -2.10886 0)
(2.02077 -2.06568 0)
(2.04269 -1.99312 0)
(2.12973 -1.92787 0)
(2.24138 -1.78194 0)
(2.43245 -1.69787 0)
(2.54043 -1.51223 0)
(2.6858 -1.38653 0)
(2.74889 -1.27929 0)
(2.74068 -1.26797 0)
(2.69908 -1.34342 0)
(2.69054 -1.24712 0)
(2.63399 -1.32546 0)
(2.66101 -1.19443 0)
(1.37776 -1.6467 0)
(1.69628 -2.00924 0)
(2.04955 -2.24395 0)
(2.12773 -2.2828 0)
(2.2509 -2.22099 0)
(2.26763 -2.24887 0)
(2.2957 -2.01904 0)
(2.23061 -1.95204 0)
(2.23592 -1.94553 0)
(2.25003 -1.86732 0)
(2.30057 -1.7675 0)
(2.41431 -1.65244 0)
(2.48773 -1.50587 0)
(2.62784 -1.41369 0)
(2.70444 -1.26146 0)
(2.77831 -1.034 0)
(2.82501 -0.935395 0)
(2.82736 -0.820455 0)
(2.75233 -0.894603 0)
(2.69921 -0.920034 0)
(1.4954 -1.72488 0)
(1.84095 -2.06266 0)
(1.98762 -2.27716 0)
(2.04729 -2.25272 0)
(2.21489 -2.19005 0)
(2.28217 -2.17204 0)
(2.33739 -1.98204 0)
(2.37759 -1.81125 0)
(2.44977 -1.77371 0)
(2.53382 -1.67729 0)
(2.49748 -1.68352 0)
(2.54352 -1.534 0)
(2.55117 -1.40684 0)
(2.59857 -1.32439 0)
(2.64682 -1.19059 0)
(2.69648 -1.0343 0)
(2.78003 -0.907805 0)
(2.82767 -0.686151 0)
(2.83004 -0.538557 0)
(2.74742 -0.492032 0)
(1.58106 -1.78848 0)
(1.81543 -2.07678 0)
(1.82044 -2.29191 0)
(1.92853 -2.23837 0)
(2.02447 -2.03275 0)
(2.18978 -1.85155 0)
(2.29413 -1.89702 0)
(2.47139 -1.65633 0)
(2.57088 -1.64005 0)
(2.69317 -1.37787 0)
(2.71181 -1.42104 0)
(2.75079 -1.22296 0)
(2.69997 -1.19945 0)
(2.69257 -1.11305 0)
(2.69162 -0.999737 0)
(2.68762 -0.890204 0)
(2.70742 -0.807978 0)
(2.77144 -0.702053 0)
(2.76697 -0.484121 0)
(2.75004 -0.312807 0)
(1.64484 -1.77082 0)
(1.69596 -2.00916 0)
(1.67076 -2.20614 0)
(1.79019 -2.17599 0)
(1.90493 -1.92287 0)
(2.01908 -1.80973 0)
(2.10711 -1.8071 0)
(2.29036 -1.56049 0)
(2.45357 -1.49406 0)
(2.58145 -1.22445 0)
(2.67996 -1.03844 0)
(2.75366 -0.825214 0)
(2.76907 -0.749239 0)
(2.78091 -0.669404 0)
(2.77957 -0.607764 0)
(2.74765 -0.567383 0)
(2.71715 -0.500245 0)
(2.72778 -0.528283 0)
(2.70444 -0.395413 0)
(2.67012 -0.178135 0)
(1.57965 -1.6212 0)
(1.59719 -1.82743 0)
(1.59727 -1.96524 0)
(1.6248 -1.95162 0)
(1.82745 -1.82103 0)
(1.94444 -1.77028 0)
(2.06098 -1.73844 0)
(2.21499 -1.51974 0)
(2.30003 -1.4105 0)
(2.41215 -1.29052 0)
(2.54363 -1.05316 0)
(2.64591 -0.846477 0)
(2.69133 -0.588605 0)
(2.75379 -0.436397 0)
(2.73462 -0.218979 0)
(2.7228 -0.171855 0)
(2.70538 -0.0913547 0)
(2.67685 -0.178472 0)
(2.65185 -0.185944 0)
(2.61539 -0.053796 0)
(1.45941 -1.4295 0)
(1.58797 -1.59583 0)
(1.68382 -1.72342 0)
(1.64649 -1.66814 0)
(1.77626 -1.78577 0)
(2.01416 -1.66625 0)
(2.20813 -1.5616 0)
(2.35169 -1.43077 0)
(2.42561 -1.22807 0)
(2.45427 -1.14553 0)
(2.51935 -0.9429 0)
(2.57676 -0.768336 0)
(2.60652 -0.560069 0)
(2.6839 -0.432534 0)
(2.65648 -0.180267 0)
(2.67158 -0.0464957 0)
(2.63123 0.154454 0)
(2.58961 0.17471 0)
(2.53711 0.188288 0)
(2.57893 0.0652812 0)
(1.3083 -1.25927 0)
(1.53944 -1.40954 0)
(1.73526 -1.62061 0)
(1.76521 -1.45664 0)
(1.78967 -1.75151 0)
(2.1385 -1.61501 0)
(2.3702 -1.35126 0)
(2.56133 -1.01227 0)
(2.65168 -0.72964 0)
(2.65265 -0.680532 0)
(2.65911 -0.501173 0)
(2.65282 -0.35371 0)
(2.62884 -0.230365 0)
(2.62877 -0.150068 0)
(2.58758 -0.0180589 0)
(2.58728 0.0392914 0)
(2.54993 0.178631 0)
(2.49769 0.319897 0)
(2.42915 0.413998 0)
(2.44814 0.353402 0)
(1.15746 -1.10802 0)
(1.44548 -1.28104 0)
(1.70749 -1.6112 0)
(1.85623 -1.33837 0)
(2.24101 -1.47207 0)
(2.58531 -1.41032 0)
(2.77256 -0.99106 0)
(2.78425 -0.494537 0)
(2.73745 -0.391651 0)
(2.67367 -0.163707 0)
(2.66721 -0.037937 0)
(2.61491 0.135561 0)
(2.58474 0.224749 0)
(2.53658 0.321346 0)
(2.49426 0.364372 0)
(2.46212 0.362558 0)
(2.43422 0.36892 0)
(2.39403 0.428553 0)
(2.31266 0.563412 0)
(2.30251 0.555959 0)
(0.98497 -0.950222 0)
(1.39295 -1.15727 0)
(1.76724 -1.62809 0)
(2.39172 -1.22077 0)
(2.51366 -1.1542 0)
(2.44786 -1.16843 0)
(2.53247 -0.834364 0)
(2.55832 -0.495316 0)
(2.54866 -0.363943 0)
(2.54982 -0.141372 0)
(2.56301 0.0463862 0)
(2.50021 0.275736 0)
(2.46626 0.421567 0)
(2.38724 0.574483 0)
(2.33034 0.654698 0)
(2.28676 0.675907 0)
(2.23597 0.710649 0)
(2.23429 0.685736 0)
(2.18892 0.734144 0)
(2.14129 0.775882 0)
(0.74396 -0.797937 0)
(1.34979 -1.11496 0)
(2.09041 -1.38628 0)
(2.33053 -1.2599 0)
(2.30791 -1.1283 0)
(2.38697 -0.817212 0)
(2.44497 -0.486339 0)
(2.45765 -0.230831 0)
(2.43927 -0.00986548 0)
(2.45162 0.142059 0)
(2.41132 0.334122 0)
(2.34918 0.493174 0)
(2.30039 0.60515 0)
(2.23106 0.716906 0)
(2.17202 0.788631 0)
(2.12458 0.828496 0)
(2.06384 0.89581 0)
(2.04748 0.91376 0)
(2.03498 0.934933 0)
(2.06049 0.953139 0)
(0.713378 -0.55131 0)
(1.28616 -1.17373 0)
(2.30745 -0.800877 0)
(2.16862 -0.987424 0)
(2.32372 -0.698035 0)
(2.4207 -0.155025 0)
(2.42676 0.175298 0)
(2.38 0.364276 0)
(2.31857 0.494792 0)
(2.29851 0.621498 0)
(2.20291 0.766506 0)
(2.1278 0.862493 0)
(2.07246 0.915512 0)
(2.02183 0.964875 0)
(1.98879 0.964237 0)
(1.96052 0.980201 0)
(1.95582 1.00884 0)
(1.96899 0.99509 0)
(1.99229 0.995917 0)
(2.06656 0.981231 0)
(1.06913 -0.460807 0)
(1.82596 -0.56359 0)
(2.16714 -0.808843 0)
(2.33589 -0.117833 0)
(2.36064 0.218433 0)
(2.34334 0.380103 0)
(2.29822 0.531992 0)
(2.19057 0.71143 0)
(2.13093 0.794552 0)
(2.08123 0.914005 0)
(1.97432 1.0126 0)
(1.91437 1.06607 0)
(1.87973 1.08701 0)
(1.86648 1.09433 0)
(1.86911 1.05814 0)
(1.89697 1.0478 0)
(1.96392 1.018 0)
(2.16647 0.896637 0)
(2.37945 0.787523 0)
(2.77285 0.443606 0)
(1.12716 -0.0883061 0)
(1.85904 -0.123284 0)
(2.25272 0.187956 0)
(2.23997 0.515201 0)
(2.19954 0.653675 0)
(2.14169 0.778168 0)
(2.03982 0.903951 0)
(1.96867 0.95758 0)
(1.90948 1.02905 0)
(1.85418 1.12172 0)
(1.79159 1.1553 0)
(1.79334 1.14954 0)
(1.81228 1.12945 0)
(1.84997 1.0876 0)
(2.03727 0.953792 0)
(2.25738 0.831262 0)
(2.66688 0.502698 0)
(3.03796 0.0892048 0)
(3.05567 -0.0248718 0)
(3.00415 -0.00477905 0)
(1.01045 0.0333289 0)
(1.92736 0.76685 0)
(2.10896 0.840135 0)
(1.99854 0.974269 0)
(1.95504 0.995936 0)
(1.88299 1.07744 0)
(1.79367 1.13657 0)
(1.75604 1.14836 0)
(1.75284 1.16481 0)
(1.73017 1.20728 0)
(1.71622 1.19875 0)
(1.87504 1.06828 0)
(2.10818 0.881222 0)
(2.50582 0.573716 0)
(2.98643 0.134478 0)
(3.07301 -0.0293099 0)
(3.00806 -0.00762767 0)
(3.00291 -0.00380784 0)
(3.00123 -0.0021863 0)
(3.00008 -0.000476835 0)
(1.16685 0.764592 0)
(1.8293 1.14628 0)
(1.83806 1.14998 0)
(1.74629 1.18873 0)
(1.71862 1.2036 0)
(1.66616 1.246 0)
(1.65797 1.21859 0)
(1.72336 1.16658 0)
(1.75026 1.23325 0)
(1.77926 1.15017 0)
(2.26718 0.751729 0)
(2.85444 0.215331 0)
(3.09509 -0.026276 0)
(3.02051 -0.0123127 0)
(3.00465 -0.00546784 0)
(3.00189 -0.00304407 0)
(3.00006 -0.000603391 0)
(2.99998 -2.39949e-05 0)
(2.99999 1.43882e-05 0)
(3 5.95102e-06 0)
(1.57763 1.2531 0)
(1.58394 1.25875 0)
(1.5936 1.26615 0)
(1.60363 1.26852 0)
(1.61529 1.26266 0)
(1.61546 1.26091 0)
(1.87856 1.16019 0)
(2.97171 0.35313 0)
(3.34742 -0.593152 0)
(3 -1.12891e-10 0)
(3 -1.51657e-11 0)
(3 6.64704e-11 0)
(3 -8.06279e-14 0)
(3 -1.37833e-12 0)
(3 -4.65834e-14 0)
(3 3.43966e-14 0)
(3 -2.28126e-14 0)
(3 -5.56657e-15 0)
(3 -4.71618e-15 0)
(3 -6.22302e-15 0)
(1.57567 1.24272 0)
(1.58965 1.25581 0)
(1.60203 1.26831 0)
(1.61087 1.27198 0)
(1.64979 1.24872 0)
(1.76364 1.19288 0)
(2.29555 0.716551 0)
(3.00156 0.0092426 0)
(3 6.00087e-08 0)
(3 -3.98466e-10 0)
(3 9.45114e-13 0)
(3 8.81386e-15 0)
(3 -6.49519e-16 0)
(3 -1.24484e-17 0)
(3 -7.96211e-16 0)
(3 -9.44908e-16 0)
(3 -1.14631e-15 0)
(3 -1.55353e-15 0)
(3 -1.2778e-15 0)
(3 5.45521e-16 0)
(1.58042 1.25216 0)
(1.59922 1.25809 0)
(1.60834 1.26415 0)
(1.59485 1.27946 0)
(1.76169 1.19434 0)
(2.19598 0.82755 0)
(2.99417 -0.000864671 0)
(3.00018 -0.0004537 0)
(3 6.62427e-07 0)
(3 -3.75551e-11 0)
(3 -9.59907e-13 0)
(3 4.92129e-15 0)
(3 -1.96218e-15 0)
(3 -2.08659e-15 0)
(3 -1.62517e-15 0)
(3 -1.10835e-15 0)
(3 -6.34199e-16 0)
(3 -1.31283e-15 0)
(3 -4.56022e-16 0)
(3 1.00744e-15 0)
(1.5823 1.25578 0)
(1.60104 1.26139 0)
(1.62036 1.26892 0)
(1.57713 1.32117 0)
(1.86924 1.08518 0)
(2.74831 0.226824 0)
(3.00438 -0.00104418 0)
(2.99993 6.27181e-05 0)
(3 -8.18721e-07 0)
(3 1.52246e-09 0)
(3 -1.08975e-11 0)
(3 -2.74944e-14 0)
(3 -2.04857e-15 0)
(3 -2.3041e-15 0)
(3 -2.2144e-15 0)
(3 -1.16944e-15 0)
(3 -6.97777e-16 0)
(3 -1.17503e-15 0)
(3 8.11283e-16 0)
(3 1.05735e-15 0)
(1.58494 1.27115 0)
(1.60139 1.2732 0)
(1.63252 1.26507 0)
(1.63029 1.26543 0)
(2.30122 0.674482 0)
(3.02279 -0.0197963 0)
(2.99972 0.000134131 0)
(3 -4.16903e-06 0)
(3 8.19362e-08 0)
(3 -1.06982e-09 0)
(3 9.22705e-12 0)
(3 -2.39901e-15 0)
(3 -2.34315e-15 0)
(3 -2.81035e-15 0)
(3 -2.24279e-15 0)
(3 -1.56625e-15 0)
(3 -8.09889e-16 0)
(3 -9.07874e-16 0)
(3 -8.0708e-16 0)
(3 -1.49424e-16 0)
(1.58673 1.28699 0)
(1.58858 1.28418 0)
(1.6483 1.2494 0)
(1.89391 1.07841 0)
(2.74094 0.219278 0)
(3 -5.89495e-10 0)
(3 1.38845e-08 0)
(3 -1.25008e-08 0)
(3 5.34498e-10 0)
(3 -7.11938e-13 0)
(3 -1.05748e-13 0)
(3 -1.66508e-15 0)
(3 -1.92203e-15 0)
(3 -2.24864e-15 0)
(3 -2.69039e-15 0)
(3 -1.72664e-15 0)
(3 -1.07515e-15 0)
(3 -1.36428e-15 0)
(3 -1.46583e-15 0)
(3 9.39745e-17 0)
(1.5868 1.29778 0)
(1.55205 1.28992 0)
(1.66633 1.22327 0)
(2.11133 0.835829 0)
(3.02381 -0.0194251 0)
(3 -4.92636e-12 0)
(3 -5.60532e-12 0)
(3 1.38734e-11 0)
(3 -4.42664e-12 0)
(3 2.98557e-14 0)
(3 1.25885e-16 0)
(3 -1.17204e-15 0)
(3 -1.52087e-15 0)
(3 -1.39846e-15 0)
(3 -2.58786e-15 0)
(3 -2.15257e-15 0)
(3 -1.78074e-15 0)
(3 -2.49348e-15 0)
(3 -1.73154e-15 0)
(3 -8.20364e-16 0)
(1.58661 1.3238 0)
(1.50353 1.32385 0)
(1.7362 1.19293 0)
(2.39249 0.559006 0)
(3 -5.8996e-09 0)
(3 8.68365e-12 0)
(3 -2.17825e-14 0)
(3 -1.45347e-14 0)
(3 4.50843e-15 0)
(3 -2.71553e-15 0)
(3 -2.23053e-15 0)
(3 -1.612e-15 0)
(3 -1.26692e-16 0)
(3 -1.24644e-15 0)
(3 -2.70495e-15 0)
(3 -2.72093e-15 0)
(3 -2.5048e-15 0)
(3 -3.19208e-15 0)
(3 -2.92511e-15 0)
(3 -2.30141e-15 0)
(1.5833 1.30286 0)
(1.47418 1.33178 0)
(2.0092 1.03495 0)
(2.89419 0.115165 0)
(3 -3.16003e-09 0)
(3 -5.17846e-15 0)
(3 -1.03573e-16 0)
(3 -2.33697e-16 0)
(3 -6.77619e-16 0)
(3 -1.17958e-15 0)
(3 -2.07417e-15 0)
(3 -2.87571e-15 0)
(3 -1.18886e-15 0)
(3 -1.66033e-15 0)
(3 -1.48979e-15 0)
(3 -2.30875e-15 0)
(3 -3.35209e-15 0)
(3 -3.02311e-15 0)
(3 -2.88873e-15 0)
(3 -2.37914e-15 0)
(1.60131 1.29598 0)
(1.47785 1.39868 0)
(2.10687 0.86833 0)
(3.01116 -0.00912556 0)
(3 1.66667e-08 0)
(3 3.7873e-15 0)
(3 -3.5297e-16 0)
(3 -1.7322e-16 0)
(3 -3.82875e-16 0)
(3 -6.00724e-16 0)
(3 -6.55549e-16 0)
(3 -1.40767e-15 0)
(3 -2.15361e-15 0)
(3 -4.44996e-15 0)
(3 -5.09447e-15 0)
(3 -3.51798e-15 0)
(3 -2.17394e-15 0)
(3 -3.26567e-15 0)
(3 -2.91419e-15 0)
(3 -3.04444e-15 0)
(1.61942 1.28065 0)
(1.56877 1.31229 0)
(2.41934 0.532686 0)
(3 -1.63623e-12 0)
(3 -8.93475e-12 0)
(3 -4.63057e-15 0)
(3 -1.75352e-16 0)
(3 1.61029e-16 0)
(3 3.24361e-16 0)
(3 -1.72871e-16 0)
(3 -1.39406e-16 0)
(3 -5.99668e-16 0)
(3 -1.05055e-15 0)
(3 -2.33988e-15 0)
(3 -4.79608e-15 0)
(3 -4.06993e-15 0)
(3 -1.6987e-15 0)
(3 -1.64832e-15 0)
(3 -1.97741e-15 0)
(3 -1.95154e-15 0)
(1.63637 1.26801 0)
(1.6523 1.23076 0)
(2.65414 0.281979 0)
(3 1.59128e-12 0)
(3 -7.8016e-14 0)
(3 -6.57125e-16 0)
(3 -6.92876e-16 0)
(3 -4.49043e-17 0)
(3 3.70315e-16 0)
(3 1.94011e-16 0)
(3 -1.11133e-16 0)
(3 -6.28018e-16 0)
(3 -6.76894e-16 0)
(3 -1.17435e-15 0)
(3 -1.82364e-15 0)
(3 -2.95933e-15 0)
(3 -2.34656e-15 0)
(3 -2.36719e-15 0)
(3 -2.46428e-16 0)
(3 2.20631e-16 0)
(1.65737 1.24401 0)
(1.80914 1.09649 0)
(2.87566 0.0878447 0)
(3 -8.46707e-13 0)
(3 -1.86486e-15 0)
(3 -1.36305e-15 0)
(3 -3.16969e-16 0)
(3 2.20679e-16 0)
(3 1.70066e-16 0)
(3 5.13719e-16 0)
(3 1.03349e-16 0)
(3 -5.05286e-16 0)
(3 -8.67622e-16 0)
(3 -8.17286e-16 0)
(3 -1.23373e-15 0)
(3 -1.5575e-15 0)
(3 -2.9818e-15 0)
(3 -3.1483e-15 0)
(3 -2.13916e-15 0)
(3 -1.18609e-15 0)
(1.68696 1.1956 0)
(1.91626 0.967833 0)
(2.99959 0.000125799 0)
(3 8.00448e-14 0)
(3 -1.3325e-15 0)
(3 -6.67447e-16 0)
(3 1.54145e-16 0)
(3 4.36961e-16 0)
(3 9.71486e-16 0)
(3 8.06021e-16 0)
(3 7.91968e-16 0)
(3 6.10431e-16 0)
(3 -3.46594e-16 0)
(3 -6.75229e-16 0)
(3 -8.22652e-16 0)
(3 -9.31673e-16 0)
(3 -1.12967e-15 0)
(3 -2.06797e-15 0)
(3 -2.3083e-15 0)
(3 -1.40482e-15 0)
(1.71783 1.15841 0)
(2.06309 0.826542 0)
(3 -3.71061e-16 0)
(3 4.49025e-16 0)
(3 2.61679e-16 0)
(3 3.40584e-16 0)
(3 4.41154e-16 0)
(3 1.08237e-15 0)
(3 1.06436e-15 0)
(3 5.36621e-16 0)
(3 8.14282e-17 0)
(3 1.47371e-17 0)
(3 -3.67536e-17 0)
(3 -6.16593e-16 0)
(3 -7.56608e-16 0)
(3 -1.0087e-15 0)
(3 -7.44639e-16 0)
(3 -1.18269e-15 0)
(3 -1.99127e-15 0)
(3 -2.19829e-15 0)
(1.72377 1.10964 0)
(2.1951 0.669922 0)
(3 2.56113e-15 0)
(3 8.50589e-16 0)
(3 8.93207e-16 0)
(3 1.04967e-15 0)
(3 1.29579e-15 0)
(3 1.22222e-15 0)
(3 1.30961e-15 0)
(3 1.37189e-15 0)
(3 8.88549e-16 0)
(3 4.98633e-16 0)
(3 2.44743e-17 0)
(3 -1.79838e-16 0)
(3 -3.04184e-16 0)
(3 -7.78675e-16 0)
(3 -1.2559e-15 0)
(3 -1.21755e-15 0)
(3 -1.5476e-15 0)
(3 -1.77529e-15 0)
(1.82404 1.018 0)
(2.42414 0.460306 0)
(3 1.25124e-15 0)
(3 1.68566e-15 0)
(3 2.09132e-15 0)
(3 1.95862e-15 0)
(3 1.76859e-15 0)
(3 6.50651e-16 0)
(3 3.25379e-16 0)
(3 6.12989e-16 0)
(3 7.68186e-16 0)
(3 1.13786e-15 0)
(3 7.78045e-16 0)
(3 4.05393e-16 0)
(3 2.35778e-16 0)
(3 1.17952e-16 0)
(3 1.65933e-16 0)
(3 -1.86306e-16 0)
(3 -5.80425e-16 0)
(3 -1.25093e-15 0)
(1.95295 0.873185 0)
(2.71979 0.202549 0)
(3 9.56011e-16 0)
(3 1.89061e-15 0)
(3 2.77801e-15 0)
(3 3.20638e-15 0)
(3 2.96974e-15 0)
(3 3.15301e-15 0)
(3 3.53819e-15 0)
(3 3.49841e-15 0)
(3 3.58569e-15 0)
(3 3.58406e-15 0)
(3 3.31864e-15 0)
(3 2.97781e-15 0)
(3 2.83771e-15 0)
(3 2.53555e-15 0)
(3 2.4626e-15 0)
(3 2.26424e-15 0)
(3 1.78472e-15 0)
(3 1.26852e-15 0)
(2.11479 0.645625 0)
(2.99185 0.000188781 0)
(3 5.64886e-16 0)
(3 -3.10194e-17 0)
(3 2.56617e-16 0)
(3 1.40476e-15 0)
(3 1.63443e-15 0)
(3 1.32538e-15 0)
(3 1.93885e-15 0)
(3 2.80928e-15 0)
(3 3.49679e-15 0)
(3 3.54485e-15 0)
(3 3.68577e-15 0)
(3 3.78151e-15 0)
(3 3.60092e-15 0)
(3 3.32908e-15 0)
(3 2.9771e-15 0)
(3 2.86774e-15 0)
(3 2.62636e-15 0)
(3 2.647e-15 0)
(1.99709 0.377534 0)
(2.99993 -1.13993e-05 0)
(3 4.22976e-16 0)
(3 6.535e-16 0)
(3 9.95214e-16 0)
(3 2.16587e-15 0)
(3 2.54705e-15 0)
(3 1.9837e-15 0)
(3 2.96e-16 0)
(3 3.63935e-16 0)
(3 9.83577e-16 0)
(3 1.92243e-15 0)
(3 2.15495e-15 0)
(3 2.45273e-15 0)
(3 2.92687e-15 0)
(3 3.15846e-15 0)
(3 3.30677e-15 0)
(3 3.36224e-15 0)
(3 3.29772e-15 0)
(3 3.15309e-15 0)
(1.99542 -0.377756 0)
(2.99993 1.07343e-05 0)
(3 -4.0984e-16 0)
(3 1.83951e-15 0)
(3 1.99386e-15 0)
(3 2.85545e-15 0)
(3 2.60145e-15 0)
(3 2.11322e-15 0)
(3 2.10199e-15 0)
(3 1.98766e-15 0)
(3 1.94029e-15 0)
(3 1.98011e-15 0)
(3 2.17808e-15 0)
(3 2.77e-15 0)
(3 3.98837e-15 0)
(3 4.10479e-15 0)
(3 4.22006e-15 0)
(3 4.49092e-15 0)
(3 4.68892e-15 0)
(3 5.19572e-15 0)
(2.10191 -0.639614 0)
(2.99227 -0.000221433 0)
(3 -1.03358e-15 0)
(3 -4.07537e-16 0)
(3 -9.84726e-17 0)
(3 -2.44791e-16 0)
(3 2.55336e-16 0)
(3 8.09182e-16 0)
(3 2.50396e-15 0)
(3 2.41315e-15 0)
(3 1.36281e-15 0)
(3 1.23863e-15 0)
(3 4.62288e-16 0)
(3 1.24449e-15 0)
(3 1.70144e-15 0)
(3 1.87921e-15 0)
(3 2.07364e-15 0)
(3 2.24302e-15 0)
(3 2.31442e-15 0)
(3 2.53581e-15 0)
(1.96083 -0.875745 0)
(2.72489 -0.200741 0)
(3 -9.12256e-16 0)
(3 -9.46321e-16 0)
(3 -1.54608e-15 0)
(3 -1.43985e-15 0)
(3 -1.11944e-15 0)
(3 -2.60433e-16 0)
(3 7.7635e-17 0)
(3 7.10542e-16 0)
(3 1.35993e-17 0)
(3 1.75459e-16 0)
(3 3.24777e-16 0)
(3 5.77829e-16 0)
(3 7.77046e-16 0)
(3 6.59786e-16 0)
(3 3.87485e-16 0)
(3 1.10336e-16 0)
(3 -2.71819e-16 0)
(3 -4.03274e-16 0)
(1.82361 -1.01803 0)
(2.42412 -0.458983 0)
(3 1.12689e-15 0)
(3 5.24808e-16 0)
(3 -6.90996e-16 0)
(3 -2.03584e-15 0)
(3 -2.42269e-15 0)
(3 -1.93163e-15 0)
(3 -5.8191e-16 0)
(3 1.25776e-15 0)
(3 1.28575e-15 0)
(3 1.52327e-15 0)
(3 2.58067e-15 0)
(3 3.2003e-15 0)
(3 3.03132e-15 0)
(3 1.77194e-15 0)
(3 1.01793e-15 0)
(3 4.77041e-16 0)
(3 3.49522e-16 0)
(3 -3.52132e-16 0)
(1.72259 -1.11015 0)
(2.19306 -0.670726 0)
(3 6.25913e-16 0)
(3 1.89553e-15 0)
(3 1.786e-15 0)
(3 1.53953e-15 0)
(3 1.06677e-15 0)
(3 1.71863e-15 0)
(3 2.51663e-15 0)
(3 2.71904e-15 0)
(3 2.26224e-15 0)
(3 1.15167e-15 0)
(3 7.91545e-16 0)
(3 -8.21208e-16 0)
(3 -1.20427e-15 0)
(3 -1.06554e-15 0)
(3 -1.48651e-15 0)
(3 -1.52259e-15 0)
(3 -2.23872e-15 0)
(3 -3.13641e-15 0)
(1.71963 -1.15841 0)
(2.0617 -0.828335 0)
(3 4.68437e-16 0)
(3 4.47306e-16 0)
(3 -1.62252e-16 0)
(3 -2.48778e-16 0)
(3 4.69569e-16 0)
(3 2.64658e-15 0)
(3 2.81661e-15 0)
(3 3.08536e-15 0)
(3 2.59502e-15 0)
(3 1.87917e-15 0)
(3 1.44813e-15 0)
(3 6.27988e-16 0)
(3 2.74074e-16 0)
(3 -2.23401e-16 0)
(3 -1.17655e-15 0)
(3 -2.45325e-15 0)
(3 -2.56684e-15 0)
(3 -3.18204e-15 0)
(1.68618 -1.1965 0)
(1.91787 -0.967807 0)
(2.99954 -0.0001461 0)
(3 -6.5835e-14 0)
(3 -7.36516e-16 0)
(3 -4.30451e-16 0)
(3 8.20136e-16 0)
(3 2.37401e-15 0)
(3 1.85022e-15 0)
(3 1.27499e-15 0)
(3 5.56956e-16 0)
(3 5.24661e-16 0)
(3 -1.71134e-16 0)
(3 -1.54698e-15 0)
(3 -3.39639e-15 0)
(3 -4.32902e-15 0)
(3 -4.72166e-15 0)
(3 -4.71337e-15 0)
(3 -5.06963e-15 0)
(3 -5.44282e-15 0)
(1.65698 -1.24282 0)
(1.80377 -1.09829 0)
(2.8747 -0.0884124 0)
(3 1.12487e-12 0)
(3 -1.4083e-15 0)
(3 -1.19739e-15 0)
(3 -2.04065e-16 0)
(3 6.85981e-16 0)
(3 4.65959e-16 0)
(3 -9.24373e-16 0)
(3 -1.39812e-15 0)
(3 -1.68425e-15 0)
(3 -2.14355e-15 0)
(3 -2.96294e-15 0)
(3 -3.27082e-15 0)
(3 -3.86038e-15 0)
(3 -3.8495e-15 0)
(3 -3.01126e-15 0)
(3 -2.70403e-15 0)
(3 -2.15587e-15 0)
(1.63695 -1.2675 0)
(1.65748 -1.22869 0)
(2.65701 -0.279788 0)
(3 -1.24605e-12 0)
(3 3.16293e-14 0)
(3 -1.48862e-15 0)
(3 -1.81398e-15 0)
(3 -6.40936e-16 0)
(3 -1.32321e-15 0)
(3 -1.5353e-15 0)
(3 -1.4207e-15 0)
(3 -1.59395e-15 0)
(3 -1.40721e-15 0)
(3 -1.80075e-15 0)
(3 -1.93972e-15 0)
(3 -1.8815e-15 0)
(3 -1.33101e-15 0)
(3 -1.58304e-16 0)
(3 4.19714e-16 0)
(3 9.02767e-16 0)
(1.61958 -1.281 0)
(1.56933 -1.31169 0)
(2.41885 -0.532139 0)
(3 6.73557e-13 0)
(3 1.00998e-11 0)
(3 -2.15358e-13 0)
(3 -2.98199e-16 0)
(3 -2.67836e-15 0)
(3 -1.60188e-15 0)
(3 -5.27885e-16 0)
(3 -9.35529e-16 0)
(3 -1.14067e-15 0)
(3 -7.13215e-16 0)
(3 -6.26884e-16 0)
(3 -5.14276e-16 0)
(3 -1.39435e-15 0)
(3 -8.39615e-16 0)
(3 -5.00742e-17 0)
(3 2.86311e-16 0)
(3 1.16771e-15 0)
(1.60075 -1.29621 0)
(1.47721 -1.39955 0)
(2.1048 -0.87029 0)
(3.0112 0.00922447 0)
(3 -1.65525e-08 0)
(3 3.66371e-11 0)
(3 -8.21125e-14 0)
(3 -1.3592e-15 0)
(3 -1.65505e-15 0)
(3 -7.50667e-16 0)
(3 -1.80503e-16 0)
(3 -5.03657e-17 0)
(3 1.01759e-15 0)
(3 1.1622e-16 0)
(3 -5.95903e-17 0)
(3 -1.12838e-16 0)
(3 -3.05031e-16 0)
(3 2.21072e-16 0)
(3 2.11219e-16 0)
(3 1.22617e-15 0)
(1.58175 -1.30288 0)
(1.47251 -1.33273 0)
(2.00724 -1.03765 0)
(2.89245 -0.117835 0)
(3 3.06683e-09 0)
(3 -1.11402e-11 0)
(3 -5.79271e-15 0)
(3 -1.03911e-15 0)
(3 2.79193e-16 0)
(3 1.04122e-15 0)
(3 9.23706e-16 0)
(3 2.26437e-15 0)
(3 2.25251e-15 0)
(3 1.09282e-15 0)
(3 1.28863e-15 0)
(3 1.11003e-15 0)
(3 8.69492e-16 0)
(3 1.34065e-16 0)
(3 6.82036e-16 0)
(3 1.86627e-15 0)
(1.58477 -1.32285 0)
(1.5024 -1.3232 0)
(1.73927 -1.19284 0)
(2.39778 -0.557189 0)
(3 6.00456e-09 0)
(3 -3.64471e-11 0)
(3 1.51103e-13 0)
(3 1.12218e-14 0)
(3 -1.22682e-15 0)
(3 2.35608e-15 0)
(3 1.91817e-15 0)
(3 4.19305e-15 0)
(3 2.40249e-15 0)
(3 1.93028e-15 0)
(3 1.1095e-15 0)
(3 9.2091e-16 0)
(3 1.05445e-16 0)
(3 2.18339e-16 0)
(3 3.7207e-16 0)
(3 6.84804e-16 0)
(1.58675 -1.2973 0)
(1.55168 -1.28869 0)
(1.6655 -1.22368 0)
(2.10547 -0.838641 0)
(3.02364 0.0189843 0)
(3 1.66235e-12 0)
(3 -1.35697e-12 0)
(3 -1.98258e-12 0)
(3 1.98754e-12 0)
(3 -6.28642e-14 0)
(3 1.73681e-15 0)
(3 3.89265e-15 0)
(3 1.88755e-15 0)
(3 2.08334e-15 0)
(3 2.0818e-15 0)
(3 5.53112e-16 0)
(3 -8.02242e-16 0)
(3 -8.51902e-16 0)
(3 1.13761e-16 0)
(3 -4.32925e-16 0)
(1.58722 -1.28697 0)
(1.589 -1.28304 0)
(1.64882 -1.24754 0)
(1.90149 -1.07424 0)
(2.74638 -0.215696 0)
(3 5.88457e-10 0)
(3 -1.38879e-08 0)
(3 1.25057e-08 0)
(3 -5.34114e-10 0)
(3 1.97457e-12 0)
(3 1.13346e-13 0)
(3 -4.08824e-16 0)
(3 6.55825e-16 0)
(3 1.01234e-15 0)
(3 1.412e-15 0)
(3 5.30434e-17 0)
(3 -1.82876e-15 0)
(3 -2.69186e-15 0)
(3 -6.66945e-16 0)
(3 -1.00966e-15 0)
(1.58588 -1.27166 0)
(1.60251 -1.27235 0)
(1.63349 -1.26457 0)
(1.63346 -1.26023 0)
(2.30048 -0.673354 0)
(3.02299 0.0200547 0)
(2.99971 -0.00013223 0)
(3 4.16738e-06 0)
(3 -8.17784e-08 0)
(3 1.06651e-09 0)
(3 -5.48605e-12 0)
(3 1.32127e-14 0)
(3 -9.75896e-16 0)
(3 -2.97949e-16 0)
(3 7.25345e-17 0)
(3 -1.33108e-16 0)
(3 -1.63168e-15 0)
(3 -1.13283e-15 0)
(3 -9.2751e-16 0)
(3 -8.36123e-16 0)
(1.58317 -1.25677 0)
(1.60126 -1.26248 0)
(1.61926 -1.26985 0)
(1.57215 -1.32842 0)
(1.86445 -1.0908 0)
(2.74187 -0.233409 0)
(3.00443 0.00104213 0)
(2.99993 -6.20418e-05 0)
(3 8.0382e-07 0)
(3 -1.16746e-09 0)
(3 -4.78952e-13 0)
(3 -6.70815e-15 0)
(3 -1.76681e-16 0)
(3 -1.36212e-16 0)
(3 -1.46257e-18 0)
(3 8.26842e-18 0)
(3 -1.42795e-15 0)
(3 -3.4216e-16 0)
(3 -1.16682e-15 0)
(3 -3.77135e-16 0)
(1.58104 -1.25314 0)
(1.59904 -1.25872 0)
(1.6061 -1.26395 0)
(1.58925 -1.27927 0)
(1.76314 -1.19423 0)
(2.19861 -0.830456 0)
(2.99399 0.000330703 0)
(3.00018 0.000441454 0)
(3 -6.17754e-07 0)
(3 -2.86144e-10 0)
(3 3.52271e-12 0)
(3 1.32331e-14 0)
(3 -2.39848e-16 0)
(3 -2.87282e-16 0)
(3 -9.35865e-17 0)
(3 1.01702e-15 0)
(3 -5.97462e-17 0)
(3 -1.40656e-16 0)
(3 -1.30997e-15 0)
(3 -6.85096e-17 0)
(1.57542 -1.24303 0)
(1.5892 -1.25608 0)
(1.6017 -1.26796 0)
(1.61086 -1.27006 0)
(1.65304 -1.24546 0)
(1.76488 -1.1934 0)
(2.29962 -0.713952 0)
(3.00201 -0.00868528 0)
(3 -7.07297e-08 0)
(3 -2.79887e-10 0)
(3 -5.13697e-12 0)
(3 4.25014e-14 0)
(3 2.92725e-16 0)
(3 -2.59128e-15 0)
(3 1.76204e-16 0)
(3 1.78339e-15 0)
(3 6.42623e-16 0)
(3 3.23581e-17 0)
(3 9.53678e-17 0)
(3 8.01065e-16 0)
(1.57759 -1.25306 0)
(1.5838 -1.25871 0)
(1.59348 -1.26607 0)
(1.60394 -1.26815 0)
(1.61556 -1.26206 0)
(1.61588 -1.26062 0)
(1.87823 -1.15828 0)
(2.96973 -0.352062 0)
(3.35012 0.594412 0)
(3 -2.5276e-10 0)
(3 5.29334e-11 0)
(3 -2.24508e-11 0)
(3 -2.25028e-13 0)
(3 8.65709e-13 0)
(3 -3.92587e-15 0)
(3 -7.28904e-16 0)
(3 4.38603e-16 0)
(3 7.26785e-16 0)
(3 2.9188e-16 0)
(3 4.11405e-15 0)
(1.16849 -0.763092 0)
(1.83023 -1.14514 0)
(1.83745 -1.1524 0)
(1.74565 -1.19168 0)
(1.71703 -1.20578 0)
(1.66573 -1.24716 0)
(1.65745 -1.21913 0)
(1.7227 -1.16661 0)
(1.74934 -1.23321 0)
(1.77814 -1.15035 0)
(2.26798 -0.751864 0)
(2.85597 -0.214757 0)
(3.09491 0.0261696 0)
(3.02024 0.0121897 0)
(3.00462 0.00543316 0)
(3.00189 0.00303424 0)
(3.00007 0.000606435 0)
(2.99998 2.4119e-05 0)
(2.99999 -1.43742e-05 0)
(3 -5.95016e-06 0)
(1.01272 -0.0288003 0)
(1.92105 -0.767312 0)
(2.1129 -0.804618 0)
(2.00178 -0.951904 0)
(1.95628 -0.988909 0)
(1.88329 -1.07599 0)
(1.79433 -1.13603 0)
(1.75574 -1.14829 0)
(1.75225 -1.16487 0)
(1.72903 -1.2076 0)
(1.71581 -1.19902 0)
(1.87617 -1.06868 0)
(2.11011 -0.881543 0)
(2.50922 -0.57179 0)
(2.9883 -0.132433 0)
(3.07262 0.0294424 0)
(3.00796 0.00757864 0)
(3.00289 0.00379654 0)
(3.00122 0.00218282 0)
(3.00008 0.000476135 0)
(1.12541 0.0770053 0)
(1.91661 0.0251507 0)
(2.25408 -0.377414 0)
(2.24745 -0.535717 0)
(2.20369 -0.643028 0)
(2.14517 -0.769719 0)
(2.03857 -0.903447 0)
(1.96892 -0.956023 0)
(1.9087 -1.02764 0)
(1.85435 -1.12135 0)
(1.79167 -1.15557 0)
(1.79374 -1.14957 0)
(1.81305 -1.12951 0)
(1.85087 -1.0876 0)
(2.03799 -0.953505 0)
(2.25829 -0.830515 0)
(2.66868 -0.50082 0)
(3.03853 -0.0880857 0)
(3.05551 0.0249626 0)
(3.00414 0.00477156 0)
(0.968809 0.498965 0)
(1.72822 0.611205 0)
(2.08507 0.938782 0)
(2.32072 0.0357504 0)
(2.36738 -0.255193 0)
(2.34932 -0.383399 0)
(2.30122 -0.525562 0)
(2.19272 -0.703536 0)
(2.13045 -0.78915 0)
(2.08319 -0.909042 0)
(1.97568 -1.00937 0)
(1.91568 -1.06458 0)
(1.88033 -1.08715 0)
(1.86723 -1.09473 0)
(1.86905 -1.05904 0)
(1.89676 -1.04854 0)
(1.96403 -1.01811 0)
(2.16742 -0.895712 0)
(2.38039 -0.786229 0)
(2.77311 -0.442614 0)
(0.908948 0.71315 0)
(1.26179 1.41914 0)
(2.18896 1.15493 0)
(2.15886 0.967869 0)
(2.33451 0.673604 0)
(2.42934 0.122574 0)
(2.43555 -0.195337 0)
(2.38067 -0.38803 0)
(2.31932 -0.504866 0)
(2.29657 -0.630961 0)
(2.20091 -0.7741 0)
(2.12623 -0.868845 0)
(2.07128 -0.92063 0)
(2.02132 -0.968658 0)
(1.98858 -0.966382 0)
(1.9607 -0.980826 0)
(1.9562 -1.0083 0)
(1.9692 -0.994596 0)
(1.99238 -0.995478 0)
(2.06637 -0.981007 0)
(0.915315 1.00507 0)
(1.36588 1.39771 0)
(2.30643 0.957606 0)
(2.23878 1.26091 0)
(2.25749 1.16451 0)
(2.38155 0.823087 0)
(2.44835 0.478981 0)
(2.46092 0.22364 0)
(2.43757 -0.011374 0)
(2.4512 -0.153967 0)
(2.40992 -0.341424 0)
(2.34945 -0.494267 0)
(2.30112 -0.602708 0)
(2.23342 -0.711669 0)
(2.17418 -0.78348 0)
(2.12659 -0.824549 0)
(2.06472 -0.893457 0)
(2.04669 -0.914311 0)
(2.03407 -0.93611 0)
(2.06014 -0.953464 0)
(1.13175 1.13485 0)
(1.41177 1.28018 0)
(1.88004 1.10893 0)
(2.23587 1.61423 0)
(2.47586 1.22778 0)
(2.41086 1.20378 0)
(2.49785 0.856821 0)
(2.53244 0.525257 0)
(2.52871 0.389184 0)
(2.53921 0.17435 0)
(2.55707 -0.0200746 0)
(2.49881 -0.25315 0)
(2.46739 -0.404634 0)
(2.38934 -0.562665 0)
(2.33106 -0.651298 0)
(2.28641 -0.677746 0)
(2.23311 -0.717788 0)
(2.2311 -0.691486 0)
(2.18979 -0.734942 0)
(2.14287 -0.774131 0)
(1.30112 1.20637 0)
(1.49116 1.25963 0)
(1.78263 1.23165 0)
(1.79074 1.72925 0)
(2.39844 1.41219 0)
(2.57351 1.44556 0)
(2.74964 1.00147 0)
(2.77201 0.524847 0)
(2.73353 0.445903 0)
(2.67413 0.188293 0)
(2.66935 0.0531653 0)
(2.61352 -0.134295 0)
(2.58449 -0.229174 0)
(2.53456 -0.333287 0)
(2.49322 -0.377531 0)
(2.46054 -0.375741 0)
(2.43378 -0.37605 0)
(2.39695 -0.425571 0)
(2.31449 -0.559471 0)
(2.30347 -0.553702 0)
(1.45155 1.29903 0)
(1.60366 1.31929 0)
(1.77929 1.36009 0)
(1.72833 1.67597 0)
(1.88336 1.65569 0)
(2.19169 1.61191 0)
(2.41775 1.33421 0)
(2.58932 0.965794 0)
(2.69028 0.688488 0)
(2.67828 0.640055 0)
(2.67537 0.471107 0)
(2.66362 0.328062 0)
(2.63732 0.21258 0)
(2.63314 0.134049 0)
(2.59149 0.0122431 0)
(2.58754 -0.0387661 0)
(2.55294 -0.166452 0)
(2.50014 -0.310497 0)
(2.4305 -0.41205 0)
(2.44789 -0.355788 0)
(1.54342 1.44747 0)
(1.5916 1.5019 0)
(1.59809 1.5752 0)
(1.6667 1.68671 0)
(1.81639 1.71677 0)
(2.02304 1.65755 0)
(2.23344 1.53394 0)
(2.38721 1.40078 0)
(2.449 1.21832 0)
(2.47 1.14578 0)
(2.52956 0.93956 0)
(2.58197 0.768969 0)
(2.60665 0.565302 0)
(2.68172 0.444714 0)
(2.65519 0.19804 0)
(2.67293 0.0653767 0)
(2.63293 -0.14061 0)
(2.59108 -0.177393 0)
(2.53437 -0.198663 0)
(2.5772 -0.0686771 0)
(1.60172 1.64015 0)
(1.54871 1.77373 0)
(1.50164 1.86413 0)
(1.63691 1.836 0)
(1.8197 1.78235 0)
(1.94014 1.77629 0)
(2.06336 1.7243 0)
(2.21117 1.53853 0)
(2.29347 1.4049 0)
(2.39918 1.30182 0)
(2.52788 1.07441 0)
(2.63156 0.873945 0)
(2.67923 0.613468 0)
(2.75185 0.463577 0)
(2.73098 0.228467 0)
(2.7214 0.169237 0)
(2.70421 0.0794533 0)
(2.67402 0.159132 0)
(2.65221 0.181143 0)
(2.61268 0.053075 0)
(1.70988 1.77526 0)
(1.61811 1.98787 0)
(1.57647 2.11254 0)
(1.70822 2.09788 0)
(1.84985 1.93542 0)
(1.95548 1.84769 0)
(2.08744 1.77527 0)
(2.23784 1.58481 0)
(2.39895 1.48997 0)
(2.54396 1.25315 0)
(2.6529 1.03514 0)
(2.732 0.826912 0)
(2.75149 0.730621 0)
(2.7717 0.649912 0)
(2.77759 0.584428 0)
(2.75069 0.550447 0)
(2.72037 0.483156 0)
(2.72344 0.521726 0)
(2.70512 0.408954 0)
(2.66622 0.185414 0)
(1.82051 1.83243 0)
(1.79216 2.00314 0)
(1.70569 2.23324 0)
(1.81834 2.18045 0)
(1.93386 2.0284 0)
(2.10411 1.89061 0)
(2.25782 1.80263 0)
(2.4169 1.61932 0)
(2.55388 1.57001 0)
(2.67014 1.35003 0)
(2.70382 1.39427 0)
(2.749 1.19815 0)
(2.7051 1.18257 0)
(2.69897 1.09659 0)
(2.69742 0.989937 0)
(2.69055 0.88688 0)
(2.70331 0.808324 0)
(2.76502 0.718469 0)
(2.76235 0.507957 0)
(2.75137 0.327596 0)
(1.77502 1.83279 0)
(1.96673 1.94158 0)
(1.86301 2.22976 0)
(1.94601 2.20061 0)
(2.14158 2.14986 0)
(2.21667 2.18232 0)
(2.32655 1.90348 0)
(2.34026 1.81369 0)
(2.43538 1.75737 0)
(2.53249 1.64433 0)
(2.50073 1.68413 0)
(2.55517 1.52976 0)