/*--------------------------------*- C++ -*----------------------------------*\
  =========                 |
  \\      /  F ield         | OpenFOAM: The Open Source CFD Toolbox
   \\    /   O peration     | Website:  https://openfoam.org
    \\  /    A nd           | Version:  7
     \\/     M anipulation  |
\*---------------------------------------------------------------------------*/
FoamFile
{
    version     2.0;
    format      ascii;
    class       volScalarField;
    location    "0.6";
    object      p;
}
// * * * * * * * * * * * * * * * * * * * * * * * * * * * * * * * * * * * * * //

dimensions      [1 -1 -2 0 0 0 0];

internalField   nonuniform List<scalar> 
3700
(
0.131784
0.194042
0.213353
0.241423
0.265595
0.278121
0.283385
0.296244
0.289721
0.288192
0.295483
0.305409
0.315008
0.325563
0.333142
0.341334
0.355158
0.369627
0.388369
0.405996
0.0757289
0.0985343
0.11716
0.128479
0.127835
0.122599
0.120004
0.121405
0.117241
0.116582
0.115396
0.106776
0.104406
0.105559
0.107937
0.112037
0.119457
0.132946
0.150044
0.147927
0.0528377
0.0599318
0.0654616
0.062385
0.0552275
0.0440747
0.038749
0.0398419
0.0394851
0.0395022
0.0407213
0.0409676
0.0425343
0.0466198
0.0520862
0.0598318
0.0702843
0.0835785
0.0969551
0.106959
0.0588737
0.0627895
0.0641447
0.0577072
0.0487403
0.0436649
0.0473089
0.0543679
0.0616335
0.060567
0.0650335
0.0605874
0.0597401
0.0596557
0.06048
0.0659479
0.0761925
0.0951566
0.119142
0.154773
0.0691378
0.0623282
0.0531341
0.042337
0.0379622
0.0406984
0.0494273
0.0646231
0.0758917
0.0820309
0.0929043
0.0932812
0.0951279
0.0979637
0.0949293
0.0919313
0.0902945
0.0969806
0.122636
0.178339
0.0821973
0.0579874
0.0417256
0.0349228
0.0342852
0.0389825
0.0482012
0.0691265
0.0809306
0.092622
0.107254
0.116275
0.127173
0.137877
0.145635
0.151996
0.152652
0.147274
0.146969
0.18845
0.0863867
0.0530965
0.0349978
0.0324503
0.0332442
0.0389793
0.0470354
0.0708607
0.0818416
0.0966081
0.115361
0.13127
0.150651
0.17237
0.193636
0.216867
0.235511
0.250367
0.241137
0.254319
0.0828963
0.0446278
0.0332681
0.0316144
0.0346791
0.0459909
0.0587593
0.0863634
0.0889278
0.105524
0.126131
0.15029
0.17469
0.204265
0.24001
0.282587
0.321534
0.364706
0.385421
0.424973
0.0697948
0.0364782
0.0357132
0.0368175
0.0491734
0.0721051
0.0934712
0.122854
0.139542
0.168929
0.190748
0.216897
0.235083
0.264004
0.298763
0.347792
0.412662
0.48077
0.533227
0.64132
0.0533234
0.0315584
0.0373386
0.0426753
0.0638586
0.0999131
0.128385
0.159978
0.204458
0.243818
0.284664
0.320496
0.355615
0.398512
0.430742
0.470691
0.534939
0.620464
0.71632
0.840164
0.041947
0.0280907
0.0313242
0.0405601
0.0675651
0.1089
0.13888
0.182507
0.243762
0.290457
0.359407
0.42338
0.497711
0.571911
0.641791
0.709434
0.783641
0.855784
1.01346
0.987862
0.0311726
0.022587
0.0226946
0.0349871
0.0633801
0.101801
0.132198
0.182199
0.271974
0.359112
0.460215
0.558736
0.66504
0.7758
0.899593
1.02328
1.14668
1.24818
1.42975
1.37064
0.0233102
0.0172423
0.0170435
0.0325256
0.0624038
0.0960466
0.13869
0.253645
0.402339
0.576767
0.712924
0.829622
0.937418
1.06902
1.22834
1.42048
1.61961
1.80037
2.00038
2.12249
0.018384
0.0137011
0.0142167
0.0316044
0.102367
0.181774
0.329904
0.529931
0.752569
0.945919
1.11284
1.26094
1.40812
1.58459
1.78779
2.04122
2.30357
2.55507
2.78371
3.02732
0.0146019
0.0115016
0.0148085
0.0556154
0.22527
0.41129
0.629966
0.876577
1.17674
1.41886
1.63484
1.84344
2.07604
2.34722
2.64034
2.96791
3.21548
3.41911
3.43731
3.41698
0.0119873
0.00994747
0.0501829
0.174693
0.408322
0.709091
1.05004
1.42712
1.83019
2.18016
2.46799
2.7259
3.00184
3.33327
3.61357
3.81911
3.80393
3.71958
3.47188
2.92646
0.00824739
0.023932
0.162902
0.427787
0.835221
1.37578
1.9123
2.49685
3.08604
3.42283
3.66662
3.87102
4.04863
4.18413
4.15066
4.0087
3.59397
2.76615
1.85679
1.19382
0.0233419
0.149718
0.503359
1.1606
2.08997
2.87974
3.52316
4.12987
4.63418
4.69168
4.63275
4.5843
4.47594
4.18835
3.49026
2.46591
1.52681
1.06563
0.995836
0.997992
0.308044
0.877559
1.97944
3.16383
4.1678
4.81922
5.34969
5.74247
5.57685
5.14089
4.72365
4.14048
3.1446
2.02837
1.23974
0.999764
0.996178
0.998333
0.99955
0.999975
2.30952
3.60935
4.84246
5.65055
6.21197
6.42748
6.44743
6.09451
4.42787
3.16008
2.2961
1.47576
1.04893
0.990549
0.995749
0.998267
0.999738
1
1
1
6.93091
6.8597
6.80252
6.86899
7.00079
6.77092
5.91489
2.22786
0.66708
1
0.999999
1
1
1
1
1
1
1
1
1
6.94552
6.87348
6.75065
6.66099
6.83834
5.87006
2.60338
1.01744
1
1
1
1
1
1
1
1
1
1
1
1
6.79811
6.8562
6.82077
6.59014
6.26295
3.35481
1.04726
0.999125
1
1
1
1
1
1
1
1
1
1
1
1
6.67077
6.8518
6.84293
6.59756
4.73145
1.44257
0.993393
1.00012
0.999999
1
1
1
1
1
1
1
1
1
1
1
6.52171
6.80573
6.81219
6.15883
2.70954
0.975167
1.00036
0.999994
1
1
1
1
1
1
1
1
1
1
1
1
6.42882
6.74642
6.74286
4.92134
1.48192
1
1
1
1
1
1
1
1
1
1
1
1
1
1
1
6.38699
6.68586
6.69497
3.56427
0.972876
1
1
1
1
1
1
1
1
1
1
1
1
1
1
1
6.50028
6.63327
6.00508
2.063
1
1
1
1
1
1
1
1
1
1
1
1
1
1
1
1
6.9487
6.7009
4.92789
1.16978
1
1
1
1
1
1
1
1
1
1
1
1
1
1
1
1
7.20551
6.34869
3.51601
0.987676
1
1
1
1
1
1
1
1
1
1
1
1
1
1
1
1
7.39007
6.02613
2.33568
1
1
1
1
1
1
1
1
1
1
1
1
1
1
1
1
1
7.46163
5.40526
1.65377
1
1
1
1
1
1
1
1
1
1
1
1
1
1
1
1
1
7.52275
4.79984
1.18068
1
1
1
1
1
1
1
1
1
1
1
1
1
1
1
1
1
7.43026
3.99462
1.01299
1
1
1
1
1
1
1
1
1
1
1
1
1
1
1
1
1
7.23079
3.17102
1
1
1
1
1
1
1
1
1
1
1
1
1
1
1
1
1
1
6.91945
2.51212
1
1
1
1
1
1
1
1
1
1
1
1
1
1
1
1
1
1
6.7109
1.86163
1
1
1
1
1
1
1
1
1
1
1
1
1
1
1
1
1
1
6.27828
1.35476
1
1
1
1
1
1
1
1
1
1
1
1
1
1
1
1
1
1
5.72953
1.00585
1
1
1
1
1
1
1
1
1
1
1
1
1
1
1
1
1
1
4.63424
1.00008
1
1
1
1
1
1
1
1
1
1
1
1
1
1
1
1
1
1
4.63424
1.00008
1
1
1
1
1
1
1
1
1
1
1
1
1
1
1
1
1
1
5.72953
1.00585
1
1
1
1
1
1
1
1
1
1
1
1
1
1
1
1
1
1
6.27828
1.35476
1
1
1
1
1
1
1
1
1
1
1
1
1
1
1
1
1
1
6.7109
1.86163
1
1
1
1
1
1
1
1
1
1
1
1
1
1
1
1
1
1
6.91945
2.51212
1
1
1
1
1
1
1
1
1
1
1
1
1
1
1
1
1
1
7.23079
3.17102
1
1
1
1
1
1
1
1
1
1
1
1
1
1
1
1
1
1
7.43026
3.99462
1.01299
1
1
1
1
1
1
1
1
1
1
1
1
1
1
1
1
1
7.52275
4.79984
1.18068
1
1
1
1
1
1
1
1
1
1
1
1
1
1
1
1
1
7.46163
5.40526
1.65377
1
1
1
1
1
1
1
1
1
1
1
1
1
1
1
1
1
7.39007
6.02613
2.33568
1
1
1
1
1
1
1
1
1
1
1
1
1
1
1
1
1
7.20551
6.34869
3.51601
0.987676
1
1
1
1
1
1
1
1
1
1
1
1
1
1
1
1
6.9487
6.7009
4.92789
1.16978
1
1
1
1
1
1
1
1
1
1
1
1
1
1
1
1
6.50028
6.63327
6.00508
2.063
1
1
1
1
1
1
1
1
1
1
1
1
1
1
1
1
6.38699
6.68586
6.69497
3.56427
0.972876
1
1
1
1
1
1
1
1
1
1
1
1
1
1
1
6.42882
6.74642
6.74286
4.92134
1.48192
1
1
1
1
1
1
1
1
1
1
1
1
1
1
1
6.52171
6.80573
6.81219
6.15883
2.70954
0.975167
1.00036
0.999994
1
1
1
1
1
1
1
1
1
1
1
1
6.67077
6.8518
6.84293
6.59756
4.73145
1.44257
0.993393
1.00012
0.999999
1
1
1
1
1
1
1
1
1
1
1
6.79811
6.8562
6.82077
6.59014
6.26295
3.35481
1.04726
0.999125
1
1
1
1
1
1
1
1
1
1
1
1
6.94552
6.87348
6.75065
6.66099
6.83834
5.87006
2.60338
1.01744
1
1
1
1
1
1
1
1
1
1
1
1
6.93091
6.8597
6.80252
6.86899
7.00079
6.77092
5.91489
2.22786
0.66708
1
0.999999
1
1
1
1
1
1
1
1
1
2.30952
3.60935
4.84246
5.65055
6.21196
6.42749
6.44743
6.09451
4.42787
3.16008
2.2961
1.47576
1.04893
0.990548
0.995749
0.998267
0.999738
1
1
1
0.308044
0.877561
1.97943
3.16383
4.1678
4.81921
5.3497
5.74247
5.57684
5.14088
4.72365
4.14048
3.14461
2.02837
1.23974
0.999764
0.996178
0.998333
0.99955
0.999975
0.0233422
0.149718
0.503362
1.16059
2.09
2.87973
3.52315
4.1299
4.6341
4.69169
4.63277
4.5843
4.47593
4.18835
3.49027
2.46591
1.52681
1.06563
0.995836
0.997992
0.00824745
0.0239326
0.162902
0.427786
0.835205
1.37582
1.91225
2.4969
3.08596
3.4229
3.66662
3.87103
4.04859
4.18412
4.15066
4.00871
3.59397
2.76615
1.85678
1.19382
0.0119874
0.00994765
0.0501814
0.174698
0.408306
0.709111
1.05003
1.4271
1.83024
2.1801
2.46805
2.72585
3.00185
3.3332
3.6136
3.81913
3.80394
3.71958
3.47188
2.92647
0.014602
0.0115017
0.0148083
0.0556178
0.225269
0.411273
0.629998
0.876506
1.17682
1.41887
1.63486
1.84345
2.07603
2.34725
2.64028
2.96791
3.21554
3.41906
3.43729
3.41697
0.018384
0.0137011
0.0142166
0.0316042
0.102372
0.181755
0.329939
0.529935
0.752506
0.94603
1.11277
1.261
1.40808
1.58466
1.78785
2.04118
2.30358
2.55513
2.78372
3.02728
0.02331
0.0172422
0.0170433
0.0325253
0.0624085
0.0960428
0.13868
0.253706
0.402226
0.576806
0.712949
0.829592
0.937442
1.06898
1.2284
1.42052
1.61952
1.80036
2.00046
2.12257
0.0311724
0.0225869
0.0226945
0.0349872
0.0633835
0.101798
0.132171
0.182223
0.272008
0.359023
0.460273
0.558682
0.665052
0.775738
0.899566
1.02332
1.14671
1.24815
1.42966
1.37062
0.0419468
0.0280906
0.0313243
0.0405605
0.067567
0.108898
0.138864
0.182512
0.243807
0.290407
0.359404
0.423394
0.497708
0.571926
0.641766
0.709406
0.783686
0.855787
1.01343
0.987788
0.0533234
0.0315583
0.0373388
0.0426757
0.0638599
0.0999127
0.128382
0.159974
0.204486
0.243826
0.284637
0.320522
0.3556
0.39855
0.430751
0.470691
0.534962
0.620467
0.71633
0.84014
0.0697949
0.0364782
0.0357135
0.0368178
0.0491737
0.0721059
0.093471
0.122845
0.139549
0.168973
0.190742
0.216881
0.235079
0.263995
0.298771
0.347808
0.412672
0.480787
0.533235
0.641342
0.0828965
0.044628
0.0332684
0.0316147
0.0346793
0.0459913
0.0587585
0.0863572
0.088924
0.10553
0.126146
0.150289
0.174705
0.204261
0.240009
0.282585
0.321526
0.364723
0.385435
0.42496
0.086387
0.0530967
0.0349981
0.0324506
0.0332446
0.0389797
0.0470349
0.0708546
0.0818345
0.0966056
0.115372
0.131273
0.150663
0.172378
0.193635
0.216866
0.235501
0.250364
0.241147
0.254344
0.0821976
0.0579876
0.0417258
0.0349231
0.0342858
0.0389828
0.0482011
0.0691245
0.0809241
0.0926185
0.107259
0.116278
0.127178
0.137877
0.145641
0.152017
0.152643
0.147261
0.14696
0.188429
0.0691379
0.0623282
0.0531343
0.0423375
0.0379628
0.0406988
0.0494282
0.064623
0.0758881
0.0820274
0.0929076
0.0932808
0.0951264
0.0979586
0.0949398
0.0919428
0.0902962
0.0969831
0.122638
0.17831
0.0588736
0.0627894
0.0641446
0.0577073
0.0487406
0.0436651
0.0473101
0.0543683
0.0616347
0.0605655
0.0650358
0.0605879
0.059733
0.059649
0.0604799
0.0659527
0.0761935
0.0951588
0.119142
0.154766
0.0528375
0.0599316
0.0654616
0.0623849
0.0552275
0.0440744
0.0387493
0.039842
0.0394863
0.0395034
0.0407196
0.040969
0.0425325
0.0466175
0.052087
0.0598314
0.070281
0.0835769
0.0969532
0.106956
0.0757303
0.0985383
0.117165
0.12848
0.127836
0.122602
0.120013
0.121401
0.117255
0.116645
0.115388
0.106732
0.10439
0.105578
0.107936
0.111994
0.119504
0.133185
0.150423
0.148107
0.131787
0.194043
0.21335
0.241417
0.265589
0.278112
0.283386
0.296237
0.289719
0.288221
0.295479
0.305388
0.314989
0.325599
0.333168
0.3413
0.35528
0.369868
0.388566
0.405996
0.492065
0.625531
0.748826
0.793588
0.767081
0.744383
0.747054
0.804159
0.908197
0.97981
0.998527
0.999972
1
1
1
1
1
1
1
1
0.228459
0.405903
0.601665
0.729385
0.737024
0.724215
0.735271
0.801048
0.902714
0.977726
0.998331
0.999968
1
1
1
1
1
1
1
1
0.108383
0.137454
0.2451
0.451827
0.611255
0.673351
0.71717
0.797418
0.907942
0.979884
0.998566
0.999974
1
1
1
1
1
1
1
1
0.159685
0.166261
0.195595
0.279189
0.431399
0.573422
0.689086
0.803417
0.91325
0.981556
0.998748
0.999979
1
1
1
1
1
1
1
1
0.202482
0.210964
0.230124
0.290589
0.416269
0.5591
0.686599
0.808576
0.919966
0.984059
0.998999
0.999984
1
1
1
1
1
1
1
1
0.255614
0.256621
0.268729
0.323641
0.427811
0.558487
0.6897
0.817583
0.928286
0.986921
0.999265
0.999989
1
1
1
1
1
1
1
1
0.302129
0.316663
0.315572
0.342597
0.443383
0.578896
0.710339
0.835919
0.939607
0.990099
0.999516
0.999994
1
1
1
1
1
1
1
1
0.38778
0.386251
0.38936
0.414549
0.494721
0.618725
0.745305
0.862225
0.953017
0.993167
0.999714
0.999997
1
1
1
1
1
1
1
1
0.525513
0.445752
0.439384
0.461024
0.538816
0.662514
0.787423
0.893921
0.967491
0.995879
0.999851
0.999999
1
1
1
1
1
1
1
1
0.695414
0.534386
0.497106
0.51156
0.575254
0.69241
0.816775
0.918376
0.978801
0.997746
0.999928
0.999999
1
1
1
1
1
1
1
1
1.18385
0.792642
0.710609
0.725623
0.790281
0.875431
0.935993
0.973869
0.993403
0.999188
0.999955
0.999999
1
1
1
1
1
1
1
1
1.80154
1.40834
1.20525
1.13576
1.09899
1.06137
1.01878
1.00019
0.999347
0.999698
0.999946
0.999997
1
1
1
1
1
1
1
1
1.78166
1.58078
1.41178
1.27996
1.16575
1.06938
1.01488
1.00098
0.999961
0.999955
0.999981
0.999998
1
1
1
1
1
1
1
1
1.50377
1.46867
1.36612
1.23679
1.11714
1.0348
1.00424
1.00018
1
0.999998
0.999999
1
1
1
1
1
1
1
1
1
1.10747
1.13385
1.11636
1.07121
1.0258
1.00425
1.00024
1
1
1
1
1
1
1
1
1
1
1
1
1
1.00544
1.00708
1.0064
1.00367
1.00098
1.00009
1
1
1
1
1
1
1
1
1
1
1
1
1
1
1.00009
1.00009
1.00007
1.00003
1.00001
1
1
1
1
1
1
1
1
1
1
1
1
1
1
1
1
1
1
1
1
1
1
1
1
1
1
1
1
1
1
1
1
1
1
1
1
1
1
1
1
1
1
1
1
1
1
1
1
1
1
1
1
1
1
1
1
1
1
1
1
1
1
1
1
1
1
1
1
1
1
1
1
1
1
1
1
1
1
1
1
1
1
1
1
1
1
1
1
1
1
1
1
1
1
1
1
1
1
1
1
1
1
1
1
1
1
1
1
1
1
1
1
1
1
1
1
1
1
1
1
1
1
1
1
1
1
1
1
1
1
1
1
1
1
1
1
1
1
1
1
1
1
1
1
1
1
1
1
1
1
1
1
1
1
1
1
1
1
1
1
1
1
1
1
1
1
1
1
1
1
1
1
1
1
1
1.57381
2.05011
1.90251
1.39236
1.06551
1.00373
1.00008
1
1
1
1
1
1
1
1
2.24711
2.23135
1.7308
1.12702
1.00411
1.00002
1
1
1
1
1
1
1
1
1
2.65151
2.28408
1.36777
1.02509
1.00037
1
1
1
1
1
1
1
1
1
1
2.84568
1.72246
1.0708
1.00113
1
1
1
1
1
1
1
1
1
1
1
2.34297
1.17644
1.00406
1.00001
1
1
1
1
1
1
1
1
1
1
1
1.40219
1.01211
1.00002
1
1
1
1
1
1
1
1
1
1
1
1
1.00897
0.99996
0.999989
0.999999
1
1
1
1
1
1
1
1
1
1
1
0.999524
0.999987
1
1
1
1
1
1
1
1
1
1
1
1
1
0.999999
1
1
1
1
1
1
1
1
1
1
1
1
1
1
1
1
1
1
1
1
1
1
1
1
1
1
1
1
1
1
1
1
1
1
1
1
1
1
1
1
1
1
1
1
1
1
1
1
1
1
1
1
1
1
1
1
1
1
1
1
1
1
1
1
1
1
1
1
1
1
1
1
1
1
1
1
1
1
1
1
1
1
1
1
1
1
1
1
1
1
1
1
1
1
1
1
1
1
1
1
1
1
1
1
1
1
1
1
1
1
1
1
1
1
1
1
1
1
1
1
1
1
1
1
1
1
1
1
1
1
1
1
1
1
1
1
1
1
1
1
1
1
1
1
1
1
1
1
1
1
1
1
1
1
1
1
1
1
1
1
1
1
1
1
1
1
1
1
1
1
1
1
1
1
1
1
1
1
1
1
1
1
1
1
1
1
1
1
1
1
1
1
1
1
1
1
1
1
1
1
1
1
1
1
1
1
1
1
1
1
1
1
1
1
1
1
1
1
1
1
1
1
1
1
1
1
1
1
1
1
1
1
1
1
1
1
1
1
1
1
1
1
1
1
1
1
1
1
1
1
1
1
1
1
1
1
1
1
1
1
1
1
1
1
1
1
1
1
1
1
1
1
1
1
1
1
1
1
1
1
1
1
1
1
1
1
1
1
1
1
1
1
1
1
1
1
1
1
1
1
1
1
1
1
1
1
1
1
1
1
1
1
1
1
1
1
1
1
1
1
1
1
1
1
1
1
1
1
1
1
1
1
1
1
1
1
1
1
1
1
1
1
1
1
1
1
1
1
1
1
1
1
1
1
1
1
1
1
1
1
1
1
1
1
1
1
1
1
1
1
1
1
1
1
1
1
1
1
1
1
1
1
1
1
1
1
1
1
1
1
1
1
1
1
1
1
1
1
1
1
1
1
1
1
1
1
1
1
1
1
1
1
1
1
1
1
1
1
1
1
1
1
1
1
1
1
1
1
1
1
1
1
1
1
1
1
1
1
1
1
1
1
1
1
1
1
1
1
1
1
1
1
1
1
1
1
1
1
1
1
1
1
1
1
1
1
1
1
1
1
1
1
1
1
1
1
1
1
1
1
1
1
1
1
1
1
1
1
1
1
1
1
1
1
1
1
1
1
1
1
1
1
1
1
1
1
1
1
1
1
1
1
1
1
1
1
1
1
1
1
1
1
1
1
1
1
1
1
1
1
1
1
1
1
1
1
1
1
1
1
1
1
1
1
1
1
1
1
1
1
1
1
1
1
1
1
1
1
1
1
1
1
1
1
1
1
1
1
1
1
1
1
1
1
1
1
1
1
1
1
1
1
1
1
1
1
1
1
1
1
1
1
1
1
1
1
1
1
1
1
1
1
1
1
1
1
1
1
1
1
1
1
1
1
1
1
1
1
1
1
1
1
1
1
1
1
1
1
1
1
1
1
1
1
1
1
1
1
1
1
1
1
1
1
1
1
1
1
1
1
1
1
1
1
1
1
1
1
1
1
1
1
1
1
1
1
1
1
1
1
1
1
1
1
1
1
1
1
1
1
1
1
1
1
1
1
1
1
1
1
1
1
1
1
1
1
1
1
1
1
1
1
1
1
1
1
1
1
1
1
1
1
1
1
1
1
1
1
1
1
1
1
1
1
1
1
1
1
1
1
1
1
1
1
1
1
1
1
1
1
1
1
1
1
1
1
1
1
1
1
1
1
1
1
1
1
1
1
1
1
1
1
1
1
1
1
1
1
1
1
1
1
1
1
1
1
1
1
1
1
1
1
1
1
1
1
1
1
1
1
1
1
1
1
1
1
1
1
1
1
1
1
1
1
1
1
1
1
1
1
1
1
1
1
1
1
1
1
1
1
1
1
1
1
1
1
1
1
1
1
1
1
1
1
1
1
1
1
1
1
1
1
1
1
0.999999
1
1
1
1
1
1
1
1
1
1
1
1
1
1
0.999524
0.999987
1
1
1
1
1
1
1
1
1
1
1
1
1
1.00897
0.99996
0.999989
0.999999
1
1
1
1
1
1
1
1
1
1
1
1.40219
1.01211
1.00002
1
1
1
1
1
1
1
1
1
1
1
1
2.34298
1.17644
1.00406
1.00001
1
1
1
1
1
1
1
1
1
1
1
2.84566
1.72246
1.07081
1.00113
1
1
1
1
1
1
1
1
1
1
1
2.65151
2.28408
1.36777
1.02509
1.00037
1
1
1
1
1
1
1
1
1
1
2.24714
2.23135
1.7308
1.12702
1.00411
1.00002
1
1
1
1
1
1
1
1
1
1.57378
2.05012
1.90252
1.39236
1.06551
1.00373
1.00008
1
1
1
1
1
1
1
1
1.18398
1.80156
1.78167
1.50377
1.10746
1.00544
1.00009
1
1
1
1
1
1
1
1
0.792508
1.40833
1.58078
1.46866
1.13385
1.00708
1.00009
1
1
1
1
1
1
1
1
0.7104
1.20515
1.41177
1.36612
1.11636
1.0064
1.00007
1
1
1
1
1
1
1
1
0.725082
1.13558
1.27995
1.23679
1.07121
1.00367
1.00003
1
1
1
1
1
1
1
1
0.789888
1.09887
1.16574
1.11714
1.0258
1.00098
1.00001
1
1
1
1
1
1
1
1
0.87533
1.06134
1.06937
1.0348
1.00425
1.00009
1
1
1
1
1
1
1
1
1
0.936
1.01878
1.01488
1.00424
1.00024
1
1
1
1
1
1
1
1
1
1
0.9739
1.00019
1.00098
1.00018
1
1
1
1
1
1
1
1
1
1
1
0.993419
0.999347
0.999961
1
1
1
1
1
1
1
1
1
1
1
1
0.99919
0.999697
0.999955
0.999998
1
1
1
1
1
1
1
1
1
1
1
0.999955
0.999946
0.999981
0.999999
1
1
1
1
1
1
1
1
1
1
1
0.999999
0.999997
0.999998
1
1
1
1
1
1
1
1
1
1
1
1
1
1
1
1
1
1
1
1
1
1
1
1
1
1
1
1
1
1
1
1
1
1
1
1
1
1
1
1
1
1
1
1
1
1
1
1
1
1
1
1
1
1
1
1
1
1
1
1
1
1
1
1
1
1
1
1
1
1
1
1
1
1
1
1
1
1
1
1
1
1
1
1
1
1
1
1
1
1
1
1
1
1
1
1
1
1
1
1
1
1
1
1
1
1
1
1
1
1
1
1
1
1
1
1
1
1
1
1
1
1
1
1
1
1
1
1
1
1
1
1
0.695088
0.534443
0.498452
0.514262
0.577561
0.693249
0.817006
0.91851
0.978871
0.997759
0.999928
0.999999
1
1
1
1
1
1
1
1
0.525379
0.446157
0.439383
0.460329
0.537582
0.661969
0.787393
0.893978
0.96753
0.99589
0.999852
0.999999
1
1
1
1
1
1
1
1
0.387844
0.386091
0.389078
0.414353
0.495395
0.619498
0.745539
0.862122
0.952917
0.993149
0.999713
0.999997
1
1
1
1
1
1
1
1
0.302072
0.316591
0.316004
0.343213
0.442296
0.576926
0.708846
0.835054
0.93922
0.990015
0.999511
0.999994
1
1
1
1
1
1
1
1
0.255672
0.256967
0.268923
0.323178
0.427747
0.559067
0.689915
0.81735
0.927938
0.986794
0.999253
0.999989
1
1
1
1
1
1
1
1
0.202517
0.210892
0.229713
0.290389
0.416724
0.560094
0.687008
0.807745
0.919432
0.983897
0.998982
0.999984
1
1
1
1
1
1
1
1
0.159662
0.166118
0.195533
0.27913
0.431515
0.572735
0.685613
0.801821
0.913132
0.98148
0.998731
0.999978
1
1
1
1
1
1
1
1
0.108364
0.137562
0.245388
0.451763
0.611261
0.674036
0.721848
0.802678
0.908559
0.979718
0.998536
0.999973
1
1
1
1
1
1
1
1
0.228381
0.406184
0.601975
0.72967
0.737099
0.724305
0.735537
0.799184
0.902451
0.977631
0.998305
0.999967
1
1
1
1
1
1
1
1
0.492036
0.625623
0.748903
0.793775
0.767181
0.744252
0.746455
0.804147
0.908266
0.979828
0.998513
0.999971
1
1
1
1
1
1
1
1
)
;

boundaryField
{
    inlet
    {
        type            fixedValue;
        value           uniform 1;
    }
    outlet
    {
        type            zeroGradient;
    }
    airfoil
    {
        type            zeroGradient;
    }
    top
    {
        type            symmetryPlane;
    }
    bottom
    {
        type            symmetryPlane;
    }
    defaultFaces
    {
        type            empty;
    }
}


// ************************************************************************* //
