/*--------------------------------*- C++ -*----------------------------------*\
  =========                 |
  \\      /  F ield         | OpenFOAM: The Open Source CFD Toolbox
   \\    /   O peration     | Website:  https://openfoam.org
    \\  /    A nd           | Version:  7
     \\/     M anipulation  |
\*---------------------------------------------------------------------------*/
FoamFile
{
    version     2.0;
    format      ascii;
    class       volScalarField;
    location    "0.6";
    object      rho;
}
// * * * * * * * * * * * * * * * * * * * * * * * * * * * * * * * * * * * * * //

dimensions      [1 -3 0 0 0 0 0];

internalField   nonuniform List<scalar> 
3700
(
0.18379
0.270337
0.297178
0.336136
0.369568
0.386839
0.394102
0.411968
0.402952
0.400877
0.411015
0.424745
0.438006
0.45264
0.46318
0.474548
0.493696
0.513723
0.539664
0.563958
0.105749
0.137476
0.163324
0.179004
0.178062
0.17063
0.166875
0.168806
0.163037
0.162146
0.160527
0.14859
0.145373
0.147078
0.150487
0.15629
0.16669
0.185528
0.209374
0.206462
0.0739277
0.0838288
0.0915489
0.0872777
0.0773222
0.0617704
0.0543453
0.0558836
0.0553885
0.0554099
0.0571117
0.0574525
0.0596426
0.0653601
0.0730096
0.0838392
0.0984556
0.117044
0.135758
0.149769
0.082371
0.087831
0.0897242
0.0807497
0.0682516
0.0611783
0.0662881
0.0761859
0.0863674
0.0848901
0.0911452
0.0849362
0.0837577
0.0836407
0.0847899
0.0924273
0.106747
0.133246
0.166777
0.216557
0.0966997
0.0871844
0.074342
0.0592782
0.0531793
0.0570161
0.0692208
0.090466
0.106251
0.114851
0.130062
0.130605
0.133204
0.137185
0.132968
0.128791
0.126507
0.135838
0.171679
0.249473
0.114881
0.081109
0.0584237
0.0489371
0.0480508
0.0546217
0.0675007
0.0967276
0.113263
0.129616
0.15007
0.162693
0.177927
0.192903
0.203766
0.212687
0.213639
0.206149
0.205738
0.263645
0.120701
0.0742923
0.049056
0.0455032
0.0466132
0.054632
0.0658797
0.0991494
0.114528
0.135168
0.161377
0.183617
0.210688
0.24103
0.270731
0.30319
0.329263
0.350038
0.337188
0.355613
0.115836
0.0625009
0.0466566
0.0443463
0.0486334
0.0644663
0.082306
0.120847
0.124443
0.147617
0.176416
0.210178
0.244259
0.285552
0.335432
0.394835
0.449191
0.509462
0.538384
0.593481
0.0976157
0.0511311
0.0500889
0.0516438
0.0689291
0.100997
0.130824
0.171834
0.195127
0.236133
0.266587
0.303119
0.328525
0.36891
0.417412
0.485787
0.576218
0.671168
0.744313
0.894788
0.0746703
0.0442584
0.0523625
0.0598289
0.0894227
0.139785
0.179542
0.223626
0.285663
0.34057
0.397519
0.447533
0.496506
0.556335
0.601294
0.657027
0.746598
0.865744
0.999274
1.17154
0.058793
0.039413
0.0439414
0.0568607
0.0945638
0.152268
0.194154
0.255004
0.340414
0.405534
0.50162
0.590815
0.694374
0.797763
0.895102
0.989323
1.09266
1.19315
1.41272
1.37696
0.0437338
0.0317176
0.0318628
0.0490529
0.088696
0.14232
0.184803
0.254545
0.379676
0.501104
0.64195
0.779223
0.927253
1.08145
1.2537
1.42576
1.59744
1.73864
1.99113
1.90899
0.0327277
0.0242301
0.0239424
0.045595
0.0872889
0.134247
0.193736
0.353972
0.561087
0.803903
0.993471
1.156
1.30607
1.48917
1.71068
1.97765
2.25435
2.50558
2.78362
2.9533
0.0258234
0.0192629
0.0199763
0.0442485
0.142994
0.25369
0.459985
0.738404
1.04808
1.3171
1.54934
1.7554
1.96005
2.20525
2.48746
2.83922
3.2036
3.55305
3.87099
4.20984
0.0205223
0.0161736
0.0207895
0.077729
0.314233
0.573177
0.877474
1.22032
1.63749
1.97416
2.27441
2.56428
2.88722
3.26345
3.66995
4.12425
4.46831
4.75187
4.77804
4.75048
0.0168626
0.0139882
0.0702669
0.243782
0.568962
0.987232
1.4612
1.98501
2.54486
3.03097
3.43063
3.78854
4.1711
4.63036
5.01876
5.30454
5.28419
5.16899
4.8298
4.07699
0.0116187
0.0335761
0.227481
0.596038
1.16234
1.91326
2.65822
3.4693
4.28674
4.75406
5.09212
5.37533
5.62123
5.80897
5.76301
5.5681
4.99778
3.85364
2.59307
1.67036
0.0328444
0.209345
0.701392
1.61433
2.9038
3.9993
4.89145
5.73266
6.43201
6.51158
6.42988
6.3628
6.21288
5.81652
4.85295
3.43639
2.13388
1.49158
1.39419
1.3972
0.430782
1.22222
2.75101
4.3927
5.78382
6.68662
7.42148
7.9665
7.7372
7.13316
6.55541
5.74968
4.37279
2.82906
1.73414
1.39967
1.39467
1.39768
1.39938
1.39997
3.21103
5.01133
6.71831
7.83668
8.61406
8.91353
8.94152
8.45444
6.14769
4.39124
3.1972
2.06194
1.46821
1.38682
1.39407
1.39759
1.39964
1.40001
1.40001
1.40001
9.60756
9.50915
9.43023
9.52259
9.70597
9.39025
8.20979
3.10592
0.935232
1.40001
1.4
1.4
1.40001
1.40001
1.40001
1.40001
1.40001
1.40001
1.40001
1.40001
9.62777
9.52821
9.35862
9.2355
9.48278
8.14723
3.62683
1.42423
1.40001
1.40001
1.40001
1.40001
1.40001
1.40001
1.40001
1.40001
1.40001
1.40001
1.40001
1.40001
9.42404
9.50439
9.45573
9.13809
8.68854
4.66733
1.46559
1.39879
1.40001
1.40001
1.40001
1.40001
1.40001
1.40001
1.40001
1.40001
1.40001
1.40001
1.40001
1.40001
9.24801
9.49833
9.48646
9.1493
6.57212
2.01476
1.39081
1.40017
1.4
1.40001
1.40001
1.40001
1.40001
1.40001
1.40001
1.40001
1.40001
1.40001
1.40001
1.40001
9.04189
9.43466
9.44419
8.54363
3.77207
1.36535
1.40051
1.4
1.40001
1.40001
1.40001
1.40001
1.40001
1.40001
1.40001
1.40001
1.40001
1.40001
1.40001
1.40001
8.91339
9.35273
9.34852
6.83312
2.06893
1.40001
1.40001
1.40001
1.40001
1.40001
1.40001
1.40001
1.40001
1.40001
1.40001
1.40001
1.40001
1.40001
1.40001
1.40001
8.85549
9.26916
9.28284
4.95523
1.36213
1.40001
1.40001
1.40001
1.40001
1.40001
1.40001
1.40001
1.40001
1.40001
1.40001
1.40001
1.40001
1.40001
1.40001
1.40001
9.01171
9.19684
8.33092
2.87458
1.40001
1.40001
1.40001
1.40001
1.40001
1.40001
1.40001
1.40001
1.40001
1.40001
1.40001
1.40001
1.40001
1.40001
1.40001
1.40001
9.63149
9.29087
6.84291
1.63559
1.40001
1.40001
1.40001
1.40001
1.40001
1.40001
1.40001
1.40001
1.40001
1.40001
1.40001
1.40001
1.40001
1.40001
1.40001
1.40001
9.9863
8.8052
4.88892
1.3828
1.40001
1.40001
1.40001
1.40001
1.40001
1.40001
1.40001
1.40001
1.40001
1.40001
1.40001
1.40001
1.40001
1.40001
1.40001
1.40001
10.2412
8.36044
3.25328
1.40001
1.40001
1.40001
1.40001
1.40001
1.40001
1.40001
1.40001
1.40001
1.40001
1.40001
1.40001
1.40001
1.40001
1.40001
1.40001
1.40001
10.34
7.503
2.30753
1.40001
1.40001
1.40001
1.40001
1.40001
1.40001
1.40001
1.40001
1.40001
1.40001
1.40001
1.40001
1.40001
1.40001
1.40001
1.40001
1.40001
10.4244
6.66627
1.65094
1.40001
1.40001
1.40001
1.40001
1.40001
1.40001
1.40001
1.40001
1.40001
1.40001
1.40001
1.40001
1.40001
1.40001
1.40001
1.40001
1.40001
10.2971
5.55176
1.41808
1.40001
1.40001
1.40001
1.40001
1.40001
1.40001
1.40001
1.40001
1.40001
1.40001
1.40001
1.40001
1.40001
1.40001
1.40001
1.40001
1.40001
10.022
4.41038
1.40001
1.40001
1.40001
1.40001
1.40001
1.40001
1.40001
1.40001
1.40001
1.40001
1.40001
1.40001
1.40001
1.40001
1.40001
1.40001
1.40001
1.40001
9.59291
3.49702
1.40001
1.40001
1.40001
1.40001
1.40001
1.40001
1.40001
1.40001
1.40001
1.40001
1.40001
1.40001
1.40001
1.40001
1.40001
1.40001
1.40001
1.40001
9.30663
2.59527
1.40001
1.40001
1.40001
1.40001
1.40001
1.40001
1.40001
1.40001
1.40001
1.40001
1.40001
1.40001
1.40001
1.40001
1.40001
1.40001
1.40001
1.40001
8.71074
1.89234
1.40001
1.40001
1.40001
1.40001
1.40001
1.40001
1.40001
1.40001
1.40001
1.40001
1.40001
1.40001
1.40001
1.40001
1.40001
1.40001
1.40001
1.40001
7.95304
1.40813
1.40001
1.40001
1.40001
1.40001
1.40001
1.40001
1.40001
1.40001
1.40001
1.40001
1.40001
1.40001
1.40001
1.40001
1.40001
1.40001
1.40001
1.40001
6.43601
1.40012
1.40001
1.40001
1.40001
1.40001
1.40001
1.40001
1.40001
1.40001
1.40001
1.40001
1.40001
1.40001
1.40001
1.40001
1.40001
1.40001
1.40001
1.40001
6.43601
1.40012
1.40001
1.40001
1.40001
1.40001
1.40001
1.40001
1.40001
1.40001
1.40001
1.40001
1.40001
1.40001
1.40001
1.40001
1.40001
1.40001
1.40001
1.40001
7.95304
1.40813
1.40001
1.40001
1.40001
1.40001
1.40001
1.40001
1.40001
1.40001
1.40001
1.40001
1.40001
1.40001
1.40001
1.40001
1.40001
1.40001
1.40001
1.40001
8.71074
1.89234
1.40001
1.40001
1.40001
1.40001
1.40001
1.40001
1.40001
1.40001
1.40001
1.40001
1.40001
1.40001
1.40001
1.40001
1.40001
1.40001
1.40001
1.40001
9.30663
2.59527
1.40001
1.40001
1.40001
1.40001
1.40001
1.40001
1.40001
1.40001
1.40001
1.40001
1.40001
1.40001
1.40001
1.40001
1.40001
1.40001
1.40001
1.40001
9.59291
3.49702
1.40001
1.40001
1.40001
1.40001
1.40001
1.40001
1.40001
1.40001
1.40001
1.40001
1.40001
1.40001
1.40001
1.40001
1.40001
1.40001
1.40001
1.40001
10.022
4.41038
1.40001
1.40001
1.40001
1.40001
1.40001
1.40001
1.40001
1.40001
1.40001
1.40001
1.40001
1.40001
1.40001
1.40001
1.40001
1.40001
1.40001
1.40001
10.2971
5.55176
1.41808
1.40001
1.40001
1.40001
1.40001
1.40001
1.40001
1.40001
1.40001
1.40001
1.40001
1.40001
1.40001
1.40001
1.40001
1.40001
1.40001
1.40001
10.4244
6.66627
1.65094
1.40001
1.40001
1.40001
1.40001
1.40001
1.40001
1.40001
1.40001
1.40001
1.40001
1.40001
1.40001
1.40001
1.40001
1.40001
1.40001
1.40001
10.34
7.503
2.30753
1.40001
1.40001
1.40001
1.40001
1.40001
1.40001
1.40001
1.40001
1.40001
1.40001
1.40001
1.40001
1.40001
1.40001
1.40001
1.40001
1.40001
10.2412
8.36044
3.25328
1.40001
1.40001
1.40001
1.40001
1.40001
1.40001
1.40001
1.40001
1.40001
1.40001
1.40001
1.40001
1.40001
1.40001
1.40001
1.40001
1.40001
9.9863
8.8052
4.88892
1.3828
1.40001
1.40001
1.40001
1.40001
1.40001
1.40001
1.40001
1.40001
1.40001
1.40001
1.40001
1.40001
1.40001
1.40001
1.40001
1.40001
9.63149
9.29087
6.84291
1.63559
1.40001
1.40001
1.40001
1.40001
1.40001
1.40001
1.40001
1.40001
1.40001
1.40001
1.40001
1.40001
1.40001
1.40001
1.40001
1.40001
9.01171
9.19684
8.33092
2.87458
1.40001
1.40001
1.40001
1.40001
1.40001
1.40001
1.40001
1.40001
1.40001
1.40001
1.40001
1.40001
1.40001
1.40001
1.40001
1.40001
8.85549
9.26916
9.28284
4.95523
1.36213
1.40001
1.40001
1.40001
1.40001
1.40001
1.40001
1.40001
1.40001
1.40001
1.40001
1.40001
1.40001
1.40001
1.40001
1.40001
8.91339
9.35273
9.34852
6.83312
2.06893
1.40001
1.40001
1.40001
1.40001
1.40001
1.40001
1.40001
1.40001
1.40001
1.40001
1.40001
1.40001
1.40001
1.40001
1.40001
9.04189
9.43466
9.44419
8.54363
3.77207
1.36535
1.40051
1.4
1.40001
1.40001
1.40001
1.40001
1.40001
1.40001
1.40001
1.40001
1.40001
1.40001
1.40001
1.40001
9.24801
9.49833
9.48646
9.1493
6.57212
2.01476
1.39081
1.40017
1.4
1.40001
1.40001
1.40001
1.40001
1.40001
1.40001
1.40001
1.40001
1.40001
1.40001
1.40001
9.42404
9.50439
9.45573
9.13809
8.68854
4.66733
1.46559
1.39879
1.40001
1.40001
1.40001
1.40001
1.40001
1.40001
1.40001
1.40001
1.40001
1.40001
1.40001
1.40001
9.62777
9.52821
9.35862
9.2355
9.48278
8.14723
3.62683
1.42423
1.40001
1.40001
1.40001
1.40001
1.40001
1.40001
1.40001
1.40001
1.40001
1.40001
1.40001
1.40001
9.60756
9.50915
9.43023
9.52259
9.70597
9.39025
8.20979
3.10592
0.935232
1.40001
1.4
1.4
1.40001
1.40001
1.40001
1.40001
1.40001
1.40001
1.40001
1.40001
3.21103
5.01133
6.71831
7.83669
8.61404
8.91354
8.94152
8.45444
6.1477
4.39124
3.1972
2.06194
1.46821
1.38682
1.39407
1.39759
1.39964
1.40001
1.40001
1.40001
0.430783
1.22222
2.75101
4.39271
5.78383
6.68661
7.42148
7.96649
7.7372
7.13316
6.55541
5.74968
4.3728
2.82906
1.73413
1.39967
1.39467
1.39768
1.39938
1.39997
0.0328448
0.209345
0.701397
1.61432
2.90383
3.99929
4.89144
5.7327
6.4319
6.51159
6.42991
6.36281
6.21286
5.81652
4.85296
3.43639
2.13388
1.49158
1.39419
1.3972
0.0116187
0.033577
0.227481
0.596038
1.16232
1.91331
2.65816
3.46937
4.28663
4.75416
5.09212
5.37534
5.62117
5.80896
5.76301
5.56811
4.99779
3.85363
2.59306
1.67036
0.0168628
0.0139884
0.0702649
0.243789
0.568941
0.987259
1.46119
1.98498
2.54493
3.03088
3.43072
3.78847
4.17112
4.63026
5.01879
5.30457
5.28419
5.16898
4.8298
4.077
0.0205224
0.0161737
0.0207892
0.0777324
0.314231
0.573153
0.877518
1.22022
1.6376
1.97417
2.27443
2.5643
2.88721
3.26348
3.66986
4.12424
4.46839
4.7518
4.77802
4.75046
0.0258234
0.0192629
0.0199762
0.0442482
0.143002
0.253664
0.460035
0.73841
1.04799
1.31725
1.54924
1.75548
1.95999
2.20534
2.48754
2.83917
3.20361
3.55313
3.87102
4.20979
0.0327274
0.0242299
0.0239421
0.0455946
0.0872954
0.134242
0.193723
0.354057
0.56093
0.803958
0.993506
1.15595
1.3061
1.48911
1.71075
1.9777
2.25422
2.50557
2.78373
2.95341
0.0437336
0.0317174
0.0318628
0.049053
0.0887007
0.142315
0.184765
0.254579
0.379724
0.50098
0.642031
0.779149
0.92727
1.08136
1.25366
1.42582
1.59748
1.7386
1.99101
1.90897
0.0587928
0.039413
0.0439416
0.0568612
0.0945664
0.152265
0.194133
0.25501
0.340476
0.405465
0.501616
0.590835
0.694371
0.797784
0.895066
0.989283
1.09273
1.19315
1.41266
1.37686
0.0746702
0.0442584
0.0523627
0.0598294
0.0894245
0.139784
0.179537
0.22362
0.285701
0.340581
0.397481
0.447568
0.496485
0.556387
0.601307
0.657026
0.746629
0.865748
0.999288
1.1715
0.0976157
0.0511311
0.0500892
0.0516442
0.0689296
0.100998
0.130824
0.171822
0.195136
0.236195
0.266579
0.303096
0.328519
0.368897
0.417423
0.48581
0.576232
0.671191
0.744323
0.894819
0.115836
0.0625012
0.046657
0.0443467
0.0486336
0.0644669
0.0823049
0.120838
0.124438
0.147625
0.176436
0.210177
0.244279
0.285547
0.335431
0.394833
0.449181
0.509485
0.538403
0.593462
0.120701
0.0742926
0.0490564
0.0455036
0.0466138
0.0546326
0.0658791
0.099141
0.114518
0.135164
0.161392
0.183621
0.210706
0.24104
0.270729
0.303189
0.32925
0.350034
0.337202
0.355647
0.114882
0.0811092
0.0584239
0.0489375
0.0480516
0.0546221
0.0675006
0.0967247
0.113254
0.129611
0.150078
0.162697
0.177934
0.192903
0.203775
0.212717
0.213628
0.20613
0.205725
0.263616
0.0966998
0.0871845
0.0743422
0.0592789
0.0531801
0.0570166
0.0692221
0.0904658
0.106246
0.114846
0.130066
0.130605
0.133202
0.137178
0.132983
0.128807
0.12651
0.135842
0.171681
0.249433
0.0823708
0.087831
0.0897241
0.0807499
0.068252
0.0611785
0.0662899
0.0761865
0.0863691
0.0848881
0.0911485
0.084937
0.0837478
0.0836314
0.0847898
0.0924339
0.106748
0.13325
0.166777
0.216547
0.0739275
0.0838286
0.0915488
0.0872777
0.0773221
0.06177
0.0543456
0.0558837
0.0553902
0.0554116
0.0571093
0.0574545
0.0596401
0.0653569
0.0730106
0.0838387
0.098451
0.117042
0.135756
0.149766
0.105751
0.137481
0.163331
0.179006
0.178063
0.170633
0.166887
0.168801
0.163056
0.162234
0.160515
0.148528
0.145351
0.147104
0.150485
0.156233
0.166755
0.185858
0.209899
0.20671
0.183793
0.270338
0.297174
0.336128
0.36956
0.386826
0.394102
0.411959
0.40295
0.400918
0.41101
0.424716
0.437979
0.45269
0.463215
0.474503
0.493866
0.514057
0.539936
0.563958
0.683737
0.871211
1.04562
1.11012
1.07415
1.04271
1.0465
1.12638
1.27178
1.37181
1.39795
1.39997
1.4
1.40001
1.40001
1.40001
1.40001
1.40001
1.40001
1.40001
0.318097
0.565336
0.839869
1.02051
1.03225
1.01459
1.03007
1.12204
1.26412
1.3689
1.39767
1.39996
1.4
1.40001
1.40001
1.40001
1.40001
1.40001
1.40001
1.40001
0.151766
0.192379
0.343113
0.632903
0.856582
0.943636
1.0049
1.11699
1.2714
1.37191
1.398
1.39997
1.4
1.40001
1.40001
1.40001
1.40001
1.40001
1.40001
1.40001
0.223431
0.23274
0.274169
0.391695
0.605111
0.804044
0.965745
1.12541
1.27882
1.37424
1.39826
1.39998
1.4
1.40001
1.40001
1.40001
1.40001
1.40001
1.40001
1.40001
0.283138
0.295083
0.322356
0.40759
0.583867
0.784014
0.962328
1.13267
1.28821
1.37774
1.39861
1.39998
1.4
1.40001
1.40001
1.40001
1.40001
1.40001
1.40001
1.40001
0.357275
0.358764
0.376217
0.453792
0.599975
0.783126
0.966701
1.1453
1.29986
1.38174
1.39898
1.39999
1.4
1.40001
1.40001
1.40001
1.40001
1.40001
1.40001
1.40001
0.422184
0.442509
0.44153
0.480229
0.62169
0.811617
0.995548
1.17095
1.31568
1.38618
1.39933
1.4
1.4
1.40001
1.40001
1.40001
1.40001
1.40001
1.40001
1.40001
0.541601
0.539507
0.544432
0.580769
0.69348
0.867253
1.04439
1.2077
1.33442
1.39046
1.3996
1.4
1.40001
1.40001
1.40001
1.40001
1.40001
1.40001
1.40001
1.40001
0.733434
0.622359
0.61419
0.645662
0.755145
0.928447
1.10321
1.25195
1.35463
1.39425
1.3998
1.4
1.40001
1.40001
1.40001
1.40001
1.40001
1.40001
1.40001
1.40001
0.969852
0.745725
0.69466
0.716189
0.806114
0.970226
1.14419
1.28608
1.37042
1.39686
1.3999
1.4
1.40001
1.40001
1.40001
1.40001
1.40001
1.40001
1.40001
1.40001
1.64914
1.10547
0.992536
1.01508
1.10657
1.22592
1.31065
1.36354
1.3908
1.39887
1.39994
1.4
1.40001
1.40001
1.40001
1.40001
1.40001
1.40001
1.40001
1.40001
2.50947
1.96353
1.68256
1.58766
1.53768
1.48564
1.42624
1.40027
1.39909
1.39958
1.39993
1.4
1.4
1.40001
1.40001
1.40001
1.40001
1.40001
1.40001
1.40001
2.48448
2.20578
1.97196
1.78969
1.63115
1.49685
1.42079
1.40137
1.39995
1.39994
1.39998
1.4
1.4
1.40001
1.40001
1.40001
1.40001
1.40001
1.40001
1.40001
2.10109
2.05248
1.91016
1.7303
1.56351
1.4486
1.40593
1.40025
1.4
1.4
1.4
1.4
1.40001
1.40001
1.40001
1.40001
1.40001
1.40001
1.40001
1.40001
1.54982
1.58672
1.56238
1.49941
1.43603
1.40593
1.40034
1.40001
1.4
1.4
1.40001
1.40001
1.40001
1.40001
1.40001
1.40001
1.40001
1.40001
1.40001
1.40001
1.4076
1.40989
1.40894
1.40513
1.40137
1.40013
1.40001
1.40001
1.40001
1.40001
1.40001
1.40001
1.40001
1.40001
1.40001
1.40001
1.40001
1.40001
1.40001
1.40001
1.40014
1.40013
1.4001
1.40005
1.40002
1.40001
1.40001
1.40001
1.40001
1.40001
1.40001
1.40001
1.40001
1.40001
1.40001
1.40001
1.40001
1.40001
1.40001
1.40001
1.40001
1.40001
1.40001
1.40001
1.40001
1.40001
1.40001
1.40001
1.40001
1.40001
1.40001
1.40001
1.40001
1.40001
1.40001
1.40001
1.40001
1.40001
1.40001
1.40001
1.40001
1.40001
1.40001
1.40001
1.40001
1.40001
1.40001
1.40001
1.40001
1.40001
1.40001
1.40001
1.40001
1.40001
1.40001
1.40001
1.40001
1.40001
1.40001
1.40001
1.40001
1.40001
1.40001
1.40001
1.40001
1.40001
1.40001
1.40001
1.40001
1.40001
1.40001
1.40001
1.40001
1.40001
1.40001
1.40001
1.40001
1.40001
1.40001
1.40001
1.40001
1.40001
1.40001
1.40001
1.40001
1.40001
1.40001
1.40001
1.40001
1.40001
1.40001
1.40001
1.40001
1.40001
1.40001
1.40001
1.40001
1.40001
1.40001
1.40001
1.40001
1.40001
1.40001
1.40001
1.40001
1.40001
1.40001
1.40001
1.40001
1.40001
1.40001
1.40001
1.40001
1.40001
1.40001
1.40001
1.40001
1.40001
1.40001
1.40001
1.40001
1.40001
1.40001
1.40001
1.40001
1.40001
1.40001
1.40001
1.40001
1.40001
1.40001
1.40001
1.40001
1.40001
1.40001
1.40001
1.40001
1.40001
1.40001
1.40001
1.40001
1.40001
1.40001
1.40001
1.40001
1.40001
1.40001
1.40001
1.40001
1.40001
1.40001
1.40001
1.40001
1.40001
1.40001
1.40001
1.40001
1.40001
1.40001
1.40001
1.40001
1.40001
1.40001
1.40001
1.40001
1.40001
1.40001
1.40001
1.40001
1.40001
1.40001
1.40001
1.40001
1.40001
1.40001
1.40001
1.40001
1.40001
1.40001
1.40001
2.19137
2.85487
2.65258
1.94567
1.49126
1.40521
1.40012
1.40001
1.40001
1.40001
1.40001
1.40001
1.40001
1.40001
1.40001
3.12765
3.1079
2.41624
1.57698
1.40574
1.40003
1.4
1.40001
1.40001
1.40001
1.40001
1.40001
1.40001
1.40001
1.40001
3.68985
3.18354
1.91178
1.43496
1.40053
1.40001
1.40001
1.40001
1.40001
1.40001
1.40001
1.40001
1.40001
1.40001
1.40001
3.96029
2.40444
1.49862
1.40158
1.40001
1.40001
1.40001
1.40001
1.40001
1.40001
1.40001
1.40001
1.40001
1.40001
1.40001
3.26586
1.64566
1.40566
1.40002
1.40001
1.40001
1.40001
1.40001
1.40001
1.40001
1.40001
1.40001
1.40001
1.40001
1.40001
1.95977
1.41688
1.40004
1.4
1.4
1.40001
1.40001
1.40001
1.40001
1.40001
1.40001
1.40001
1.40001
1.40001
1.40001
1.41252
1.39995
1.39999
1.4
1.40001
1.40001
1.40001
1.40001
1.40001
1.40001
1.40001
1.40001
1.40001
1.40001
1.40001
1.39934
1.39999
1.40001
1.40001
1.40001
1.40001
1.40001
1.40001
1.40001
1.40001
1.40001
1.40001
1.40001
1.40001
1.40001
1.4
1.40001
1.40001
1.40001
1.40001
1.40001
1.40001
1.40001
1.40001
1.40001
1.40001
1.40001
1.40001
1.40001
1.40001
1.40001
1.40001
1.40001
1.40001
1.40001
1.40001
1.40001
1.40001
1.40001
1.40001
1.40001
1.40001
1.40001
1.40001
1.40001
1.40001
1.40001
1.40001
1.40001
1.40001
1.40001
1.40001
1.40001
1.40001
1.40001
1.40001
1.40001
1.40001
1.40001
1.40001
1.40001
1.40001
1.40001
1.40001
1.40001
1.40001
1.40001
1.40001
1.40001
1.40001
1.40001
1.40001
1.40001
1.40001
1.40001
1.40001
1.40001
1.40001
1.40001
1.40001
1.40001
1.40001
1.40001
1.40001
1.40001
1.40001
1.40001
1.40001
1.40001
1.40001
1.40001
1.40001
1.40001
1.40001
1.40001
1.40001
1.40001
1.40001
1.40001
1.40001
1.40001
1.40001
1.40001
1.40001
1.40001
1.40001
1.40001
1.40001
1.40001
1.40001
1.40001
1.40001
1.40001
1.40001
1.40001
1.40001
1.40001
1.40001
1.40001
1.40001
1.40001
1.40001
1.40001
1.40001
1.40001
1.40001
1.40001
1.40001
1.40001
1.40001
1.40001
1.40001
1.40001
1.40001
1.40001
1.40001
1.40001
1.40001
1.40001
1.40001
1.40001
1.40001
1.40001
1.40001
1.40001
1.40001
1.40001
1.40001
1.40001
1.40001
1.40001
1.40001
1.40001
1.40001
1.40001
1.40001
1.40001
1.40001
1.40001
1.40001
1.40001
1.40001
1.40001
1.40001
1.40001
1.40001
1.40001
1.40001
1.40001
1.40001
1.40001
1.40001
1.40001
1.40001
1.40001
1.40001
1.40001
1.40001
1.40001
1.40001
1.40001
1.40001
1.40001
1.40001
1.40001
1.40001
1.40001
1.40001
1.40001
1.40001
1.40001
1.40001
1.40001
1.40001
1.40001
1.40001
1.40001
1.40001
1.40001
1.40001
1.40001
1.40001
1.40001
1.40001
1.40001
1.40001
1.40001
1.40001
1.40001
1.40001
1.40001
1.40001
1.40001
1.40001
1.40001
1.40001
1.40001
1.40001
1.40001
1.40001
1.40001
1.40001
1.40001
1.40001
1.40001
1.40001
1.40001
1.40001
1.40001
1.40001
1.40001
1.40001
1.40001
1.40001
1.40001
1.40001
1.40001
1.40001
1.40001
1.40001
1.40001
1.40001
1.40001
1.40001
1.40001
1.40001
1.40001
1.40001
1.40001
1.40001
1.40001
1.40001
1.40001
1.40001
1.40001
1.40001
1.40001
1.40001
1.40001
1.40001
1.40001
1.40001
1.40001
1.40001
1.40001
1.40001
1.40001
1.40001
1.40001
1.40001
1.40001
1.40001
1.40001
1.40001
1.40001
1.40001
1.40001
1.40001
1.40001
1.40001
1.40001
1.40001
1.40001
1.40001
1.40001
1.40001
1.40001
1.40001
1.40001
1.40001
1.40001
1.40001
1.40001
1.40001
1.40001
1.40001
1.40001
1.40001
1.40001
1.40001
1.40001
1.40001
1.40001
1.40001
1.40001
1.40001
1.40001
1.40001
1.40001
1.40001
1.40001
1.40001
1.40001
1.40001
1.40001
1.40001
1.40001
1.40001
1.40001
1.40001
1.40001
1.40001
1.40001
1.40001
1.40001
1.40001
1.40001
1.40001
1.40001
1.40001
1.40001
1.40001
1.40001
1.40001
1.40001
1.40001
1.40001
1.40001
1.40001
1.40001
1.40001
1.40001
1.40001
1.40001
1.40001
1.40001
1.40001
1.40001
1.40001
1.40001
1.40001
1.40001
1.40001
1.40001
1.40001
1.40001
1.40001
1.40001
1.40001
1.40001
1.40001
1.40001
1.40001
1.40001
1.40001
1.40001
1.40001
1.40001
1.40001
1.40001
1.40001
1.40001
1.40001
1.40001
1.40001
1.40001
1.40001
1.40001
1.40001
1.40001
1.40001
1.40001
1.40001
1.40001
1.40001
1.40001
1.40001
1.40001
1.40001
1.40001
1.40001
1.40001
1.40001
1.40001
1.40001
1.40001
1.40001
1.40001
1.40001
1.40001
1.40001
1.40001
1.40001
1.40001
1.40001
1.40001
1.40001
1.40001
1.40001
1.40001
1.40001
1.40001
1.40001
1.40001
1.40001
1.40001
1.40001
1.40001
1.40001
1.40001
1.40001
1.40001
1.40001
1.40001
1.40001
1.40001
1.40001
1.40001
1.40001
1.40001
1.40001
1.40001
1.40001
1.40001
1.40001
1.40001
1.40001
1.40001
1.40001
1.40001
1.40001
1.40001
1.40001
1.40001
1.40001
1.40001
1.40001
1.40001
1.40001
1.40001
1.40001
1.40001
1.40001
1.40001
1.40001
1.40001
1.40001
1.40001
1.40001
1.40001
1.40001
1.40001
1.40001
1.40001
1.40001
1.40001
1.40001
1.40001
1.40001
1.40001
1.40001
1.40001
1.40001
1.40001
1.40001
1.40001
1.40001
1.40001
1.40001
1.40001
1.40001
1.40001
1.40001
1.40001
1.40001
1.40001
1.40001
1.40001
1.40001
1.40001
1.40001
1.40001
1.40001
1.40001
1.40001
1.40001
1.40001
1.40001
1.40001
1.40001
1.40001
1.40001
1.40001
1.40001
1.40001
1.40001
1.40001
1.40001
1.40001
1.40001
1.40001
1.40001
1.40001
1.40001
1.40001
1.40001
1.40001
1.40001
1.40001
1.40001
1.40001
1.40001
1.40001
1.40001
1.40001
1.40001
1.40001
1.40001
1.40001
1.40001
1.40001
1.40001
1.40001
1.40001
1.40001
1.40001
1.40001
1.40001
1.40001
1.40001
1.40001
1.40001
1.40001
1.40001
1.40001
1.40001
1.40001
1.40001
1.40001
1.40001
1.40001
1.40001
1.40001
1.40001
1.40001
1.40001
1.40001
1.40001
1.40001
1.40001
1.40001
1.40001
1.40001
1.40001
1.40001
1.40001
1.40001
1.40001
1.40001
1.40001
1.40001
1.40001
1.40001
1.40001
1.40001
1.40001
1.40001
1.40001
1.40001
1.40001
1.40001
1.40001
1.40001
1.40001
1.40001
1.40001
1.40001
1.40001
1.40001
1.40001
1.40001
1.40001
1.40001
1.40001
1.40001
1.40001
1.40001
1.40001
1.40001
1.40001
1.40001
1.40001
1.40001
1.40001
1.40001
1.40001
1.40001
1.40001
1.40001
1.40001
1.40001
1.40001
1.40001
1.40001
1.40001
1.40001
1.40001
1.40001
1.40001
1.40001
1.40001
1.40001
1.40001
1.40001
1.40001
1.40001
1.40001
1.40001
1.40001
1.40001
1.40001
1.40001
1.40001
1.40001
1.40001
1.40001
1.40001
1.40001
1.40001
1.40001
1.40001
1.40001
1.40001
1.40001
1.40001
1.40001
1.40001
1.40001
1.40001
1.40001
1.40001
1.40001
1.40001
1.40001
1.40001
1.40001
1.40001
1.40001
1.40001
1.40001
1.40001
1.40001
1.40001
1.40001
1.40001
1.40001
1.40001
1.40001
1.40001
1.40001
1.40001
1.40001
1.40001
1.40001
1.40001
1.40001
1.40001
1.40001
1.40001
1.40001
1.40001
1.40001
1.40001
1.40001
1.40001
1.40001
1.40001
1.40001
1.40001
1.40001
1.40001
1.40001
1.40001
1.40001
1.40001
1.40001
1.40001
1.40001
1.40001
1.40001
1.40001
1.40001
1.40001
1.40001
1.40001
1.40001
1.40001
1.40001
1.40001
1.40001
1.40001
1.40001
1.40001
1.40001
1.40001
1.40001
1.40001
1.40001
1.40001
1.40001
1.40001
1.40001
1.40001
1.40001
1.40001
1.40001
1.40001
1.40001
1.40001
1.40001
1.40001
1.40001
1.40001
1.40001
1.40001
1.40001
1.40001
1.40001
1.40001
1.40001
1.40001
1.40001
1.40001
1.40001
1.40001
1.40001
1.40001
1.40001
1.40001
1.40001
1.40001
1.40001
1.40001
1.40001
1.40001
1.40001
1.40001
1.40001
1.40001
1.40001
1.40001
1.40001
1.40001
1.40001
1.40001
1.40001
1.40001
1.40001
1.40001
1.40001
1.40001
1.40001
1.40001
1.40001
1.40001
1.40001
1.40001
1.40001
1.40001
1.40001
1.40001
1.40001
1.40001
1.40001
1.40001
1.40001
1.40001
1.40001
1.40001
1.40001
1.40001
1.40001
1.40001
1.40001
1.40001
1.40001
1.40001
1.40001
1.40001
1.40001
1.40001
1.40001
1.40001
1.40001
1.40001
1.40001
1.40001
1.40001
1.40001
1.40001
1.40001
1.40001
1.40001
1.40001
1.40001
1.40001
1.40001
1.40001
1.40001
1.40001
1.40001
1.40001
1.40001
1.40001
1.40001
1.40001
1.40001
1.40001
1.40001
1.40001
1.40001
1.40001
1.40001
1.40001
1.40001
1.40001
1.40001
1.40001
1.40001
1.40001
1.40001
1.40001
1.40001
1.40001
1.40001
1.40001
1.40001
1.40001
1.40001
1.40001
1.40001
1.40001
1.40001
1.40001
1.40001
1.40001
1.40001
1.40001
1.40001
1.40001
1.4
1.40001
1.40001
1.40001
1.40001
1.40001
1.40001
1.40001
1.40001
1.40001
1.40001
1.40001
1.40001
1.40001
1.40001
1.39934
1.39999
1.40001
1.40001
1.40001
1.40001
1.40001
1.40001
1.40001
1.40001
1.40001
1.40001
1.40001
1.40001
1.40001
1.41252
1.39995
1.39999
1.4
1.40001
1.40001
1.40001
1.40001
1.40001
1.40001
1.40001
1.40001
1.40001
1.40001
1.40001
1.95977
1.41688
1.40004
1.4
1.4
1.40001
1.40001
1.40001
1.40001
1.40001
1.40001
1.40001
1.40001
1.40001
1.40001
3.26588
1.64567
1.40566
1.40002
1.40001
1.40001
1.40001
1.40001
1.40001
1.40001
1.40001
1.40001
1.40001
1.40001
1.40001
3.96027
2.40445
1.49862
1.40158
1.40001
1.40001
1.40001
1.40001
1.40001
1.40001
1.40001
1.40001
1.40001
1.40001
1.40001
3.68985
3.18354
1.91178
1.43496
1.40053
1.40001
1.40001
1.40001
1.40001
1.40001
1.40001
1.40001
1.40001
1.40001
1.40001
3.12768
3.10791
2.41623
1.57698
1.40574
1.40003
1.4
1.40001
1.40001
1.40001
1.40001
1.40001
1.40001
1.40001
1.40001
2.19133
2.85487
2.65258
1.94567
1.49126
1.40521
1.40012
1.40001
1.40001
1.40001
1.40001
1.40001
1.40001
1.40001
1.40001
1.64931
2.5095
2.4845
2.10109
1.54982
1.4076
1.40014
1.40001
1.40001
1.40001
1.40001
1.40001
1.40001
1.40001
1.40001
1.10528
1.96352
2.20578
2.05248
1.58672
1.40989
1.40013
1.40001
1.40001
1.40001
1.40001
1.40001
1.40001
1.40001
1.40001
0.992246
1.68242
1.97195
1.91016
1.56238
1.40894
1.4001
1.40001
1.40001
1.40001
1.40001
1.40001
1.40001
1.40001
1.40001
1.01432
1.58741
1.78967
1.73029
1.49941
1.40513
1.40005
1.40001
1.40001
1.40001
1.40001
1.40001
1.40001
1.40001
1.40001
1.10602
1.53751
1.63114
1.56351
1.43603
1.40137
1.40002
1.40001
1.40001
1.40001
1.40001
1.40001
1.40001
1.40001
1.40001
1.22578
1.48559
1.49684
1.4486
1.40593
1.40013
1.40001
1.40001
1.40001
1.40001
1.40001
1.40001
1.40001
1.40001
1.40001
1.31066
1.42624
1.42078
1.40593
1.40034
1.40001
1.40001
1.40001
1.40001
1.40001
1.40001
1.40001
1.40001
1.40001
1.40001
1.36359
1.40027
1.40137
1.40025
1.40001
1.40001
1.40001
1.40001
1.40001
1.40001
1.40001
1.40001
1.40001
1.40001
1.40001
1.39082
1.39909
1.39995
1.4
1.4
1.40001
1.40001
1.40001
1.40001
1.40001
1.40001
1.40001
1.40001
1.40001
1.40001
1.39887
1.39958
1.39994
1.4
1.4
1.40001
1.40001
1.40001
1.40001
1.40001
1.40001
1.40001
1.40001
1.40001
1.40001
1.39994
1.39993
1.39998
1.4
1.40001
1.40001
1.40001
1.40001
1.40001
1.40001
1.40001
1.40001
1.40001
1.40001
1.40001
1.4
1.4
1.4
1.4
1.40001
1.40001
1.40001
1.40001
1.40001
1.40001
1.40001
1.40001
1.40001
1.40001
1.40001
1.40001
1.4
1.4
1.40001
1.40001
1.40001
1.40001
1.40001
1.40001
1.40001
1.40001
1.40001
1.40001
1.40001
1.40001
1.40001
1.40001
1.40001
1.40001
1.40001
1.40001
1.40001
1.40001
1.40001
1.40001
1.40001
1.40001
1.40001
1.40001
1.40001
1.40001
1.40001
1.40001
1.40001
1.40001
1.40001
1.40001
1.40001
1.40001
1.40001
1.40001
1.40001
1.40001
1.40001
1.40001
1.40001
1.40001
1.40001
1.40001
1.40001
1.40001
1.40001
1.40001
1.40001
1.40001
1.40001
1.40001
1.40001
1.40001
1.40001
1.40001
1.40001
1.40001
1.40001
1.40001
1.40001
1.40001
1.40001
1.40001
1.40001
1.40001
1.40001
1.40001
1.40001
1.40001
1.40001
1.40001
1.40001
1.40001
1.40001
1.40001
1.40001
1.40001
1.40001
1.40001
1.40001
1.40001
1.40001
1.40001
1.40001
1.40001
1.40001
1.40001
1.40001
1.40001
1.40001
1.40001
1.40001
1.40001
1.40001
1.40001
1.40001
1.40001
1.40001
1.40001
1.40001
1.40001
1.40001
1.40001
1.40001
1.40001
1.40001
1.40001
1.40001
1.40001
1.40001
1.40001
1.40001
1.40001
1.40001
0.969398
0.745803
0.696537
0.71996
0.80934
0.971399
1.14451
1.28627
1.37051
1.39688
1.39991
1.4
1.40001
1.40001
1.40001
1.40001
1.40001
1.40001
1.40001
1.40001
0.733247
0.622924
0.614187
0.644691
0.753419
0.927686
1.10317
1.25203
1.35468
1.39427
1.3998
1.4
1.40001
1.40001
1.40001
1.40001
1.40001
1.40001
1.40001
1.40001
0.54169
0.539285
0.544039
0.580496
0.694424
0.868334
1.04472
1.20755
1.33428
1.39044
1.3996
1.4
1.40001
1.40001
1.40001
1.40001
1.40001
1.40001
1.40001
1.40001
0.422105
0.442409
0.442132
0.48109
0.620169
0.808861
0.993462
1.16974
1.31514
1.38606
1.39932
1.4
1.4
1.40001
1.40001
1.40001
1.40001
1.40001
1.40001
1.40001
0.357355
0.359247
0.376487
0.453144
0.599886
0.783938
0.967001
1.14498
1.29937
1.38156
1.39896
1.39999
1.4
1.40001
1.40001
1.40001
1.40001
1.40001
1.40001
1.40001
0.283186
0.294983
0.321782
0.407311
0.584504
0.785403