/*--------------------------------*- C++ -*----------------------------------*\
  =========                 |
  \\      /  F ield         | OpenFOAM: The Open Source CFD Toolbox
   \\    /   O peration     | Website:  https://openfoam.org
    \\  /    A nd           | Version:  7
     \\/     M anipulation  |
\*---------------------------------------------------------------------------*/
FoamFile
{
    version     2.0;
    format      ascii;
    class       volVectorField;
    location    "0.6";
    object      U;
}
// * * * * * * * * * * * * * * * * * * * * * * * * * * * * * * * * * * * * * //

dimensions      [0 1 -1 0 0 0 0];

internalField   nonuniform List<vector> 
3700
(
(0.646835 -0.147958 0)
(0.559582 -0.237853 0)
(0.648716 -0.149294 0)
(0.754989 -0.173964 0)
(0.921733 -0.192444 0)
(1.06723 -0.166083 0)
(1.16414 -0.116106 0)
(1.19755 -0.139744 0)
(1.26336 -0.126716 0)
(1.33076 -0.129201 0)
(1.4005 -0.153265 0)
(1.48587 -0.201626 0)
(1.5689 -0.21392 0)
(1.62425 -0.236738 0)
(1.66653 -0.251861 0)
(1.70218 -0.269773 0)
(1.73928 -0.285487 0)
(1.76901 -0.281097 0)
(1.78084 -0.244023 0)
(1.80836 -0.258015 0)
(1.32688 -0.669094 0)
(1.26052 -0.751878 0)
(1.39523 -0.652813 0)
(1.58615 -0.673222 0)
(1.9062 -0.872262 0)
(1.97297 -1.09581 0)
(1.96914 -1.09474 0)
(1.93341 -1.12675 0)
(1.96264 -1.11299 0)
(1.9773 -1.08284 0)
(2.03061 -1.11776 0)
(2.13069 -1.27878 0)
(2.20199 -1.34836 0)
(2.24518 -1.42028 0)
(2.30152 -1.43476 0)
(2.34347 -1.44639 0)
(2.39971 -1.52773 0)
(2.42252 -1.42794 0)
(2.44571 -1.32123 0)
(2.51307 -1.29334 0)
(1.59221 -1.28782 0)
(1.62037 -1.43608 0)
(1.76216 -1.55815 0)
(1.86541 -1.75053 0)
(1.97749 -2.00041 0)
(2.06778 -2.20889 0)
(2.10241 -2.27162 0)
(2.12011 -2.29982 0)
(2.24175 -2.27482 0)
(2.33056 -2.19036 0)
(2.43415 -2.16786 0)
(2.52938 -2.11708 0)
(2.58719 -2.05998 0)
(2.62454 -2.07153 0)
(2.66931 -1.99081 0)
(2.69513 -1.89903 0)
(2.65847 -1.89809 0)
(2.65921 -1.74094 0)
(2.6707 -1.76062 0)
(2.79168 -1.60998 0)
(1.5735 -1.36919 0)
(1.61747 -1.56482 0)
(1.75451 -1.69349 0)
(1.88873 -1.97921 0)
(1.96848 -2.2564 0)
(1.97616 -2.30364 0)
(1.97327 -2.28064 0)
(1.97088 -2.32679 0)
(2.16212 -2.25131 0)
(2.2988 -2.02985 0)
(2.50254 -1.95754 0)
(2.62215 -1.83097 0)
(2.74934 -1.68276 0)
(2.88091 -1.63449 0)
(2.96043 -1.60406 0)
(3.0182 -1.56401 0)
(2.93912 -1.65607 0)
(2.88058 -1.54961 0)
(2.74712 -1.68831 0)
(2.78768 -1.44012 0)
(1.49101 -1.44761 0)
(1.60898 -1.60767 0)
(1.80361 -1.94222 0)
(1.94411 -2.20919 0)
(2.02239 -2.3125 0)
(2.08765 -2.33011 0)
(2.10606 -2.27431 0)
(2.07778 -2.29389 0)
(2.22623 -2.25115 0)
(2.32862 -1.93273 0)
(2.41351 -1.88025 0)
(2.48394 -1.78469 0)
(2.58159 -1.69766 0)
(2.77738 -1.59947 0)
(2.85718 -1.46924 0)
(3.05313 -1.29603 0)
(3.12414 -1.15869 0)
(3.14421 -1.08238 0)
(2.97564 -1.29433 0)
(2.858 -1.29595 0)
(1.55609 -1.58258 0)
(1.75162 -1.70803 0)
(1.99073 -2.08223 0)
(2.09405 -2.22516 0)
(2.19623 -2.21638 0)
(2.20479 -2.27865 0)
(2.30747 -2.14917 0)
(2.27369 -2.22949 0)
(2.39481 -2.22254 0)
(2.47633 -1.86038 0)
(2.45422 -1.84153 0)
(2.52608 -1.67142 0)
(2.58453 -1.59297 0)
(2.67861 -1.55149 0)
(2.75472 -1.42579 0)
(2.91185 -1.31789 0)
(3.02512 -1.15476 0)
(3.15891 -0.899397 0)
(3.19709 -0.7352 0)
(3.03961 -0.832492 0)
(1.66483 -1.72938 0)
(1.92987 -1.88748 0)
(2.04282 -2.24998 0)
(2.16078 -2.22443 0)
(2.292 -2.13411 0)
(2.35502 -2.24609 0)
(2.47419 -1.99812 0)
(2.57817 -1.99961 0)
(2.68874 -2.00878 0)
(2.68796 -1.74205 0)
(2.63384 -1.69761 0)
(2.67265 -1.5488 0)
(2.72315 -1.40719 0)
(2.74516 -1.3772 0)
(2.77202 -1.24141 0)
(2.82245 -1.17529 0)
(2.88624 -1.06687 0)
(3.02225 -0.915883 0)
(3.055 -0.662707 0)
(3.09785 -0.424133 0)
(1.76237 -1.84756 0)
(1.95812 -2.15127 0)
(1.97733 -2.32068 0)
(2.15791 -2.2119 0)
(2.44545 -2.04336 0)
(2.47893 -2.20753 0)
(2.6744 -1.86677 0)
(2.70034 -1.77551 0)
(2.82195 -1.55111 0)
(2.84372 -1.47128 0)
(2.82628 -1.3169 0)
(2.87537 -1.22615 0)
(2.90741 -1.03941 0)
(2.89996 -1.02825 0)
(2.89546 -0.912969 0)
(2.86548 -0.929122 0)
(2.85113 -0.848239 0)
(2.91457 -0.798486 0)
(2.91628 -0.648771 0)
(2.9737 -0.382741 0)
(1.85208 -2.01323 0)
(1.75315 -2.27452 0)
(1.79005 -2.28384 0)
(1.97016 -2.1179 0)
(2.13557 -1.92645 0)
(2.12453 -2.05462 0)
(2.33361 -1.80177 0)
(2.43947 -1.70989 0)
(2.59255 -1.34641 0)
(2.62714 -1.3733 0)
(2.71451 -1.09927 0)
(2.86297 -1.0281 0)
(2.88513 -0.699163 0)
(2.9278 -0.60562 0)
(2.9395 -0.464861 0)
(2.92171 -0.482723 0)
(2.8933 -0.452525 0)
(2.8697 -0.514794 0)
(2.863 -0.488977 0)
(2.8389 -0.268329 0)
(1.66939 -1.91055 0)
(1.56741 -2.1846 0)
(1.70319 -2.22813 0)
(1.80753 -2.05938 0)
(1.93075 -1.82294 0)
(1.99767 -1.89833 0)
(2.19985 -1.67957 0)
(2.26419 -1.58597 0)
(2.41515 -1.40314 0)
(2.48984 -1.27137 0)
(2.57512 -1.05189 0)
(2.71382 -0.961965 0)
(2.74908 -0.670638 0)
(2.84623 -0.55633 0)
(2.84501 -0.294562 0)
(2.85519 -0.138659 0)
(2.84256 -0.0281931 0)
(2.81594 -0.0644528 0)
(2.79903 -0.106704 0)
(2.7721 -0.0829493 0)
(1.5719 -1.62664 0)
(1.51834 -1.81606 0)
(1.51129 -2.00668 0)
(1.69284 -1.96419 0)
(1.89216 -1.75483 0)
(2.01453 -1.79286 0)
(2.24202 -1.63689 0)
(2.38355 -1.37467 0)
(2.41076 -1.34637 0)
(2.51736 -1.04583 0)
(2.58766 -0.858455 0)
(2.67101 -0.730517 0)
(2.68802 -0.509958 0)
(2.73381 -0.439025 0)
(2.72776 -0.251665 0)
(2.74996 -0.118376 0)
(2.74456 0.0731018 0)
(2.7165 0.197406 0)
(2.67692 0.264344 0)
(2.71618 0.159851 0)
(1.51182 -1.35268 0)
(1.55045 -1.40101 0)
(1.55663 -1.56523 0)
(1.64285 -1.84281 0)
(1.95122 -1.66606 0)
(2.21305 -1.5416 0)
(2.45011 -1.39616 0)
(2.56395 -0.932354 0)
(2.61567 -0.928073 0)
(2.64507 -0.602752 0)
(2.67445 -0.423292 0)
(2.70677 -0.298192 0)
(2.69034 -0.142683 0)
(2.67769 -0.0804851 0)
(2.64753 -0.00251089 0)
(2.62808 0.0569944 0)
(2.63107 0.12278 0)
(2.59224 0.275042 0)
(2.55349 0.434592 0)
(2.56714 0.43394 0)
(1.36175 -1.13899 0)
(1.52214 -1.10966 0)
(1.70145 -1.18549 0)
(1.69919 -1.68316 0)
(2.11929 -1.63642 0)
(2.403 -1.38889 0)
(2.73973 -0.734882 0)
(2.74013 -0.609328 0)
(2.67131 -0.290645 0)
(2.6898 -0.308163 0)
(2.66898 -0.096012 0)
(2.67158 0.0515694 0)
(2.62259 0.226423 0)
(2.58279 0.328098 0)
(2.54373 0.375275 0)
(2.49654 0.421693 0)
(2.48517 0.413223 0)
(2.46219 0.469804 0)
(2.42817 0.564093 0)
(2.42255 0.627177 0)
(1.10952 -1.0007 0)
(1.3021 -0.959635 0)
(1.7363 -1.04273 0)
(2.13882 -1.27732 0)
(2.54634 -1.53209 0)
(2.6944 -0.932834 0)
(2.69785 -0.546891 0)
(2.60327 -0.495952 0)
(2.59418 -0.303284 0)
(2.60265 -0.104881 0)
(2.56172 0.11216 0)
(2.55425 0.255819 0)
(2.49124 0.43438 0)
(2.45374 0.539563 0)
(2.39053 0.644291 0)
(2.33817 0.701593 0)
(2.30619 0.741812 0)
(2.28012 0.790829 0)
(2.29454 0.809267 0)
(2.29117 0.870168 0)
(0.837579 -0.8535 0)
(1.1661 -0.780273 0)
(1.95801 -1.17406 0)
(2.75278 -0.587357 0)
(2.3703 -1.22158 0)
(2.45306 -0.752811 0)
(2.52407 -0.526977 0)
(2.49569 -0.110135 0)
(2.49888 -0.00137435 0)
(2.48372 0.208491 0)
(2.42112 0.421696 0)
(2.38163 0.557454 0)
(2.31907 0.677009 0)
(2.27941 0.740879 0)
(2.22511 0.812083 0)
(2.1827 0.881201 0)
(2.17537 0.916375 0)
(2.14235 0.976415 0)
(2.21043 0.976643 0)
(2.2335 0.953177 0)
(0.636183 -0.616742 0)
(1.34546 -0.568395 0)
(2.13798 -1.24154 0)
(2.36156 -0.757844 0)
(2.38207 -0.625777 0)
(2.45047 -0.20349 0)
(2.46324 0.0564385 0)
(2.39823 0.30148 0)
(2.35428 0.477402 0)
(2.31507 0.626461 0)
(2.22995 0.780678 0)
(2.16664 0.880587 0)
(2.10461 0.956257 0)
(2.07308 0.981723 0)
(2.04712 1.01258 0)
(2.05445 1.0371 0)
(2.08627 1.02382 0)
(2.12396 1.01757 0)
(2.2208 0.979286 0)
(2.45587 0.849278 0)
(0.792072 -0.428047 0)
(1.89105 -0.145411 0)
(2.1133 -0.696316 0)
(2.29929 -0.369542 0)
(2.34243 0.210795 0)
(2.38543 0.369664 0)
(2.27638 0.631551 0)
(2.20299 0.736322 0)
(2.16371 0.796225 0)
(2.09266 0.93016 0)
(2.00376 1.03651 0)
(1.95456 1.08526 0)
(1.92108 1.11809 0)
(1.94505 1.10035 0)
(1.98382 1.08073 0)
(2.03613 1.05749 0)
(2.2176 0.948112 0)
(2.44727 0.809298 0)
(2.82235 0.430758 0)
(3.03478 0.077266 0)
(1.16386 -0.0534905 0)
(1.9495 -0.14877 0)
(2.27008 0.293638 0)
(2.22117 0.623316 0)
(2.22305 0.635784 0)
(2.14805 0.766288 0)
(2.06054 0.884911 0)
(1.97911 0.984869 0)
(1.92447 1.05715 0)
(1.86906 1.15004 0)
(1.82048 1.17429 0)
(1.8293 1.16841 0)
(1.8572 1.14819 0)
(1.97669 1.07501 0)
(2.20318 0.920444 0)
(2.52563 0.684291 0)
(2.9492 0.23435 0)
(3.05152 0.00303284 0)
(3.00399 -0.00381833 0)
(3.00085 -0.0016977 0)
(0.974643 0.077753 0)
(1.93331 0.754037 0)
(2.10912 0.82354 0)
(2.0033 0.952214 0)
(1.97999 0.983978 0)
(1.871 1.08444 0)
(1.79107 1.15099 0)
(1.77612 1.16193 0)
(1.77946 1.17868 0)
(1.75749 1.22248 0)
(1.75953 1.19729 0)
(1.94785 1.04703 0)
(2.21508 0.851971 0)
(2.66934 0.483368 0)
(3.04771 0.0643854 0)
(3.02928 -0.0132836 0)
(2.99964 -0.00213884 0)
(3.0002 -0.00134304 0)
(3.00001 -0.000300267 0)
(3 -1.63745e-05 0)
(1.16403 0.778406 0)
(1.83693 1.15293 0)
(1.84206 1.16048 0)
(1.74055 1.20333 0)
(1.72062 1.20085 0)
(1.66097 1.23707 0)
(1.67259 1.22461 0)
(1.74513 1.17709 0)
(1.78288 1.23788 0)
(1.83002 1.12353 0)
(2.3473 0.68632 0)
(2.91128 0.172278 0)
(3.08059 -0.0231859 0)
(3.01049 -0.00802482 0)
(3.00204 -0.0035034 0)
(2.99969 -0.00176423 0)
(2.99983 -0.000289687 0)
(3 2.41352e-06 0)
(3 2.92077e-06 0)
(3 1.56741e-06 0)
(1.58395 1.25906 0)
(1.58787 1.26739 0)
(1.59231 1.2739 0)
(1.60022 1.26749 0)
(1.61515 1.2483 0)
(1.60835 1.26198 0)
(1.91915 1.17354 0)
(3.01212 0.356617 0)
(3.31062 -0.567418 0)
(3 -1.0331e-07 0)
(3 6.25026e-07 0)
(3 -2.10794e-08 0)
(3 -4.30319e-09 0)
(3 -3.22033e-09 0)
(3 -2.69923e-10 0)
(3 4.03236e-11 0)
(3 -2.30568e-11 0)
(3 8.35425e-12 0)
(3 4.20683e-13 0)
(3 2.47349e-13 0)
(1.58385 1.25231 0)
(1.59564 1.26207 0)
(1.59863 1.27617 0)
(1.59945 1.28437 0)
(1.6649 1.26468 0)
(1.80141 1.19274 0)
(2.28491 0.748304 0)
(2.99936 0.0120414 0)
(3 1.78539e-07 0)
(3 -5.08996e-09 0)
(3 -2.21567e-09 0)
(3 6.47281e-12 0)
(3 -5.61313e-12 0)
(3 1.12558e-12 0)
(3 -7.02681e-15 0)
(3 2.37841e-15 0)
(3 -1.27297e-15 0)
(3 1.03964e-16 0)
(3 -6.84134e-16 0)
(3 -6.18739e-16 0)
(1.58823 1.25396 0)
(1.60517 1.25805 0)
(1.61168 1.26238 0)
(1.59225 1.29326 0)
(1.70105 1.21856 0)
(2.16741 0.811074 0)
(2.99212 9.47767e-05 0)
(3.00027 -0.000623334 0)
(3 1.14468e-06 0)
(3 -5.57956e-09 0)
(3 6.01809e-11 0)
(3 -2.88374e-12 0)
(3 7.85709e-14 0)
(3 -5.39196e-15 0)
(3 -8.68048e-17 0)
(3 -2.99397e-15 0)
(3 -1.61735e-15 0)
(3 -9.4771e-16 0)
(3 -1.42717e-15 0)
(3 1.94374e-15 0)
(1.58849 1.2572 0)
(1.60819 1.26124 0)
(1.6277 1.26 0)
(1.61946 1.28261 0)
(1.85996 1.08147 0)
(2.74481 0.219976 0)
(3.00506 -0.00154327 0)
(2.99991 7.91423e-05 0)
(3 -1.03956e-06 0)
(3 1.29114e-08 0)
(3 -1.84986e-10 0)
(3 2.54848e-12 0)
(3 -3.5394e-14 0)
(3 2.71224e-15 0)
(3 4.53898e-16 0)
(3 -1.79044e-15 0)
(3 -1.90794e-15 0)
(3 -8.603e-16 0)
(3 -1.04792e-15 0)
(3 1.41998e-15 0)
(1.58694 1.27087 0)
(1.60154 1.27401 0)
(1.63663 1.25843 0)
(1.71237 1.21831 0)
(2.37307 0.633831 0)
(3.01986 -0.0189546 0)
(2.99975 0.000149141 0)
(3 -4.39973e-06 0)
(3 8.3506e-08 0)
(3 -1.65587e-09 0)
(3 3.20436e-11 0)
(3 -3.5022e-13 0)
(3 6.01293e-15 0)
(3 9.56184e-16 0)
(3 4.86254e-16 0)
(3 -5.68579e-16 0)
(3 -1.18941e-15 0)
(3 -5.85433e-16 0)
(3 -3.88411e-16 0)
(3 1.17335e-15 0)
(1.58512 1.28437 0)
(1.58614 1.28298 0)
(1.6425 1.25862 0)
(1.75707 1.16915 0)
(2.66935 0.28002 0)
(3 -2.76772e-11 0)
(3 1.28335e-09 0)
(3 -1.61042e-09 0)
(3 4.47153e-10 0)
(3 -1.01204e-11 0)
(3 1.68248e-13 0)
(3 -6.20982e-16 0)
(3 1.73278e-15 0)
(3 1.14986e-15 0)
(3 3.51571e-16 0)
(3 -2.95232e-16 0)
(3 -3.60444e-16 0)
(3 6.27e-16 0)
(3 7.54676e-16 0)
(3 8.24702e-16 0)
(1.58498 1.29635 0)
(1.55618 1.29963 0)
(1.68338 1.23143 0)
(2.21351 0.824316 0)
(3.02292 -0.0230787 0)
(3 1.94657e-12 0)
(3 -9.6511e-15 0)
(3 9.15372e-13 0)
(3 -8.81024e-13 0)
(3 7.11566e-14 0)
(3 -6.13531e-16 0)
(3 1.00556e-15 0)
(3 1.63802e-16 0)
(3 7.56616e-16 0)
(3 4.71414e-16 0)
(3 -4.29896e-16 0)
(3 -3.42444e-16 0)
(3 7.94747e-16 0)
(3 6.00451e-16 0)
(3 1.23435e-15 0)
(1.58626 1.3249 0)
(1.50222 1.32433 0)
(1.72733 1.20104 0)
(2.38119 0.572665 0)
(3 9.71183e-12 0)
(3 6.64924e-14 0)
(3 -1.17848e-15 0)
(3 -2.2764e-15 0)
(3 3.27074e-16 0)
(3 -7.90394e-16 0)
(3 9.35134e-16 0)
(3 3.11285e-16 0)
(3 -3.51065e-16 0)
(3 2.0642e-16 0)
(3 2.37051e-16 0)
(3 -5.43748e-16 0)
(3 -7.83482e-16 0)
(3 4.58605e-16 0)
(3 2.69883e-16 0)
(3 8.61524e-16 0)
(1.58825 1.30273 0)
(1.47949 1.33549 0)
(2.01022 1.03263 0)
(2.89557 0.110631 0)
(3 -3.90634e-09 0)
(3 4.09547e-12 0)
(3 -7.89382e-15 0)
(3 -9.63787e-16 0)
(3 -7.53996e-16 0)
(3 -3.66654e-16 0)
(3 -4.24653e-16 0)
(3 -7.92006e-17 0)
(3 1.22422e-17 0)
(3 -2.28319e-16 0)
(3 -2.34246e-16 0)
(3 5.54355e-17 0)
(3 -8.39884e-16 0)
(3 1.19335e-16 0)
(3 -7.98925e-16 0)
(3 -1.15778e-16 0)
(1.60281 1.29427 0)
(1.4834 1.39253 0)
(2.1218 0.858096 0)
(3.01106 -0.00898817 0)
(3 3.76062e-09 0)
(3 -3.96531e-12 0)
(3 6.7846e-15 0)
(3 -1.08366e-15 0)
(3 -2.28877e-16 0)
(3 -1.71618e-16 0)
(3 -3.64909e-16 0)
(3 -3.9989e-16 0)
(3 -1.8034e-16 0)
(3 -3.53331e-16 0)
(3 -4.34509e-16 0)
(3 -7.03347e-16 0)
(3 -8.15946e-16 0)
(3 -2.84059e-16 0)
(3 -9.68212e-16 0)
(3 -2.1234e-16 0)
(1.6178 1.27895 0)
(1.57507 1.31081 0)
(2.42195 0.543503 0)
(3 -3.46196e-15 0)
(3 -3.27508e-12 0)
(3 2.60282e-14 0)
(3 -7.30553e-17 0)
(3 -3.70926e-16 0)
(3 -2.54223e-16 0)
(3 -3.10752e-16 0)
(3 4.09423e-17 0)
(3 -3.13368e-16 0)
(3 -4.40721e-16 0)
(3 -2.3742e-16 0)
(3 -5.24726e-17 0)
(3 -1.67881e-16 0)
(3 3.66166e-16 0)
(3 1.78727e-16 0)
(3 6.3886e-17 0)
(3 1.68047e-16 0)
(1.63143 1.26152 0)
(1.61588 1.2552 0)
(2.62543 0.316804 0)
(3 -7.37114e-14 0)
(3 1.63152e-14 0)
(3 -2.13354e-16 0)
(3 4.07777e-16 0)
(3 2.27766e-16 0)
(3 -1.74626e-16 0)
(3 4.47689e-17 0)
(3 4.61886e-16 0)
(3 4.79865e-16 0)
(3 -5.59218e-16 0)
(3 -5.35711e-16 0)
(3 -3.68364e-16 0)
(3 -6.05689e-17 0)
(3 6.59025e-16 0)
(3 8.55595e-16 0)
(3 -9.7539e-18 0)
(3 2.98241e-17 0)
(1.64752 1.247 0)
(1.82378 1.10266 0)
(2.86603 0.098447 0)
(3 -1.39381e-15 0)
(3 -1.53075e-15 0)
(3 -1.46464e-15 0)
(3 -6.06092e-16 0)
(3 -2.79401e-16 0)
(3 -4.54997e-16 0)
(3 2.17834e-16 0)
(3 6.71389e-16 0)
(3 9.48263e-16 0)
(3 3.99852e-16 0)
(3 -9.06992e-18 0)
(3 -1.28861e-16 0)
(3 3.2521e-16 0)
(3 8.18482e-16 0)
(3 9.72464e-16 0)
(3 9.51527e-16 0)
(3 1.18293e-15 0)
(1.67101 1.19894 0)
(1.88595 0.979489 0)
(2.98617 0.00838632 0)
(3 -1.29936e-15 0)
(3 -3.42686e-16 0)
(3 -8.85115e-16 0)
(3 -6.0202e-16 0)
(3 -5.29463e-16 0)
(3 -5.52898e-16 0)
(3 -3.20873e-16 0)
(3 -9.23861e-17 0)
(3 1.77336e-16 0)
(3 -1.23471e-16 0)
(3 -3.71954e-16 0)
(3 -2.19995e-16 0)
(3 -4.4543e-17 0)
(3 1.35903e-16 0)
(3 4.76531e-17 0)
(3 2.3517e-17 0)
(3 6.92143e-16 0)
(1.72956 1.16528 0)
(2.07016 0.817501 0)
(3 -1.66553e-15 0)
(3 -1.52574e-15 0)
(3 -1.62661e-15 0)
(3 -1.4759e-15 0)
(3 -1.39119e-15 0)
(3 -1.48991e-15 0)
(3 -1.15104e-15 0)
(3 -7.18806e-16 0)
(3 -4.93335e-16 0)
(3 -7.59123e-16 0)
(3 -1.21099e-15 0)
(3 -1.36544e-15 0)
(3 -9.23964e-16 0)
(3 -3.41123e-16 0)
(3 -2.42845e-16 0)
(3 -5.29964e-16 0)
(3 -6.50281e-16 0)
(3 -1.05269e-15 0)
(1.74663 1.10248 0)
(2.22751 0.647577 0)
(3 -1.29872e-15 0)
(3 -8.09661e-16 0)
(3 -1.18525e-15 0)
(3 -1.62545e-15 0)
(3 -1.81485e-15 0)
(3 -2.08715e-15 0)
(3 -2.09022e-15 0)
(3 -1.22546e-15 0)
(3 -5.34653e-16 0)
(3 -1.1308e-15 0)
(3 -1.31338e-15 0)
(3 -1.68793e-15 0)
(3 -1.48324e-15 0)
(3 -6.42719e-16 0)
(3 2.12113e-16 0)
(3 1.42011e-16 0)
(3 -3.45619e-17 0)
(3 -5.12808e-16 0)
(1.8502 1.01442 0)
(2.46136 0.443482 0)
(3 -1.88608e-15 0)
(3 -1.28811e-15 0)
(3 -1.4615e-15 0)
(3 -1.94767e-15 0)
(3 -2.07286e-15 0)
(3 -1.73495e-15 0)
(3 -1.33403e-15 0)
(3 -3.87852e-17 0)
(3 1.74961e-16 0)
(3 -3.76942e-16 0)
(3 -1.13199e-15 0)
(3 -2.06491e-15 0)
(3 -2.31246e-15 0)
(3 -2.17106e-15 0)
(3 -1.33069e-15 0)
(3 -5.98294e-16 0)
(3 -2.65742e-16 0)
(3 1.23345e-17 0)
(1.93086 0.864099 0)
(2.71594 0.202149 0)
(3 -1.35226e-15 0)
(3 -4.13642e-16 0)
(3 -4.29301e-16 0)
(3 -3.78665e-16 0)
(3 -1.96888e-16 0)
(3 2.46142e-16 0)
(3 8.04288e-16 0)
(3 1.0888e-15 0)
(3 1.16683e-15 0)
(3 8.0803e-16 0)
(3 2.64803e-16 0)
(3 -4.44269e-16 0)
(3 -8.6092e-16 0)
(3 -1.19839e-15 0)
(3 -1.07797e-15 0)
(3 -7.33954e-16 0)
(3 -3.50552e-16 0)
(3 -2.58121e-16 0)
(2.11977 0.668059 0)
(2.99095 9.59511e-06 0)
(3 -1.40203e-17 0)
(3 1.70311e-15 0)
(3 1.49876e-15 0)
(3 7.95411e-16 0)
(3 -1.45857e-15 0)
(3 -1.6722e-15 0)
(3 -7.35042e-16 0)
(3 5.75456e-16 0)
(3 7.36008e-16 0)
(3 8.72462e-16 0)
(3 9.43839e-16 0)
(3 1.1836e-15 0)
(3 1.0482e-15 0)
(3 9.03686e-16 0)
(3 7.26041e-16 0)
(3 6.38167e-16 0)
(3 5.2891e-16 0)
(3 3.06988e-16 0)
(1.99435 0.373555 0)
(2.9999 -1.95509e-05 0)
(3 6.57405e-16 0)
(3 4.5493e-16 0)
(3 1.11064e-15 0)
(3 9.69823e-16 0)
(3 -7.68432e-16 0)
(3 -9.59166e-16 0)
(3 -8.07596e-16 0)
(3 -3.92195e-16 0)
(3 2.48077e-16 0)
(3 6.27706e-16 0)
(3 1.09655e-15 0)
(3 1.48632e-15 0)
(3 1.3368e-15 0)
(3 1.24157e-15 0)
(3 8.27153e-16 0)
(3 9.31955e-16 0)
(3 1.21731e-15 0)
(3 1.31699e-15 0)
(1.99435 -0.373555 0)
(2.9999 1.95509e-05 0)
(3 1.61251e-15 0)
(3 2.41564e-15 0)
(3 1.69276e-15 0)
(3 1.34798e-15 0)
(3 1.14915e-15 0)
(3 7.83233e-16 0)
(3 9.42437e-17 0)
(3 -4.25325e-16 0)
(3 3.48982e-16 0)
(3 6.40649e-16 0)
(3 7.10331e-16 0)
(3 4.0446e-16 0)
(3 2.44812e-17 0)
(3 -2.43812e-16 0)
(3 -2.84339e-16 0)
(3 -2.77836e-16 0)
(3 -3.28223e-16 0)
(3 -3.24005e-16 0)
(2.11977 -0.668059 0)
(2.99095 -9.59511e-06 0)
(3 1.44824e-15 0)
(3 2.01124e-15 0)
(3 1.60891e-15 0)
(3 1.08842e-15 0)
(3 8.45009e-16 0)
(3 1.20661e-15 0)
(3 1.22061e-15 0)
(3 1.32552e-15 0)
(3 1.52042e-15 0)
(3 1.55412e-15 0)
(3 1.0111e-15 0)
(3 -2.37534e-16 0)
(3 -7.59092e-16 0)
(3 -6.85794e-16 0)
(3 -3.50012e-16 0)
(3 -4.79139e-16 0)
(3 -1.07782e-15 0)
(3 -1.19268e-15 0)
(1.93086 -0.864099 0)
(2.71594 -0.202149 0)
(3 1.01465e-15 0)
(3 8.29686e-16 0)
(3 5.39708e-16 0)
(3 2.35932e-16 0)
(3 4.1069e-16 0)
(3 9.53632e-16 0)
(3 1.04036e-15 0)
(3 9.68994e-16 0)
(3 1.33646e-15 0)
(3 1.68807e-15 0)
(3 1.56033e-15 0)
(3 1.11207e-15 0)
(3 7.26518e-16 0)
(3 6.07217e-16 0)
(3 5.74952e-16 0)
(3 4.66673e-16 0)
(3 2.08286e-16 0)
(3 -5.57871e-16 0)
(1.8502 -1.01442 0)
(2.46136 -0.443482 0)
(3 2.63077e-15 0)
(3 2.0138e-15 0)
(3 1.27979e-15 0)
(3 1.14966e-15 0)
(3 1.47662e-15 0)
(3 1.98946e-15 0)
(3 2.00149e-15 0)
(3 1.71449e-15 0)
(3 1.15895e-15 0)
(3 3.9496e-16 0)
(3 -1.38418e-16 0)
(3 -9.28557e-16 0)
(3 -1.19318e-15 0)
(3 -3.27312e-16 0)
(3 5.88341e-17 0)
(3 2.095e-16 0)
(3 -6.3849e-16 0)
(3 -6.78342e-16 0)
(1.74663 -1.10248 0)
(2.22751 -0.647577 0)
(3 3.80563e-15 0)
(3 3.68654e-15 0)
(3 3.43643e-15 0)
(3 3.25094e-15 0)
(3 3.07147e-15 0)
(3 3.20002e-15 0)
(3 2.86303e-15 0)
(3 1.88704e-15 0)
(3 1.82683e-15 0)
(3 1.35087e-15 0)
(3 8.64852e-16 0)
(3 2.98899e-16 0)
(3 7.98103e-16 0)
(3 1.13266e-15 0)
(3 5.53935e-16 0)
(3 -6.0081e-16 0)
(3 -1.0487e-15 0)
(3 -4.29305e-16 0)
(1.72956 -1.16528 0)
(2.07016 -0.817501 0)
(3 3.31216e-15 0)
(3 3.17957e-15 0)
(3 3.28577e-15 0)
(3 2.87608e-15 0)
(3 2.70165e-15 0)
(3 1.89555e-15 0)
(3 1.34626e-15 0)
(3 8.69633e-16 0)
(3 5.69765e-16 0)
(3 -7.47256e-17 0)
(3 -5.98789e-16 0)
(3 -1.89526e-16 0)
(3 2.06227e-16 0)
(3 -1.98367e-16 0)
(3 -7.44056e-16 0)
(3 -5.0338e-16 0)
(3 3.27337e-16 0)
(3 1.1397e-15 0)
(1.67101 -1.19894 0)
(1.88595 -0.979489 0)
(2.98617 -0.00838632 0)
(3 2.42366e-15 0)
(3 2.49622e-15 0)
(3 2.39003e-15 0)
(3 1.2744e-15 0)
(3 4.98319e-16 0)
(3 1.08062e-16 0)
(3 -1.43005e-16 0)
(3 -7.27899e-16 0)
(3 -1.02585e-15 0)
(3 -9.13149e-16 0)
(3 -9.18083e-16 0)
(3 -3.00586e-16 0)
(3 -4.07681e-16 0)
(3 -5.90653e-16 0)
(3 3.65512e-16 0)
(3 3.89154e-16 0)
(3 3.10429e-16 0)
(1.64752 -1.247 0)
(1.82378 -1.10266 0)
(2.86603 -0.098447 0)
(3 1.69636e-15 0)
(3 1.82244e-15 0)
(3 2.11331e-15 0)
(3 1.59403e-16 0)
(3 -8.52336e-16 0)
(3 -1.09085e-15 0)
(3 -1.12955e-15 0)
(3 -1.39015e-15 0)
(3 -1.72289e-15 0)
(3 -1.07317e-15 0)
(3 2.35418e-17 0)
(3 -9.55222e-16 0)
(3 -8.07853e-16 0)
(3 -8.6675e-16 0)
(3 -5.75223e-16 0)
(3 -7.28658e-16 0)
(3 -1.90114e-15 0)
(1.63143 -1.26152 0)
(1.61588 -1.2552 0)
(2.62543 -0.316804 0)
(3 7.14997e-14 0)
(3 -1.57275e-14 0)
(3 1.23353e-16 0)
(3 -1.32601e-15 0)
(3 -2.22443e-15 0)
(3 -2.51931e-15 0)
(3 -2.72284e-15 0)
(3 -2.55689e-15 0)
(3 -1.76495e-15 0)
(3 -6.20463e-16 0)
(3 -1.04402e-15 0)
(3 -1.82911e-15 0)
(3 -1.58392e-15 0)
(3 -1.31257e-15 0)
(3 -1.04499e-15 0)
(3 -1.75032e-15 0)
(3 -2.41299e-15 0)
(1.6178 -1.27895 0)
(1.57507 -1.31081 0)
(2.42195 -0.543503 0)
(3 3.68231e-15 0)
(3 3.2754e-12 0)
(3 -2.73615e-14 0)
(3 -1.92284e-15 0)
(3 -3.21777e-15 0)
(3 -3.21365e-15 0)
(3 -2.99912e-15 0)
(3 -2.75273e-15 0)
(3 -2.16084e-15 0)
(3 -2.72365e-15 0)
(3 -2.39314e-15 0)
(3 -1.58338e-15 0)
(3 -1.45799e-15 0)
(3 -1.24694e-15 0)
(3 -1.75108e-15 0)
(3 -2.17124e-15 0)
(3 -2.01654e-15 0)
(1.60281 -1.29427 0)
(1.4834 -1.39253 0)
(2.1218 -0.858096 0)
(3.01106 0.00898817 0)
(3 -3.7636e-09 0)
(3 3.96335e-12 0)
(3 -9.75793e-15 0)
(3 -1.73233e-15 0)
(3 -2.08946e-15 0)
(3 -2.03055e-15 0)
(3 -1.28611e-15 0)
(3 -1.66463e-15 0)
(3 -2.67873e-15 0)
(3 -1.85209e-15 0)
(3 -6.81973e-16 0)
(3 -7.45997e-16 0)
(3 -4.90939e-16 0)
(3 -1.01671e-15 0)
(3 -6.9001e-16 0)
(3 2.00051e-16 0)
(1.58825 -1.30273 0)
(1.47949 -1.33549 0)
(2.01022 -1.03263 0)
(2.89557 -0.110631 0)
(3 3.90943e-09 0)
(3 -4.10225e-12 0)
(3 4.09862e-15 0)
(3 -9.4894e-16 0)
(3 -9.6367e-16 0)
(3 -6.16728e-16 0)
(3 -2.33327e-16 0)
(3 -4.9831e-16 0)
(3 -1.82617e-15 0)
(3 -1.53019e-15 0)
(3 -1.08778e-15 0)
(3 2.57636e-16 0)
(3 1.42528e-15 0)
(3 3.27022e-16 0)
(3 2.15934e-17 0)
(3 8.18307e-16 0)
(1.58626 -1.3249 0)
(1.50222 -1.32433 0)
(1.72733 -1.20104 0)
(2.38119 -0.572665 0)
(3 -9.71853e-12 0)
(3 -6.61062e-14 0)
(3 7.46343e-16 0)
(3 1.02514e-15 0)
(3 1.80919e-17 0)
(3 1.64439e-16 0)
(3 -3.84222e-16 0)
(3 -4.01711e-16 0)
(3 -9.89654e-16 0)
(3 -8.96219e-16 0)
(3 -5.02223e-16 0)
(3 4.3257e-16 0)
(3 1.18017e-15 0)
(3 7.52982e-16 0)
(3 8.18659e-16 0)
(3 8.38267e-16 0)
(1.58498 -1.29635 0)
(1.55618 -1.29963 0)
(1.68338 -1.23143 0)
(2.21351 -0.824316 0)
(3.02292 0.0230787 0)
(3 -1.94581e-12 0)
(3 9.7583e-15 0)
(3 -9.16336e-13 0)
(3 8.82958e-13 0)
(3 -7.13813e-14 0)
(3 6.46553e-16 0)
(3 -8.40565e-16 0)
(3 -4.55128e-16 0)
(3 -4.46497e-16 0)
(3 -1.99986e-16 0)
(3 -1.86162e-16 0)
(3 1.54409e-15 0)
(3 8.49493e-16 0)
(3 1.13982e-15 0)
(3 1.17846e-15 0)
(1.58512 -1.28437 0)
(1.58614 -1.28298 0)
(1.6425 -1.25862 0)
(1.75707 -1.16915 0)
(2.66935 -0.28002 0)
(3 2.76762e-11 0)
(3 -1.28329e-09 0)
(3 1.61037e-09 0)
(3 -4.47149e-10 0)
(3 1.01201e-11 0)
(3 -1.68717e-13 0)
(3 1.50375e-15 0)
(3 -9.76047e-17 0)
(3 -2.85579e-16 0)
(3 2.44891e-16 0)
(3 5.50374e-16 0)
(3 1.40664e-15 0)
(3 1.41003e-15 0)
(3 1.04611e-15 0)
(3 4.57985e-16 0)
(1.58694 -1.27087 0)
(1.60154 -1.27401 0)
(1.63663 -1.25843 0)
(1.71237 -1.21831 0)
(2.37307 -0.633831 0)
(3.01986 0.0189546 0)
(2.99975 -0.000149141 0)
(3 4.39973e-06 0)
(3 -8.3506e-08 0)
(3 1.65587e-09 0)
(3 -3.20433e-11 0)
(3 3.51238e-13 0)
(3 -4.07308e-15 0)
(3 -1.6751e-17 0)
(3 -2.83461e-16 0)
(3 9.33242e-16 0)
(3 1.91701e-15 0)
(3 1.71972e-15 0)
(3 9.77922e-16 0)
(3 3.3662e-16 0)
(1.58849 -1.2572 0)
(1.60819 -1.26124 0)
(1.6277 -1.26 0)
(1.61946 -1.28261 0)
(1.85996 -1.08147 0)
(2.74481 -0.219976 0)
(3.00506 0.00154327 0)
(2.99991 -7.91423e-05 0)
(3 1.03956e-06 0)
(3 -1.29114e-08 0)
(3 1.84988e-10 0)
(3 -2.54707e-12 0)
(3 3.78902e-14 0)
(3 -1.49925e-15 0)
(3 -8.10108e-17 0)
(3 1.8187e-15 0)
(3 2.02357e-15 0)
(3 1.73759e-15 0)
(3 1.24573e-15 0)
(3 2.78637e-16 0)
(1.58823 -1.25396 0)
(1.60517 -1.25805 0)
(1.61168 -1.26238 0)
(1.59225 -1.29326 0)
(1.70105 -1.21856 0)
(2.16741 -0.811074 0)
(2.99212 -9.47737e-05 0)
(3.00027 0.000623334 0)
(3 -1.14468e-06 0)
(3 5.57956e-09 0)
(3 -6.01798e-11 0)
(3 2.88445e-12 0)
(3 -7.71365e-14 0)
(3 5.38608e-15 0)
(3 2.40732e-16 0)
(3 1.71303e-15 0)
(3 2.18013e-15 0)
(3 1.79666e-15 0)
(3 1.18705e-15 0)
(3 1.82364e-16 0)
(1.58385 -1.25231 0)
(1.59564 -1.26207 0)
(1.59863 -1.27617 0)
(1.59945 -1.28437 0)
(1.6649 -1.26468 0)
(1.80141 -1.19274 0)
(2.28491 -0.748304 0)
(2.99936 -0.0120414 0)
(3 -1.78539e-07 0)
(3 5.08996e-09 0)
(3 2.21567e-09 0)
(3 -6.47253e-12 0)
(3 5.61409e-12 0)
(3 -1.12578e-12 0)
(3 7.25428e-15 0)
(3 -1.06514e-15 0)
(3 2.26202e-15 0)
(3 1.72125e-15 0)
(3 3.52111e-16 0)
(3 8.26576e-16 0)
(1.58395 -1.25906 0)
(1.58787 -1.26739 0)
(1.59231 -1.2739 0)
(1.60022 -1.26749 0)
(1.61515 -1.2483 0)
(1.60835 -1.26198 0)
(1.91915 -1.17354 0)
(3.01212 -0.356616 0)
(3.31062 0.567418 0)
(3 1.0331e-07 0)
(3 -6.25026e-07 0)
(3 2.10794e-08 0)
(3 4.30319e-09 0)
(3 3.22034e-09 0)
(3 2.69922e-10 0)
(3 -4.03222e-11 0)
(3 2.3061e-11 0)
(3 -8.35397e-12 0)
(3 -4.28095e-13 0)
(3 -2.39669e-13 0)
(1.16403 -0.778407 0)
(1.83694 -1.15293 0)
(1.84205 -1.16048 0)
(1.74055 -1.20332 0)
(1.72062 -1.20085 0)
(1.66097 -1.23707 0)
(1.67259 -1.22461 0)
(1.74513 -1.17709 0)
(1.78288 -1.23788 0)
(1.83002 -1.12352 0)
(2.34729 -0.686322 0)
(2.91129 -0.172275 0)
(3.08059 0.0231879 0)
(3.01049 0.00802493 0)
(3.00204 0.00350341 0)
(2.99969 0.00176423 0)
(2.99983 0.000289693 0)
(3 -2.41295e-06 0)
(3 -2.92066e-06 0)
(3 -1.56736e-06 0)
(0.974645 -0.0777463 0)
(1.9333 -0.754058 0)
(2.10913 -0.823515 0)
(2.00329 -0.952238 0)
(1.98001 -0.983962 0)
(1.87098 -1.08445 0)
(1.79107 -1.15098 0)
(1.77612 -1.16193 0)
(1.77946 -1.17868 0)
(1.75749 -1.22248 0)
(1.75953 -1.19729 0)
(1.94785 -1.04703 0)
(2.21507 -0.851973 0)
(2.66933 -0.483369 0)
(3.04771 -0.0643838 0)
(3.02928 0.0132838 0)
(2.99964 0.00213882 0)
(3.0002 0.00134303 0)
(3.00001 0.000300266 0)
(3 1.63741e-05 0)
(1.16387 0.0534754 0)
(1.94951 0.148813 0)
(2.27007 -0.293672 0)
(2.22118 -0.623279 0)
(2.22303 -0.635823 0)
(2.14809 -0.766255 0)
(2.06052 -0.884934 0)
(1.97911 -0.984859 0)
(1.9245 -1.05715 0)
(1.86905 -1.15003 0)
(1.82047 -1.17429 0)
(1.8293 -1.16841 0)
(1.8572 -1.14819 0)
(1.97669 -1.07501 0)
(2.20317 -0.920444 0)
(2.52562 -0.684292 0)
(2.9492 -0.234349 0)
(3.05152 -0.00303272 0)
(3.00399 0.00381827 0)
(3.00085 0.00169769 0)
(0.792076 0.428043 0)
(1.89107 0.14546 0)
(2.11329 0.696264 0)
(2.2993 0.369598 0)
(2.34239 -0.210865 0)
(2.38546 -0.369628 0)
(2.27638 -0.631567 0)
(2.20296 -0.736314 0)
(2.16375 -0.796246 0)
(2.09269 -0.930128 0)
(2.0037 -1.03654 0)
(1.95457 -1.08524 0)
(1.92108 -1.1181 0)
(1.94505 -1.10036 0)
(1.98382 -1.08074 0)
(2.03613 -1.05749 0)
(2.2176 -0.948112 0)
(2.44728 -0.809296 0)
(2.82235 -0.430754 0)
(3.03478 -0.0772643 0)
(0.636177 0.61674 0)
(1.34547 0.568398 0)
(2.13796 1.24156 0)
(2.36159 0.757784 0)
(2.38209 0.625887 0)
(2.45042 0.203329 0)
(2.46336 -0.0562419 0)
(2.39809 -0.301716 0)
(2.35446 -0.477197 0)
(2.31489 -0.626648 0)
(2.23009 -0.78052 0)
(2.16649 -0.880733 0)
(2.10469 -0.956138 0)
(2.07304 -0.981779 0)
(2.04711 -1.01259 0)
(2.05447 -1.03709 0)
(2.08627 -1.02382 0)
(2.12397 -1.01757 0)
(2.22081 -0.979286 0)
(2.45587 -0.849275 0)
(0.837577 0.853498 0)
(1.1661 0.780275 0)
(1.95801 1.17409 0)
(2.75282 0.587336 0)
(2.37033 1.2217 0)
(2.45303 0.752698 0)
(2.52413 0.527017 0)
(2.49568 0.110145 0)
(2.49877 0.00123276 0)
(2.48395 -0.208203 0)
(2.42091 -0.422021 0)
(2.38183 -0.557181 0)
(2.31892 -0.677243 0)
(2.27951 -0.740738 0)
(2.22509 -0.812094 0)
(2.18264 -0.881273 0)
(2.1754 -0.916331 0)
(2.14238 -0.976398 0)
(2.21043 -0.976641 0)
(2.2335 -0.953181 0)
(1.10952 1.0007 0)
(1.3021 0.959636 0)
(1.73631 1.04275 0)
(2.13883 1.27732 0)
(2.54639 1.53206 0)
(2.69442 0.932845 0)
(2.69789 0.546775 0)
(2.60331 0.496278 0)
(2.59404 0.302998 0)
(2.60277 0.105044 0)
(2.56169 -0.112242 0)
(2.55428 -0.255782 0)
(2.49121 -0.434419 0)
(2.45379 -0.539484 0)
(2.39049 -0.644358 0)
(2.33823 -0.701484 0)
(2.30615 -0.741872 0)
(2.28012 -0.790817 0)
(2.29456 -0.809239 0)
(2.29118 -0.870165 0)
(1.36175 1.13899 0)
(1.52215 1.10966 0)
(1.70146 1.18549 0)
(1.69917 1.68317 0)
(2.11937 1.63639 0)
(2.40303 1.3891 0)
(2.73971 0.734446 0)
(2.74016 0.609589 0)
(2.67129 0.290716 0)
(2.68956 0.307632 0)
(2.66926 0.0966911 0)
(2.6713 -0.0521127 0)
(2.62274 -0.225965 0)
(2.58269 -0.328448 0)
(2.54374 -0.375168 0)
(2.49657 -0.421589 0)
(2.48511 -0.413391 0)
(2.46221 -0.469795 0)
(2.42818 -0.564073 0)
(2.42256 -0.627157 0)
(1.51182 1.35268 0)
(1.55046 1.40101 0)
(1.55663 1.56522 0)
(1.64283 1.84283 0)
(1.95126 1.66606 0)
(2.21306 1.54169 0)
(2.45009 1.39587 0)
(2.56405 0.932253 0)
(2.61582 0.928622 0)
(2.64484 0.602121 0)
(2.67441 0.423427 0)
(2.70675 0.298208 0)
(2.69031 0.142661 0)
(2.67772 0.0804185 0)
(2.64755 0.00256717 0)
(2.62798 -0.0571651 0)
(2.63114 -0.122676 0)
(2.59223 -0.275028 0)
(2.55346 -0.434657 0)
(2.56712 -0.433938 0)
(1.5719 1.62664 0)
(1.51834 1.81606 0)
(1.51128 2.00667 0)
(1.69283 1.9642 0)
(1.8922 1.75486 0)
(2.01458 1.79286 0)
(2.24205 1.63685 0)
(2.3836 1.37466 0)
(2.41088 1.34648 0)
(2.51738 1.0459 0)
(2.58758 0.85795 0)
(2.67117 0.731024 0)
(2.68801 0.509553 0)
(2.734 0.439271 0)
(2.72773 0.251521 0)
(2.74982 0.118185 0)
(2.74464 -0.0728496 0)
(2.71646 -0.197505 0)
(2.67692 -0.264343 0)
(2.71617 -0.159902 0)
(1.6694 1.91055 0)
(1.56741 2.1846 0)
(1.70319 2.22813 0)
(1.80753 2.05939 0)
(1.93078 1.82296 0)
(1.99772 1.89833 0)
(2.19993 1.67955 0)
(2.26421 1.586 0)
(2.41519 1.4032 0)
(2.48989 1.2715 0)
(2.57505 1.05166 0)
(2.71398 0.962179 0)
(2.74906 0.670417 0)
(2.84644 0.556538 0)
(2.845 0.294363 0)
(2.85519 0.1388 0)
(2.84257 0.0281534 0)
(2.81595 0.064497 0)
(2.79901 0.106582 0)
(2.77206 0.0831115 0)
(1.85208 2.01323 0)
(1.75315 2.27453 0)
(1.79006 2.28384 0)
(1.97016 2.11791 0)
(2.13558 1.92646 0)
(2.12456 2.05461 0)
(2.33364 1.80175 0)
(2.43949 1.70993 0)
(2.59258 1.34641 0)
(2.62712 1.37337 0)
(2.71449 1.09955 0)
(2.86286 1.02777 0)
(2.88506 0.699437 0)
(2.92789 0.605354 0)
(2.93956 0.464815 0)
(2.92173 0.482825 0)
(2.89333 0.452397 0)
(2.86976 0.514898 0)
(2.86303 0.488924 0)
(2.83886 0.268111 0)
(1.76237 1.84757 0)
(1.95812 2.15128 0)
(1.97732 2.32068 0)
(2.15791 2.21191 0)
(2.44543 2.04335 0)
(2.47893 2.2075 0)
(2.67441 1.86676 0)
(2.70041 1.77553 0)
(2.82201 1.55105 0)
(2.84379 1.47119 0)
(2.8263 1.31698 0)
(2.87524 1.22599 0)
(2.90719 1.03972 0)
(2.89994 1.02813 0)
(2.89543 0.913151 0)
(2.86546 0.929081 0)
(2.85111 0.848205 0)
(2.91463 0.798499 0)
(2.91632 0.648788 0)
(2.97364 0.382692 0)
(1.66483 1.72938 0)
(1.92988 1.88749 0)
(2.04282 2.24999 0)
(2.16077 2.22443 0)
(2.29197 2.1341 0)
(2.35498 2.24605 0)
(2.47416 1.99814 0)
(2.57827 1.99959 0)
(2.68886 2.00872 0)
(2.68806 1.74212 0)
(2.63387 1.69757 0)