/*--------------------------------*- C++ -*----------------------------------*\
  =========                 |
  \\      /  F ield         | OpenFOAM: The Open Source CFD Toolbox
   \\    /   O peration     | Website:  https://openfoam.org
    \\  /    A nd           | Version:  7
     \\/     M anipulation  |
\*---------------------------------------------------------------------------*/
FoamFile
{
    version     2.0;
    format      ascii;
    class       volScalarField;
    location    "9.5";
    object      p;
}
// * * * * * * * * * * * * * * * * * * * * * * * * * * * * * * * * * * * * * //

dimensions      [1 -1 -2 0 0 0 0];

internalField   nonuniform List<scalar> 
3700
(
0.20872
0.266184
0.292686
0.328325
0.317246
0.318381
0.334934
0.356654
0.39784
0.424282
0.44343
0.458058
0.47604
0.486997
0.499858
0.513793
0.510877
0.515844
0.539503
0.538942
0.151862
0.111698
0.104596
0.102461
0.0814584
0.0711297
0.0856335
0.121009
0.151071
0.163905
0.154578
0.149199
0.152836
0.163417
0.182277
0.196568
0.198904
0.202449
0.219797
0.233414
0.151765
0.104988
0.0755493
0.0530255
0.0482155
0.0510347
0.0551216
0.0658541
0.0733358
0.0817685
0.0813132
0.0804847
0.0796746
0.080813
0.0847113
0.0942062
0.106165
0.117733
0.128505
0.136797
0.139941
0.0922643
0.0656149
0.0449212
0.0448358
0.0478896
0.052826
0.0678399
0.0799987
0.0952613
0.112684
0.117942
0.121513
0.121152
0.121189
0.12234
0.127631
0.139678
0.155831
0.184485
0.112362
0.0797392
0.0539404
0.0395064
0.0431648
0.0470829
0.0523283
0.065609
0.0784476
0.0952525
0.119036
0.134954
0.151203
0.161836
0.169544
0.168632
0.16349
0.164899
0.173621
0.214174
0.0882327
0.0668581
0.0422773
0.0377054
0.0439889
0.0527599
0.0602043
0.070531
0.0803608
0.093613
0.115701
0.137636
0.165405
0.190992
0.210774
0.229112
0.238369
0.248398
0.249751
0.275524
0.0706785
0.0532946
0.0352624
0.0400034
0.0545495
0.0716561
0.0825184
0.0974322
0.107282
0.117975
0.123189
0.137062
0.169067
0.205472
0.237255
0.272158
0.305443
0.339883
0.358323
0.400951
0.0540995
0.0424344
0.0341399
0.0446301
0.0620307
0.0830449
0.100327
0.126919
0.152409
0.175226
0.177473
0.188948
0.20104
0.228941
0.265927
0.312197
0.365433
0.424246
0.472158
0.564508
0.0387823
0.0331027
0.0357977
0.0472126
0.0642685
0.0847174
0.103514
0.135866
0.183626
0.22573
0.257824
0.287385
0.314007
0.346501
0.370344
0.402906
0.447954
0.526749
0.603188
0.748659
0.028119
0.0260857
0.0338976
0.0483727
0.0654341
0.0838139
0.0998967
0.130545
0.187278
0.254164
0.315784
0.368396
0.433407
0.488764
0.538122
0.58816
0.635483
0.698921
0.801116
0.954648
0.0227284
0.0216043
0.0301217
0.0518846
0.0743003
0.0985294
0.115117
0.137663
0.186143
0.264943
0.358908
0.442769
0.544341
0.625246
0.716881
0.808591
0.897588
0.973422
1.13881
1.11962
0.0205051
0.0196178
0.0280294
0.059719
0.0984776
0.139015
0.176566
0.236644
0.32148
0.4066
0.504405
0.603255
0.711728
0.809639
0.927644
1.07591
1.22629
1.35417
1.55068
1.49661
0.0198441
0.0190749
0.0316023
0.0835573
0.141352
0.197565
0.275591
0.394924
0.539238
0.691794
0.819656
0.938862
1.05409
1.1611
1.28667
1.45978
1.6611
1.8497
2.10889
2.09164
0.0206325
0.0213415
0.0423631
0.108349
0.165684
0.236204
0.366603
0.539879
0.747373
0.980646
1.16341
1.34109
1.50859
1.67581
1.87827
2.10733
2.33783
2.58488
2.80534
2.99668
0.0240485
0.0264123
0.0512298
0.118069
0.165846
0.282795
0.505412
0.774037
1.10089
1.41366
1.66909
1.90623
2.14001
2.38634
2.69601
2.98501
3.26037
3.51646
3.67259
3.78763
0.0269605
0.0338876
0.0544515
0.124645
0.273575
0.652333
1.05965
1.47779
1.94627
2.32712
2.60628
2.86671
3.13433
3.43487
3.76216
3.96429
4.08304
4.12772
4.03535
3.90958
0.0219936
0.0501013
0.119797
0.330762
0.87201
1.50804
2.07402
2.64364
3.21868
3.57968
3.78174
4.00572
4.21433
4.38794
4.48649
4.41079
4.19125
3.65228
2.78827
1.88428
0.0164846
0.0983575
0.48702
1.24458
2.17451
2.90666
3.52476
4.20679
4.78751
4.82634
4.72643
4.72514
4.68565
4.52593
4.02491
3.07297
2.09756
1.33445
1.01847
0.992931
0.316647
0.91282
2.03168
3.20868
4.20625
4.83718
5.41628
5.88648
5.74736
5.29848
4.86419
4.31776
3.39882
2.32931
1.42627
1.0289
0.989343
0.994918
0.997318
0.999442
2.3117
3.62856
4.85908
5.70911
6.27304
6.44204
6.57887
6.23511
4.54458
3.21459
2.37621
1.57124
1.08516
0.987683
0.993121
0.996394
0.999173
0.999972
1.00002
1.00001
6.94625
6.89953
6.8384
6.93317
7.07206
6.787
5.9814
2.22429
0.667096
1
1
1
1
1
1
1
1
1
1
1
6.90344
6.86428
6.7463
6.69915
6.86514
5.77375
2.64923
1.01966
1
1
1
1
1
1
1
1
1
1
1
1
6.80908
6.85546
6.80583
6.63118
6.24517
3.47738
1.06494
0.998665
1
1
1
1
1
1
1
1
1
1
1
1
6.65901
6.82934
6.83861
6.66285
4.71929
1.43739
0.992789
1.00014
0.999999
1
1
1
1
1
1
1
1
1
1
1
6.50901
6.76033
6.80126
6.17723
2.6255
0.976362
1.00036
0.999994
1
1
1
1
1
1
1
1
1
1
1
1
6.43655
6.71508
6.69697
4.90337
1.46303
1
1
1
1
1
1
1
1
1
1
1
1
1
1
1
6.407
6.75515
6.6805
3.59637
0.989227
1
1
1
1
1
1
1
1
1
1
1
1
1
1
1
6.53949
6.73111
6.10858
2.00884
0.99995
1
1
1
1
1
1
1
1
1
1
1
1
1
1
1
6.95424
6.60167
4.85204
1.22408
1
1
1
1
1
1
1
1
1
1
1
1
1
1
1
1
7.27628
6.40066
3.45141
0.98755
1
1
1
1
1
1
1
1
1
1
1
1
1
1
1
1
7.45948
6.00407
2.27982
1
1
1
1
1
1
1
1
1
1
1
1
1
1
1
1
1
7.52081
5.35436
1.5986
1
1
1
1
1
1
1
1
1
1
1
1
1
1
1
1
1
7.55455
4.73739
1.15709
1
1
1
1
1
1
1
1
1
1
1
1
1
1
1
1
1
7.3436
4.015
1.00649
1
1
1
1
1
1
1
1
1
1
1
1
1
1
1
1
1
7.14629
3.29163
1
1
1
1
1
1
1
1
1
1
1
1
1
1
1
1
1
1
7.05827
2.4952
1
1
1
1
1
1
1
1
1
1
1
1
1
1
1
1
1
1
6.6387
1.84007
1
1
1
1
1
1
1
1
1
1
1
1
1
1
1
1
1
1
6.29744
1.35196
1
1
1
1
1
1
1
1
1
1
1
1
1
1
1
1
1
1
5.75709
1.00539
1
1
1
1
1
1
1
1
1
1
1
1
1
1
1
1
1
1
4.6425
1.00011
1
1
1
1
1
1
1
1
1
1
1
1
1
1
1
1
1
1
4.63585
1.0001
1
1
1
1
1
1
1
1
1
1
1
1
1
1
1
1
1
1
5.75799
1.00578
1
1
1
1
1
1
1
1
1
1
1
1
1
1
1
1
1
1
6.30972
1.3616
1
1
1
1
1
1
1
1
1
1
1
1
1
1
1
1
1
1
6.61782
1.84474
1
1
1
1
1
1
1
1
1
1
1
1
1
1
1
1
1
1
7.05247
2.48199
1
1
1
1
1
1
1
1
1
1
1
1
1
1
1
1
1
1
7.16184
3.27649
1
1
1
1
1
1
1
1
1
1
1
1
1
1
1
1
1
1
7.34137
4.02623
1.01199
1
1
1
1
1
1
1
1
1
1
1
1
1
1
1
1
1
7.5475
4.74697
1.16158
1
1
1
1
1
1
1
1
1
1
1
1
1
1
1
1
1
7.5163
5.35925
1.59943
1
1
1
1
1
1
1
1
1
1
1
1
1
1
1
1
1
7.45719
5.98965
2.2839
1
1
1
1
1
1
1
1
1
1
1
1
1
1
1
1
1
7.28375
6.41223
3.43861
0.987625
1
1
1
1
1
1
1
1
1
1
1
1
1
1
1
1
6.95685
6.59679
4.85237
1.22654
1
1
1
1
1
1
1
1
1
1
1
1
1
1
1
1
6.53163
6.70343
6.0746
2.00676
0.999974
1
1
1
1
1
1
1
1
1
1
1
1
1
1
1
6.41988
6.79004
6.72193
3.58638
0.980704
1
1
1
1
1
1
1
1
1
1
1
1
1
1
1
6.45032
6.72964
6.70546
4.91725
1.48383
1
1
1
1
1
1
1
1
1
1
1
1
1
1
1
6.51701
6.74939
6.78253
6.13881
2.62962
0.976508
1.00035
0.999994
1
1
1
1
1
1
1
1
1
1
1
1
6.65667
6.81273
6.82931
6.67226
4.71403
1.4209
0.993069
1.00013
0.999999
1
1
1
1
1
1
1
1
1
1
1
6.81387
6.85319
6.82037
6.65761
6.23852
3.46353
1.06095
0.998679
1
1
1
1
1
1
1
1
1
1
1
1
6.91816
6.86658
6.75357
6.71281
6.8302
5.77128
2.67342
1.0238
1
1
1
1
1
1
1
1
1
1
1
1
6.9394
6.89364
6.83619
6.93139
7.0696
6.78606
5.98149
2.2363
0.666776
1
1
1
1
1
1
1
1
1
1
1
2.31
3.63043
4.85589
5.70507
6.28194
6.44259
6.57545
6.22894
4.53673
3.20973
2.37358
1.56937
1.08455
0.98758
0.993129
0.996408
0.999181
0.999973
1.00002
1.00001
0.309673
0.891156
2.01595
3.19438
4.20125
4.84647
5.42519
5.8861
5.74776
5.30115
4.86829
4.3214
3.40072
2.33013
1.42702
1.0292
0.98936
0.994922
0.997318
0.999441
0.0246336
0.125851
0.489088
1.22728
2.16734
2.90223
3.52605
4.2127
4.79741
4.83443
4.73458
4.72638
4.68527
4.52386
4.02276
3.07167
2.09761
1.3348
1.01857
0.99293
0.0117969
0.0388983
0.133852
0.35037
0.857932
1.49083
2.06457
2.64059
3.22301
3.58871
3.78878
4.00862
4.21357
4.38485
4.48506
4.40973
4.19064
3.65249
2.78936
1.88527
0.0158224
0.0356613
0.0747429
0.12561
0.280101
0.650165
1.04632
1.46322
1.93552
2.32165
2.60275
2.86286
3.12996
3.4308
3.7578
3.96098
4.08267
4.12937
4.03731
3.91133
0.0163834
0.0287698
0.0607358
0.123263
0.192393
0.296021
0.50988
0.772587
1.09708
1.41334
1.66995
1.90756
2.14119
2.38714
2.69514
2.98346
3.25975
3.51886
3.67522
3.78837
0.0150129
0.0204701
0.0464614
0.110746
0.175864
0.246113
0.374905
0.546625
0.754889
0.986859
1.16878
1.34453
1.51064
1.67651
1.87685
2.1042
2.33564
2.5853
2.80774
2.99864
0.0149449
0.0165127
0.0338247
0.0808298
0.139988
0.20229
0.278438
0.396398
0.539889
0.690712
0.818497
0.937437
1.0525
1.15888
1.28408
1.45814
1.66137
1.85174
2.1105
2.09254
0.0164257
0.0173022
0.0296919
0.0545172
0.0925323
0.14107
0.174922
0.23323
0.315245
0.39989
0.498946
0.599879
0.710807
0.80995
0.929072
1.0771
1.22705
1.35432
1.55078
1.49565
0.0194546
0.0203818
0.0326302
0.048085
0.0681027
0.0989878
0.113052
0.13692
0.186787
0.267826
0.361708
0.445409
0.546765
0.627118
0.717742
0.808549
0.896853
0.972415
1.13826
1.12114
0.0263422
0.0261512
0.036745
0.0472174
0.0605561
0.0824345
0.100691
0.132171
0.189974
0.25674
0.318112
0.370112
0.433703
0.488495
0.536575
0.586193
0.633551
0.698263
0.80118
0.956036
0.038755
0.0339964
0.0358694
0.0454589
0.0605913
0.0826971
0.104645
0.136603
0.185078
0.226403
0.257525
0.286183
0.310704
0.342122
0.366721
0.400694
0.448378
0.528282
0.604826
0.749419
0.0546756
0.0437665
0.034075
0.0427431
0.0582951
0.0803884
0.100825
0.126466
0.151827
0.173895
0.17486
0.185336
0.198835
0.228988
0.267295
0.314121
0.367502
0.425855
0.473117
0.565389
0.070306
0.0556183
0.0363799
0.0398799
0.0507315
0.0687238
0.0825701
0.0960983
0.10606
0.116284
0.123006
0.13884
0.171802
0.207638
0.239116
0.273748
0.306344
0.340825
0.357492
0.399788
0.0854218
0.0693152
0.0459244
0.0381845
0.04215
0.0503034
0.0601878
0.0703368
0.0809374
0.0954816
0.118647
0.140473
0.166988
0.19179
0.211312
0.229386
0.237827
0.246866
0.24807
0.274752
0.106625
0.0805404
0.0584727
0.0405184
0.042013
0.0462035
0.0526837
0.0665225
0.0802725
0.0980699
0.12174
0.136352
0.15114
0.16098
0.168238
0.167631
0.16289
0.16441
0.17425
0.21553
0.134267
0.0927249
0.0681347
0.0455433
0.0441643
0.0474976
0.0535796
0.0690728
0.0819331
0.0976576
0.11389
0.117343
0.120137
0.119911
0.12024
0.122413
0.128545
0.140631
0.156688
0.184844
0.14459
0.101546
0.0764988
0.0542204
0.0483706
0.0513108
0.0555922
0.0665065
0.0745504
0.0823167
0.0804606
0.0795679
0.078874
0.0802036
0.0849645
0.0952169
0.107045
0.118174
0.128354
0.13656
0.148216
0.118495
0.113584
0.0975763
0.107154
0.130608
0.134276
0.135343
0.147112
0.161347
0.174957
0.183257
0.174344
0.160704
0.150266
0.156407
0.176716
0.199781
0.217516
0.208301
0.211169
0.278172
0.31514
0.320399
0.336077
0.384296
0.388394
0.374373
0.399094
0.424932
0.449707
0.46826
0.476334
0.47462
0.47218
0.492217
0.510729
0.521059
0.532468
0.527141
0.561021
0.642054
0.699882
0.782658
0.834374
0.880247
0.893091
0.880648
0.862445
0.870453
0.905406
0.962395
0.973358
0.957756
0.93629
0.937223
0.96001
0.981554
0.977457
0.956218
0.28953
0.410875
0.538256
0.657967
0.766878
0.848747
0.872927
0.886128
0.878636
0.885287
0.909841
0.953259
0.965499
0.95819
0.944612
0.944096
0.95686
0.970113
0.96716
0.956923
0.138037
0.158982
0.240063
0.338477
0.51531
0.692283
0.787519
0.862665
0.895138
0.904518
0.913775
0.931624
0.944863
0.950444
0.952603
0.956147
0.962541
0.960996
0.95695
0.955977
0.193843
0.214769
0.238538
0.236722
0.248414
0.32327
0.517941
0.738404
0.836764
0.906964
0.925315
0.914499
0.921088
0.940666
0.958352
0.964081
0.964146
0.956076
0.951388
0.959008
0.24192
0.263002
0.280115
0.288995
0.279539
0.277057
0.294272
0.395755
0.635135
0.834055
0.887943
0.890849
0.900942
0.928804
0.955617
0.96625
0.964112
0.949945
0.947565
0.960854
0.301908
0.328491
0.349389
0.337848
0.314661
0.308663
0.313772
0.32491
0.377485
0.527448
0.736586
0.852755
0.869311
0.915275
0.947077
0.959516
0.957788
0.946648
0.946515
0.963744
0.384467
0.40675
0.408412
0.392494
0.353676
0.35089
0.358763
0.366057
0.37547
0.386036
0.458736
0.669117
0.818776
0.894567
0.924528
0.952253
0.948603
0.935516
0.943055
0.963683
0.510403
0.495166
0.487759
0.470427
0.423737
0.398344
0.40091
0.400532
0.395635
0.398298
0.40124
0.445251
0.642991
0.821362
0.906189
0.945088
0.931222
0.927
0.948604
0.963573
0.672327
0.605779
0.563937
0.541824
0.486544
0.439132
0.435349
0.430337
0.426848
0.428124
0.423263
0.421987
0.457193
0.636779
0.852114
0.935066
0.904676
0.918543
0.958538
0.962407
0.87354
0.739083
0.65897
0.63331
0.577465
0.512799
0.47779
0.458858
0.444305
0.4494
0.446442
0.443641
0.442496
0.471123
0.621781
0.834339
0.871493
0.92621
0.968974
0.959379
1.29195
0.96756
0.717978
0.685009
0.688187
0.670608
0.616356
0.542071
0.510736
0.496473
0.492985
0.488803
0.485401
0.481827
0.487747
0.568268
0.75212
0.886331
0.934905
0.952346
2.02812
1.54374
1.12108
0.886273
0.835703
0.81954
0.766861
0.663513
0.591987
0.559196
0.537698
0.533102
0.527716
0.508058
0.481883
0.488359
0.531913
0.649091
0.788231
0.911145
2.50072
2.16687
1.74413
1.33694
1.06493
0.921043
0.853038
0.7778
0.70247
0.681625
0.658988
0.624189
0.5881
0.565228
0.54179
0.523038
0.529082
0.538783
0.576825
0.745201
2.3659
2.34711
2.23971
1.93845
1.58092
1.234
1.06026
0.982239
0.883228
0.827703
0.77744
0.721361
0.663695
0.621654
0.591367
0.583146
0.572188
0.557944
0.542942
0.578525
1.68354
2.14607
2.22271
2.19095
2.05966
1.78649
1.47283
1.25302
1.07052
0.944857
0.861378
0.790753
0.758025
0.719966
0.689746
0.67381
0.657206
0.622926
0.571106
0.572657
1.10865
1.44
1.84659
2.11187
2.11134
2.07664
1.93067
1.68725
1.44323
1.21605
1.07731
0.961354
0.90674
0.862838
0.800406
0.733967
0.694554
0.658678
0.628855
0.611023
1.00451
1.04478
1.20519
1.54724
1.86149
2.02053
2.01532
1.97067
1.8394
1.61613
1.39723
1.22213
1.06896
0.977435
0.897662
0.809257
0.764988
0.748271
0.73377
0.694028
1.00009
1.00111
1.01063
1.07714
1.26905
1.57009
1.82915
1.93607
1.9292
1.88636
1.76303
1.58633
1.38216
1.20939
1.09868
1.0066
0.92804
0.882984
0.837346
0.760604
1
1.00001
1.00015
1.0024
1.01895
1.10174
1.29249
1.55411
1.7694
1.85948
1.85273
1.81746
1.72187
1.55048
1.37998
1.2323
1.09818
0.993929
0.923024
0.833805
1
1
1
1.00003
1.00033
1.00405
1.0241
1.10985
1.28725
1.52202
1.69819
1.79019
1.78681
1.7591
1.67894
1.54287
1.38683
1.22926
1.12308
1.00046
1
1
1
1
1
1.00005
1.00046
1.00503
1.02569
1.10697
1.26404
1.48032
1.63263
1.72345
1.72227
1.70456
1.64728
1.53191
1.39869
1.19789
1
1
1
1
1
1
1
1.00007
1.00053
1.00511
1.02533
1.09365
1.23367
1.42667
1.57612
1.65893
1.66203
1.65171
1.61729
1.46557
1
1
1
1
1
1
1
1
1
1.00007
1.00057
1.00415
1.02293
1.07878
1.19841
1.36723
1.51948
1.60055
1.60969
1.58795
1
1
1
1
1
1
1
1
1
1
1.00001
1.00006
1.00054
1.00325
1.01809
1.06471
1.162
1.31414
1.44595
1.55073
1
1
1
1
1
1
1
1
1
1
1
1
1.00001
1.00004
1.00043
1.00258
1.01393
1.05155
1.1365
1.38882
1.61494
2.4633
2.58555
2.08654
1.30979
1.03689
1.00187
1.00005
1
1
1
1
1
1
1
2.34444
2.81488
2.52689
1.54006
1.04804
1.0008
1
1
1
1
1
1
1
1
1
2.92816
2.86794
1.98027
1.15286
1.00525
1.00005
1
1
1
1
1
1
1
1
1
3.24943
2.55663
1.36557
1.01941
1.00019
1
1
1
1
1
1
1
1
1
1
3.3216
1.68393
1.04711
1.0005
1
1
1
1
1
1
1
1
1
1
1
2.0677
1.07352
1.0005
0.999999
1
1
1
1
1
1
1
1
1
1
1
1.10114
1.00055
0.999997
1
1
1
1
1
1
1
1
1
1
1
1
0.998143
0.999864
0.999996
1
1
1
1
1
1
1
1
1
1
1
1
0.999967
1
1
1
1
1
1
1
1
1
1
1
1
1
1
1
1
1
1
1
1
1
1
1
1
1
1
1
1
1
1
1
1
1
1
1
1
1
1
1
1
1
1
1
1
1
1
1
1
1
1
1
1
1
1
1
1
1
1
1
1
1
1
1
1
1
1
1
1
1
1
1
1
1
1
1
1
1
1
1
1
1
1
1
1
1
1
1
1
1
1
1
1
1
1
1
1
1
1
1
1
1
1
1
1
1
1
1
1
1
1
1
1
1
1
1
1
1
1
1
1
1
1
1
1
1
1
1
1
1
1
1
1
1
1
1
1
1
1
1
1
1
1
1
1
1
1
1
1
1
1
1
1
1
1
1
1
1
1
1
1
1
1
1
1
1
1
1
1
1
1
1
1
1
1
1
1
1
1
1
1
1
1
1
1
1
1
1
1
1
1
1
1
1
1
1
1
1
1
1
1
1
1
1
1
1
1
1
1
1
1
1
1
1
1
1
1
1
1
1
1
1
1
1
1
1
1
1
1
1
1
1
1
1
1
1
1
1
1
1
1
1
1
1
1
1
1
1
1
1
1
1
1
1
1
1
1
1
1
1
1
1
1
1
1
1
1
1
1
1
1
1
1
1
1
1
1
1
1
1
1
1
1
1
1
1
1
1
1
1
1
1
1
1
1
1
1
1
1
1
1
1
1
1
1
1
1
1
1
1
1
1
1
1
1
1
1
1
1
1
1
1
1
1
1
1
1
1
1
1
1
1
1
1
1
1
1
1
1
1
1
1
1
1
1
1
1
1
1
1
1
1
1
1
1
1
1
1
1
1
1
1
1
1
1
1
1
1
1
1
1
1
1
1
1
1
1
1
1
1
1
1
1
1
1
1
1
1
1
1
1
1
1
1
1
1
1
1
1
1
1
1
1
1
1
1
1
1
1
1
1
1
1
1
1
1
1
1
1
1
1
1
1
1
1
1
1
1
1
1
1
1
1
1
1
1
1
1
1
1
1
1
1
1
1
1
1
1
1
1
1
1
1
1
1
1
1
1
1
1
1
1
1
1
1
1
1
1
1
1
1
1
1
1
1
1
1
1
1
1
1
1
1
1
1
1
1
1
1
1
1
1
1
1
1
1
1
1
1
1
1
1
1
1
1
1
1
1
1
1
1
1
1
1
1
1
1
1
1
1
1
1
1
1
1
1
1
1
1
1
1
1
1
1
1
1
1
1
1
1
1
1
1
1
1
1
1
1
1
1
1
1
1
1
1
1
1
1
1
1
1
1
1
1
1
1
1
1
1
1
1
1
1
1
1
1
1
1
1
1
1
1
1
1
1
1
1
1
1
1
1
1
1
1
1
1
1
1
1
1
1
1
1
1
1
1
1
1
1
1
1
1
1
1
1
1
1
1
1
1
1
1
1
1
1
1
1
1
1
1
1
1
1
1
1
1
1
1
1
1
1
1
1
1
1
1
1
1
1
1
1
1
1
1
1
1
1
1
1
1
1
1
1
1
1
1
1
1
1
1
1
1
1
1
1
1
1
1
1
1
1
1
1
1
1
1
1
1
1
1
1
1
1
1
1
1
1
1
1
1
1
1
1
1
1
1
1
1
1
1
1
1
1
1
1
1
1
1
1
1
1
1
1
1
1
1
1
1
1
1
1
1
1
1
1
1
1
1
1
1
1
1
1
1
1
1
1
1
1
1
1
1
1
1
1
1
1
1
1
1
1
1
1
1
1
1
1
1
1
1
1
1
1
1
1
1
1
1
1
1
1
1
1
1
1
1
1
1
1
1
1
1
1
1
1
1
1
1
1
1
1
1
1
1
1
1
1
1
1
1
1
1
1
1
1
1
1
1
1
1
1
1
1
1
1
1
1
1
1
1
1
1
1
1
1
1
1
1
1
1
1
1
1
1
1
0.999967
1
1
1
1
1
1
1
1
1
1
1
1
1
1
0.998144
0.999864
0.999996
1
1
1
1
1
1
1
1
1
1
1
1
1.10123
1.00055
0.999997
1
1
1
1
1
1
1
1
1
1
1
1
2.06764
1.07339
1.0005
0.999999
1
1
1
1
1
1
1
1
1
1
1
3.32136
1.68355
1.04707
1.00049
1
1
1
1
1
1
1
1
1
1
1
3.2493
2.55621
1.36553
1.01943
1.00019
1
1
1
1
1
1
1
1
1
1
2.92801
2.86757
1.9801
1.15287
1.00525
1.00005
1
1
1
1
1
1
1
1
1
2.34396
2.81437
2.52679
1.54018
1.04805
1.0008
1
1
1
1
1
1
1
1
1
1.6147
2.46261
2.58563
2.08664
1.3098
1.03692
1.00188
1.00005
1
1
1
1
1
1
1
1.29281
2.0276
2.50001
2.36614
1.68454
1.1084
1.0045
1.00009
1
1
1
1
1
1
1
0.966644
1.54724
2.16939
2.3468
2.14578
1.44039
1.04482
1.00112
1.00001
1
1
1
1
1
1
0.715413
1.11378
1.74368
2.24306
2.22148
1.84629
1.20507
1.01058
1.00015
1
1
1
1
1
1
0.685745
0.890586
1.32659
1.93668
2.19001
2.11148
1.54714
1.0774
1.00242
1.00003
1
1
1
1
1
0.677477
0.843751
1.07116
1.5704
2.05707
2.11114
1.86139
1.26897
1.01888
1.00033
1
1
1
1
1
0.651391
0.817312
0.933351
1.24382
1.78478
2.07594
2.0206
1.56995
1.10152
1.00402
1.00005
1
1
1
1
0.596045
0.753611
0.853073
1.07682
1.47547
1.93147
2.01572
1.82771
1.29156
1.02414
1.00047
1
1
1
1
0.547916
0.659769
0.762652
0.971305
1.25454
1.69318
1.97057
1.93634
1.55467
1.10922
1.00496
1.00007
1
1
1
0.523956
0.593554
0.699179
0.883264
1.07081
1.43698
1.83986
1.92967
1.769
1.28726
1.02574
1.00054
1
1
1
0.499812
0.55596
0.675016
0.832466
0.952297
1.21269
1.61746
1.8863
1.85851
1.5212
1.10702
1.00512
1.00007
1
1
0.491206
0.537521
0.655891
0.770825
0.864449
1.0825
1.40026
1.76477
1.85227
1.69938
1.26387
1.02515
1.00057
1.00001
1
0.486371
0.538383
0.633012
0.711812
0.792288
0.976587
1.21785
1.58718
1.81794
1.79048
1.47991
1.09378
1.00416
1.00006
1
0.478909
0.533179
0.603264
0.656202
0.753769
0.920102
1.06899
1.38038
1.72092
1.78683
1.6327
1.23371
1.02294
1.00054
1.00001
0.47703
0.510915
0.571706
0.614817
0.712365
0.864784
0.977345
1.21092
1.55097
1.75889
1.72427
1.42709
1.07871
1.00325
1.00004
0.485518
0.484025
0.544671
0.585255
0.685444
0.796068
0.891471
1.09824
1.38247
1.67919
1.72299
1.57586
1.19853
1.01811
1.00043
0.569748
0.490582
0.52657
0.579972
0.671965
0.735364
0.807067
1.00164
1.23077
1.54305
1.70499
1.65946
1.36762
1.06477
1.00258
0.752576
0.533779
0.532613
0.570633
0.653955
0.69643
0.772202
0.929152
1.09574
1.38658
1.64718
1.66213
1.51948
1.16218
1.01396
0.88798
0.648365
0.540304
0.557462
0.621899
0.659476
0.747488
0.885844
0.993932
1.22884
1.5312
1.65174
1.60032
1.3141
1.05153
0.937788
0.78555
0.575364
0.544388
0.569665
0.629449
0.734513
0.838993
0.922996
1.12185
1.39796
1.61725
1.60965
1.44591
1.13646
0.949059
0.907766
0.745912
0.579397
0.571814
0.608072
0.697268
0.76073
0.833027
0.999126
1.1975
1.46557
1.58805
1.55077
1.38896
0.87844
0.7355
0.652701
0.636316
0.581683
0.520203
0.489517
0.47654
0.455258
0.449509
0.443298
0.437137
0.437274
0.465182
0.621643
0.838841
0.874311
0.927892
0.971271
0.958844
0.670391
0.602536
0.562342
0.546349
0.491561
0.451674
0.445592
0.438742
0.428093
0.417581
0.413298
0.416312
0.453668
0.628151
0.849804
0.94405
0.910889
0.923455
0.962154
0.964013
0.504857
0.492385
0.490195
0.475473
0.422708
0.392668
0.397791
0.39633
0.396532
0.393169
0.398246
0.446164
0.643537
0.826038
0.911614
0.95312
0.938639
0.931446
0.951062
0.965247
0.384062
0.405317
0.414993
0.3984
0.364133
0.358283
0.365771
0.369765
0.377322
0.388025
0.466787
0.679205
0.816974
0.909288
0.940652
0.960468
0.955083
0.937279
0.942671
0.964669
0.301509
0.331485
0.345934
0.334361
0.311619
0.309442
0.31724
0.32714
0.379323
0.537822
0.742917
0.845206
0.866471
0.918843
0.952847
0.963403
0.959814
0.945008
0.943781
0.962515
0.242822
0.260676
0.285987
0.29204
0.282632
0.279738
0.29532
0.39315
0.634945
0.842181
0.891681
0.885855
0.897256
0.928638
0.960768
0.966741
0.962943
0.945382
0.944195
0.95912
0.194185
0.214852
0.230655
0.235186
0.246723
0.308335
0.500913
0.727555
0.827888
0.912453
0.929935
0.913645
0.918254
0.940641
0.954458
0.959302
0.959501
0.951894
0.94949
0.958335
0.137977
0.161444
0.244166
0.355325
0.507362
0.674324
0.778234
0.856035
0.886294
0.903506
0.919314
0.934219
0.94589
0.949378
0.946097
0.948532
0.954245
0.957643
0.956714
0.958476
0.289909
0.423543
0.556407
0.674747
0.756121
0.845073
0.864218
0.878959
0.873114
0.881663
0.91046
0.95108
0.96209
0.952753
0.93424
0.936073
0.954712
0.972934
0.971264
0.959473
0.566366
0.644543
0.702056
0.787509
0.830445
0.891054
0.883534
0.868117
0.854815
0.86256
0.906274
0.967142
0.978011
0.959323
0.934459
0.93684
0.960583
0.978236
0.972982
0.952027
)
;

boundaryField
{
    inlet
    {
        type            fixedValue;
        value           uniform 1;
    }
    outlet
    {
        type            zeroGradient;
    }
    airfoil
    {
        type            zeroGradient;
    }
    top
    {
        type            symmetryPlane;
    }
    bottom
    {
        type            symmetryPlane;
    }
    defaultFaces
    {
        type            empty;
    }
}


// ************************************************************************* //
