/*--------------------------------*- C++ -*----------------------------------*\
  =========                 |
  \\      /  F ield         | OpenFOAM: The Open Source CFD Toolbox
   \\    /   O peration     | Website:  https://openfoam.org
    \\  /    A nd           | Version:  7
     \\/     M anipulation  |
\*---------------------------------------------------------------------------*/
FoamFile
{
    version     2.0;
    format      ascii;
    class       volScalarField;
    location    "9.5";
    object      rho;
}
// * * * * * * * * * * * * * * * * * * * * * * * * * * * * * * * * * * * * * //

dimensions      [1 -3 0 0 0 0 0];

internalField   nonuniform List<scalar> 
3700
(
0.289969
0.369508
0.406128
0.455483
0.44027
0.442044
0.464885
0.494504
0.55086
0.587245
0.613781
0.634107
0.659041
0.674128
0.691938
0.711297
0.707412
0.714433
0.747224
0.746465
0.211749
0.155896
0.145992
0.142916
0.113773
0.0994729
0.119566
0.16849
0.210151
0.228036
0.215211
0.207842
0.21289
0.227508
0.253659
0.273592
0.277051
0.282143
0.30627
0.325158
0.21157
0.146591
0.105645
0.0742509
0.0675387
0.0714798
0.0771874
0.0921813
0.102646
0.114442
0.11383
0.112694
0.111586
0.113188
0.118636
0.131898
0.148606
0.164768
0.179824
0.191427
0.195113
0.128876
0.0918071
0.0629459
0.0628323
0.067104
0.073996
0.0949605
0.11195
0.133274
0.157621
0.164987
0.170003
0.16954
0.16964
0.171271
0.178665
0.195476
0.21803
0.258034
0.156832
0.111481
0.0755415
0.0553926
0.0605093
0.0659905
0.0733185
0.0918718
0.109808
0.133265
0.16648
0.188729
0.21142
0.226283
0.237084
0.235857
0.228743
0.230742
0.242931
0.299503
0.123315
0.0935594
0.0592613
0.0528784
0.0616696
0.0739502
0.0843599
0.0987763
0.112501
0.131
0.161853
0.192485
0.231251
0.266962
0.294598
0.320222
0.333175
0.347212
0.349139
0.385127
0.0988848
0.0746472
0.049462
0.0560961
0.0764434
0.100361
0.115553
0.136398
0.150166
0.16508
0.172342
0.191711
0.236392
0.287203
0.331555
0.380253
0.426686
0.474748
0.500493
0.559908
0.0757746
0.0594873
0.0478951
0.0625609
0.0868652
0.116215
0.140354
0.17749
0.213105
0.24497
0.24814
0.264168
0.281065
0.320015
0.371609
0.436124
0.510326
0.592302
0.659103
0.787724
0.0543925
0.0464494
0.0502142
0.0661598
0.0899565
0.118501
0.144752
0.189912
0.25656
0.315324
0.360107
0.401374
0.438511
0.483853
0.51713
0.562561
0.625358
0.735114
0.841576
1.04405
0.0394834
0.0366347
0.0475501
0.0677574
0.0915342
0.117189
0.139671
0.182463
0.261598
0.354898
0.440813
0.514179
0.604769
0.681947
0.750727
0.820457
0.886391
0.974747
1.11701
1.33055
0.0319364
0.0303577
0.042248
0.0726265
0.103891
0.137715
0.160888
0.192354
0.259988
0.369894
0.50088
0.617749
0.759211
0.87192
0.999502
1.12716
1.25101
1.35649
1.58642
1.55981
0.0288204
0.0275705
0.0392963
0.0835485
0.137653
0.194233
0.246639
0.330355
0.448551
0.567116
0.703414
0.841128
0.992203
1.12854
1.29274
1.4989
1.70791
1.8856
2.15846
2.08342
0.0278933
0.026802
0.044259
0.116832
0.197485
0.275869
0.384611
0.550772
0.75165
0.963885
1.14186
1.30775
1.46814
1.61707
1.79171
2.03229
2.31185
2.57359
2.93319
2.90925
0.0289968
0.0299594
0.0592904
0.151442
0.231439
0.329707
0.511279
0.752428
1.04103
1.36539
1.61961
1.86667
2.09955
2.33192
2.61303
2.93091
3.25066
3.59335
3.8992
4.16478
0.0337821
0.0370625
0.071701
0.165036
0.231713
0.394602
0.704404
1.07804
1.53235
1.96706
2.32204
2.65148
2.9761
3.31785
3.74724
4.14782
4.52951
4.88471
5.10181
5.26191
0.0378569
0.047544
0.0762547
0.174268
0.381702
0.908321
1.47441
2.05529
2.70586
3.23474
3.62231
3.98364
4.35468
4.77111
5.22464
5.50473
5.66973
5.73214
5.60526
5.43298
0.0309039
0.0702421
0.167432
0.461165
1.21334
2.09652
2.88225
3.67267
4.47056
4.97128
5.25133
5.56152
5.85024
6.09101
6.22789
6.12348
5.82163
5.07872
3.88355
2.63074
0.0231935
0.1377
0.67877
1.73081
3.02088
4.03656
4.89382
5.83941
6.64451
6.6979
6.55922
6.55733
6.50261
6.28245
5.59181
4.27561
2.92605
1.86632
1.42578
1.39014
0.442818
1.27121
2.82341
4.45474
5.83701
6.71136
7.51378
8.16595
7.97327
7.35118
6.74948
5.9944
4.72399
3.24578
1.99386
1.44033
1.38513
1.39291
1.39626
1.39923
3.21403
5.03785
6.74127
7.91759
8.69848
8.93351
9.12356
8.64909
6.30914
4.4662
3.30746
2.19451
1.51875
1.38282
1.39041
1.39497
1.39885
1.39997
1.40003
1.40002
9.6287
9.56415
9.4798
9.61125
9.80438
9.41239
8.30134
3.10065
0.935256
1.40001
1.40001
1.40001
1.40001
1.40001
1.40001
1.40001
1.40001
1.40001
1.40001
1.40001
9.56971
9.51564
9.35274
9.2883
9.51943
8.01362
3.6904
1.42731
1.40001
1.40001
1.40001
1.40001
1.40001
1.40001
1.40001
1.40001
1.40001
1.40001
1.40001
1.40001
9.43939
9.5036
9.43532
9.19496
8.66361
4.83676
1.49017
1.39815
1.40001
1.40001
1.40001
1.40001
1.40001
1.40001
1.40001
1.40001
1.40001
1.40001
1.40001
1.40001
9.23182
9.4675
9.48082
9.23989
6.55556
2.0076
1.38996
1.4002
1.4
1.40001
1.40001
1.40001
1.40001
1.40001
1.40001
1.40001
1.40001
1.40001
1.40001
1.40001
9.02427
9.37195
9.42926
8.56948
3.65575
1.36702
1.4005
1.4
1.40001
1.40001
1.40001
1.40001
1.40001
1.40001
1.40001
1.40001
1.40001
1.40001
1.40001
1.40001
8.92393
9.30931
9.2849
6.80804
2.04264
1.40001
1.40001
1.40001
1.40001
1.40001
1.40001
1.40001
1.40001
1.40001
1.40001
1.40001
1.40001
1.40001
1.40001
1.40001
8.88299
9.36469
9.26225
4.99947
1.38488
1.40001
1.40001
1.40001
1.40001
1.40001
1.40001
1.40001
1.40001
1.40001
1.40001
1.40001
1.40001
1.40001
1.40001
1.40001
9.0661
9.33192
8.47369
2.79958
1.39997
1.40001
1.40001
1.40001
1.40001
1.40001
1.40001
1.40001
1.40001
1.40001
1.40001
1.40001
1.40001
1.40001
1.40001
1.40001
9.63952
9.15412
6.7378
1.71098
1.4
1.40001
1.40001
1.40001
1.40001
1.40001
1.40001
1.40001
1.40001
1.40001
1.40001
1.40001
1.40001
1.40001
1.40001
1.40001
10.0846
8.87735
4.79951
1.38262
1.40001
1.40001
1.40001
1.40001
1.40001
1.40001
1.40001
1.40001
1.40001
1.40001
1.40001
1.40001
1.40001
1.40001
1.40001
1.40001
10.3376
8.3305
3.17588
1.40001
1.40001
1.40001
1.40001
1.40001
1.40001
1.40001
1.40001
1.40001
1.40001
1.40001
1.40001
1.40001
1.40001
1.40001
1.40001
1.40001
10.422
7.43311
2.23104
1.40001
1.40001
1.40001
1.40001
1.40001
1.40001
1.40001
1.40001
1.40001
1.40001
1.40001
1.40001
1.40001
1.40001
1.40001
1.40001
1.40001
10.4683
6.58009
1.61818
1.40001
1.40001
1.40001
1.40001
1.40001
1.40001
1.40001
1.40001
1.40001
1.40001
1.40001
1.40001
1.40001
1.40001
1.40001
1.40001
1.40001
10.1759
5.57979
1.40901
1.40001
1.40001
1.40001
1.40001
1.40001
1.40001
1.40001
1.40001
1.40001
1.40001
1.40001
1.40001
1.40001
1.40001
1.40001
1.40001
1.40001
9.9047
4.57698
1.40001
1.40001
1.40001
1.40001
1.40001
1.40001
1.40001
1.40001
1.40001
1.40001
1.40001
1.40001
1.40001
1.40001
1.40001
1.40001
1.40001
1.40001
9.78504
3.47365
1.40001
1.40001
1.40001
1.40001
1.40001
1.40001
1.40001
1.40001
1.40001
1.40001
1.40001
1.40001
1.40001
1.40001
1.40001
1.40001
1.40001
1.40001
9.20727
2.56542
1.40001
1.40001
1.40001
1.40001
1.40001
1.40001
1.40001
1.40001
1.40001
1.40001
1.40001
1.40001
1.40001
1.40001
1.40001
1.40001
1.40001
1.40001
8.73717
1.88844
1.40001
1.40001
1.40001
1.40001
1.40001
1.40001
1.40001
1.40001
1.40001
1.40001
1.40001
1.40001
1.40001
1.40001
1.40001
1.40001
1.40001
1.40001
7.99055
1.40749
1.40001
1.40001
1.40001
1.40001
1.40001
1.40001
1.40001
1.40001
1.40001
1.40001
1.40001
1.40001
1.40001
1.40001
1.40001
1.40001
1.40001
1.40001
6.44724
1.40016
1.40001
1.40001
1.40001
1.40001
1.40001
1.40001
1.40001
1.40001
1.40001
1.40001
1.40001
1.40001
1.40001
1.40001
1.40001
1.40001
1.40001
1.40001
6.4381
1.40014
1.40001
1.40001
1.40001
1.40001
1.40001
1.40001
1.40001
1.40001
1.40001
1.40001
1.40001
1.40001
1.40001
1.40001
1.40001
1.40001
1.40001
1.40001
7.99182
1.40802
1.40001
1.40001
1.40001
1.40001
1.40001
1.40001
1.40001
1.40001
1.40001
1.40001
1.40001
1.40001
1.40001
1.40001
1.40001
1.40001
1.40001
1.40001
8.75389
1.90179
1.40001
1.40001
1.40001
1.40001
1.40001
1.40001
1.40001
1.40001
1.40001
1.40001
1.40001
1.40001
1.40001
1.40001
1.40001
1.40001
1.40001
1.40001
9.17828
2.57189
1.40001
1.40001
1.40001
1.40001
1.40001
1.40001
1.40001
1.40001
1.40001
1.40001
1.40001
1.40001
1.40001
1.40001
1.40001
1.40001
1.40001
1.40001
9.77715
3.45539
1.40001
1.40001
1.40001
1.40001
1.40001
1.40001
1.40001
1.40001
1.40001
1.40001
1.40001
1.40001
1.40001
1.40001
1.40001
1.40001
1.40001
1.40001
9.92641
4.55606
1.40001
1.40001
1.40001
1.40001
1.40001
1.40001
1.40001
1.40001
1.40001
1.40001
1.40001
1.40001
1.40001
1.40001
1.40001
1.40001
1.40001
1.40001
10.1729
5.59524
1.41666
1.40001
1.40001
1.40001
1.40001
1.40001
1.40001
1.40001
1.40001
1.40001
1.40001
1.40001
1.40001
1.40001
1.40001
1.40001
1.40001
1.40001
10.4584
6.59324
1.62441
1.40001
1.40001
1.40001
1.40001
1.40001
1.40001
1.40001
1.40001
1.40001
1.40001
1.40001
1.40001
1.40001
1.40001
1.40001
1.40001
1.40001
10.4156
7.43982
2.23217
1.40001
1.40001
1.40001
1.40001
1.40001
1.40001
1.40001
1.40001
1.40001
1.40001
1.40001
1.40001
1.40001
1.40001
1.40001
1.40001
1.40001
10.3344
8.31058
3.18156
1.40001
1.40001
1.40001
1.40001
1.40001
1.40001
1.40001
1.40001
1.40001
1.40001
1.40001
1.40001
1.40001
1.40001
1.40001
1.40001
1.40001
10.0949
8.89335
4.78177
1.38273
1.40001
1.40001
1.40001
1.40001
1.40001
1.40001
1.40001
1.40001
1.40001
1.40001
1.40001
1.40001
1.40001
1.40001
1.40001
1.40001
9.64317
9.14743
6.73828
1.7144
1.4
1.40001
1.40001
1.40001
1.40001
1.40001
1.40001
1.40001
1.40001
1.40001
1.40001
1.40001
1.40001
1.40001
1.40001
1.40001
9.05534
9.29383
8.42685
2.7967
1.39999
1.40001
1.40001
1.40001
1.40001
1.40001
1.40001
1.40001
1.40001
1.40001
1.40001
1.40001
1.40001
1.40001
1.40001
1.40001
8.90083
9.41289
9.31955
4.98583
1.37304
1.40001
1.40001
1.40001
1.40001
1.40001
1.40001
1.40001
1.40001
1.40001
1.40001
1.40001
1.40001
1.40001
1.40001
1.40001
8.94296
9.32939
9.29656
6.82715
2.07148
1.40001
1.40001
1.40001
1.40001
1.40001
1.40001
1.40001
1.40001
1.40001
1.40001
1.40001
1.40001
1.40001
1.40001
1.40001
9.03526
9.35676
9.40322
8.5161
3.66137
1.36722
1.4005
1.4
1.40001
1.40001
1.40001
1.40001
1.40001
1.40001
1.40001
1.40001
1.40001
1.40001
1.40001
1.40001
9.22853
9.44447
9.46793
9.25296
6.54843
1.98471
1.39035
1.40019
1.4
1.40001
1.40001
1.40001
1.40001
1.40001
1.40001
1.40001
1.40001
1.40001
1.40001
1.40001
9.446
9.50047
9.45544
9.2316
8.65473
4.8178
1.48463
1.39817
1.40001
1.40001
1.40001
1.40001
1.40001
1.40001
1.40001
1.40001
1.40001
1.40001
1.40001
1.40001
9.59014
9.51887
9.36285
9.30727
9.4712
8.01011
3.72386
1.43307
1.40001
1.40001
1.40001
1.40001
1.40001
1.40001
1.40001
1.40001
1.40001
1.40001
1.40001
1.40001
9.61929
9.55608
9.47681
9.60882
9.80094
9.41093
8.30129
3.11728
0.934822
1.40001
1.40001
1.40001
1.40001
1.40001
1.40001
1.40001
1.40001
1.40001
1.40001
1.40001
3.21169
5.04047
6.7369
7.91204
8.71076
8.9342
9.11874
8.64049
6.29833
4.45952
3.30385
2.19192
1.5179
1.38268
1.39042
1.39499
1.39886
1.39997
1.40003
1.40002
0.43305
1.24106
2.80156
4.43494
5.83008
6.7242
7.52599
8.16542
7.97384
7.35491
6.75518
5.99946
4.7266
3.24688
1.99489
1.44074
1.38516
1.39292
1.39626
1.39922
0.0346741
0.176069
0.681597
1.70679
3.01092
4.0304
4.89554
5.84758
6.65824
6.70913
6.57053
6.55906
6.50208
6.27956
5.5888
4.27379
2.92612
1.86681
1.42593
1.39014
0.016597
0.054574
0.187092
0.48847
1.19381
2.07266
2.86916
3.66843
4.47658
4.98382
5.26112
5.56556
5.84918
6.08671
6.2259
6.12201
5.82079
5.07902
3.88506
2.63212
0.0222245
0.0500166
0.104623
0.175605
0.390835
0.905354
1.45593
2.03509
2.69097
3.22721
3.61746
3.97832
4.34862
4.76544
5.21859
5.50016
5.66923
5.73443
5.60797
5.43539
0.0230186
0.0403507
0.0850089
0.172268
0.268679
0.413012
0.710637
1.07604
1.52709
1.96665
2.32326
2.65332
2.9777
3.31891
3.74601
4.14567
4.52868
4.88806
5.10544
5.26293
0.0211138
0.0287233
0.0650324
0.154769
0.245602
0.343497
0.522838
0.761825
1.05151
1.37405
1.62709
1.87144
2.10238
2.33287
2.61105
2.92659
3.24765
3.59395
3.90252
4.16749
0.0210242
0.0232018
0.0473626
0.113015
0.195557
0.282434
0.38857
0.552833
0.752571
0.962397
1.14025
1.30576
1.46592
1.61398
1.78812
2.03003
2.31223
2.57642
2.93542
2.9105
0.0231035
0.0243206
0.0416148
0.0762771
0.129327
0.197071
0.244334
0.325598
0.439864
0.557771
0.695815
0.836429
0.990916
1.12897
1.29472
1.50057
1.70897
1.88581
2.15858
2.08208
0.0273518
0.0286441
0.0457547
0.0673158
0.0952199
0.13833
0.157994
0.19131
0.260879
0.373902
0.50477
0.621417
0.762581
0.874526
1.00071
1.12711
1.24999
1.35509
1.58565
1.56192
0.0370018
0.0367293
0.0515325
0.0661401
0.0847192
0.115249
0.140773
0.184724
0.265353
0.358486
0.444055
0.516571
0.605188
0.681582
0.748582
0.817726
0.883704
0.973831
1.11709
1.33247
0.0543672
0.0477037
0.0503115
0.0637071
0.0848224
0.115676
0.146326
0.19094
0.258588
0.316266
0.359694
0.399705
0.433917
0.477765
0.512097
0.55949
0.625947
0.737239
0.84385
1.0451
0.0766027
0.0613559
0.0478005
0.0599224
0.0816507
0.112506
0.14105
0.176862
0.212298
0.243117
0.244498
0.25913
0.27799
0.320081
0.373515
0.4388
0.513201
0.594538
0.660436
0.788951
0.0983978
0.0779022
0.0510208
0.0559241
0.0711117
0.0962645
0.115625
0.134534
0.148454
0.16271
0.172079
0.19419
0.240208
0.290223
0.334146
0.382464
0.427937
0.47606
0.499336
0.558292
0.119427
0.0969946
0.0643545
0.0535492
0.059099
0.0705124
0.0843327
0.0984982
0.113301
0.133606
0.16596
0.196441
0.233458
0.268074
0.295345
0.320602
0.332418
0.345077
0.3468
0.384057
0.148856
0.112592
0.0818637
0.0568065
0.0589007
0.0647616
0.073813
0.0931444
0.112351
0.137193
0.170251
0.190677
0.211331
0.225087
0.23526
0.234459
0.227907
0.23006
0.243809
0.301394
0.187226
0.129511
0.0953169
0.063813
0.0618929
0.0665546
0.0750457
0.0966779
0.114646
0.136615
0.159303
0.164149
0.168082
0.167809
0.168315
0.171371
0.179938
0.196804
0.219226
0.258535
0.201604
0.141798
0.106966
0.075917
0.0677529
0.0718626
0.0778416
0.0930893
0.104339
0.115207
0.11264
0.111415
0.110468
0.112336
0.11899
0.133307
0.149832
0.165384
0.179615
0.191097
0.206682
0.165315
0.158468
0.13621
0.149359
0.181752
0.186877
0.188543
0.204916
0.224499
0.243242
0.254769
0.242475
0.223748
0.209556
0.218163
0.246386
0.278393
0.303091
0.290384
0.293324
0.385942
0.437237
0.444667
0.466337
0.532836
0.538473
0.519067
0.552978
0.588139
0.622193
0.6479
0.659178
0.657055
0.654086
0.681915
0.707435
0.721711
0.737542
0.730256
0.777261
0.889762
0.970081
1.08503
1.15702
1.22077
1.23871
1.22177
1.19694
1.2082
1.25672
1.33578
1.35105
1.3296
1.30001
1.30139
1.33301
1.36292
1.3573
1.32803
0.403011
0.571629
0.748305
0.914549
1.0655
1.17881
1.21224
1.23054
1.22024
1.22963
1.26377
1.32398
1.34088
1.33075
1.31198
1.31134
1.32907
1.34748
1.3434
1.32929
0.1932
0.222454
0.335494
0.47254
0.718436
0.964234
1.09625
1.2002
1.24498
1.25802
1.2709
1.2956
1.31376
1.32133
1.32426
1.32918
1.33806
1.33588
1.3302
1.3288
0.27115
0.3004
0.333609
0.331106
0.347403
0.451704
0.722686
1.0292
1.16553
1.26289
1.2884
1.27328
1.28223
1.30924
1.3337
1.34161
1.34165
1.33035
1.32373
1.33416
0.33824
0.367689
0.391622
0.404046
0.390919
0.387449
0.411428
0.552788
0.885802
1.16231
1.23727
1.24124
1.25516
1.29375
1.33094
1.34568
1.34265
1.32287
1.31948
1.33781
0.421928
0.459044
0.488219
0.472157
0.439846
0.431493
0.438624
0.454156
0.527416
0.736157
1.02709
1.18863
1.21163
1.27545
1.31961
1.33689
1.33445
1.31892
1.3187
1.34257
0.537026
0.568129
0.570468
0.548319
0.494218
0.490341
0.501326
0.51152
0.524658
0.539392
0.64064
0.93341
1.14158
1.24694
1.28856
1.32708
1.32201
1.30381
1.31428
1.34292
0.712448
0.691297
0.680996
0.656865
0.59181
0.556436
0.560056
0.559579
0.552802
0.556543
0.560654
0.621987
0.897252
1.14538
1.26328
1.31733
1.29807
1.2922
1.32222
1.34303
0.937857
0.845262
0.787028
0.756252
0.679277
0.613232
0.60803
0.60113
0.596331
0.598139
0.591391
0.589648
0.638735
0.888788
1.1883
1.30362
1.26137
1.28064
1.33623
1.34161
1.21769
1.03067
0.919259
0.883599
0.805892
0.715846
0.667139
0.640869
0.620691
0.627825
0.623734
0.619871
0.618319
0.658258
0.868073
1.16381
1.21545
1.2915
1.35094
1.33761
1.79904
1.34841
1.00143
0.955638
0.960102
0.93565
0.860152
0.756802
0.713271
0.693475
0.688663
0.682883
0.678192
0.673294
0.681622
0.79378
1.04968
1.23641
1.30401
1.32824
2.82197
2.14937
1.5621
1.23573
1.16556
1.14313
1.06987
0.926056
0.826537
0.780962
0.751084
0.744735
0.737291
0.709986
0.673563
0.682644
0.743392
0.906673
1.10048
1.27152
3.47986
3.01595
2.42856
1.86275
1.48468
1.28469
1.19012
1.08539
0.98055
0.951625
0.920195
0.871806
0.821608
0.789822
0.757234
0.731153
0.739651
0.753288
0.806381
1.04099
3.29619
3.26809
3.11871
2.69985
2.20282
1.72053
1.47889
1.37036
1.23259
1.15539
1.0855
1.00747
0.9272
0.868678
0.826529
0.815173
0.799991
0.780213
0.759371
0.809082
2.35108
2.99322
3.098
3.05262
2.86994
2.48992
2.05362
1.74786
1.4939
1.31901
1.20283
1.10452
1.05897
1.00599
0.963949
0.941833
0.918776
0.871074
0.798819
0.801141
1.55145
2.01307
2.57868
2.94676
2.94447
2.89528
2.69205
2.35322
2.01358
1.69736
1.50418
1.34271
1.26668
1.20557
1.11863
1.02608
0.971205
0.92122
0.879662
0.854897
1.40629
1.46247
1.68617
2.16281
2.60006
2.82057
2.81218
2.74936
2.56645
2.25549
1.95064
1.70675
1.49336
1.36586
1.2547
1.13148
1.0698
1.04653
1.02635
0.971004
1.40013
1.40156
1.41484
1.50764
1.7753
2.19486
2.55546
2.70374
2.69336
2.63327
2.46133
2.2151
1.93063
1.68985
1.53555
1.40719
1.29766
1.23487
1.17126
1.06426
1.40001
1.40002
1.40022
1.40335
1.42645
1.54196
1.80803
2.17275
2.47254
2.59764
2.58761
2.53824
2.40493
2.16601
1.92838
1.72249
1.53548
1.39009
1.29121
1.16676
1.40001
1.40001
1.40001
1.40004
1.40046
1.40566
1.43364
1.55328
1.80075
2.1281
2.37347
2.50147
2.49629
2.4576
2.34579
2.15606
1.93852
1.71881
1.57075
1.39969
1.40001
1.40001
1.40001
1.40001
1.40001
1.40007
1.40065
1.40703
1.43585
1.54926
1.76837
2.07
2.2822
2.40868
2.40671
2.38199
2.30211
2.14122
1.9555
1.67541
1.40001
1.40001
1.40001
1.40001
1.40001
1.40001
1.40001
1.4001
1.40075
1.40713
1.43536
1.53069
1.72602
1.99519
2.20348
2.31885
2.32296
2.30855
2.26055
2.04896
1.40001
1.40001
1.40001
1.40001
1.40001
1.40001
1.40001
1.40001
1.40001
1.4001
1.4008
1.4058
1.432
1.50994
1.67683
1.91229
2.12453
2.23752
2.25012
2.2198
1.40001
1.40001
1.40001
1.40001
1.40001
1.40001
1.40001
1.40001
1.40001
1.40001
1.40001
1.40008
1.40076
1.40455
1.42524
1.4903
1.62604
1.83824
2.02203
2.16805
1.40001
1.40001
1.40001
1.40001
1.40001
1.40001
1.40001
1.40001
1.40001
1.40001
1.40001
1.40001
1.40001
1.40007
1.4006
1.4036
1.41944
1.47194
1.59045
1.94231
2.24755
3.42627
3.59786
2.90907
1.83112
1.4514
1.40262
1.40007
1.40001
1.40001
1.40001
1.40001
1.40001
1.40001
1.40001
3.26033
3.91491
3.51943
2.15142
1.46694
1.40112
1.40001
1.4
1.40001
1.40001
1.40001
1.40001
1.40001
1.40001
1.40001
4.07077
3.98976
2.76207
1.61281
1.40732
1.40008
1.40001
1.40001
1.40001
1.40001
1.40001
1.40001
1.40001
1.40001
1.40001
4.51676
3.56086
1.90862
1.42705
1.40027
1.40001
1.40001
1.40001
1.40001
1.40001
1.40001
1.40001
1.40001
1.40001
1.40001
4.62018
2.35083
1.4656
1.4007
1.40001
1.40001
1.40001
1.40001
1.40001
1.40001
1.40001
1.40001
1.40001
1.40001
1.40001
2.88342
1.50235
1.40071
1.4
1.4
1.40001
1.40001
1.40001
1.40001
1.40001
1.40001
1.40001
1.40001
1.40001
1.40001
1.54096
1.40078
1.4
1.4
1.40001
1.40001
1.40001
1.40001
1.40001
1.40001
1.40001
1.40001
1.40001
1.40001
1.40001
1.39741
1.39981
1.4
1.40001
1.40001
1.40001
1.40001
1.40001
1.40001
1.40001
1.40001
1.40001
1.40001
1.40001
1.40001
1.39996
1.40001
1.40001
1.40001
1.40001
1.40001
1.40001
1.40001
1.40001
1.40001
1.40001
1.40001
1.40001
1.40001
1.40001
1.40001
1.40001
1.40001
1.40001
1.40001
1.40001
1.40001
1.40001
1.40001
1.40001
1.40001
1.40001
1.40001
1.40001
1.40001
1.40001
1.40001
1.40001
1.40001
1.40001
1.40001
1.40001
1.40001
1.40001
1.40001
1.40001
1.40001
1.40001
1.40001
1.40001
1.40001
1.40001
1.40001
1.40001
1.40001
1.40001
1.40001
1.40001
1.40001
1.40001
1.40001
1.40001
1.40001
1.40001
1.40001
1.40001
1.40001
1.40001
1.40001
1.40001
1.40001
1.40001
1.40001
1.40001
1.40001
1.40001
1.40001
1.40001
1.40001
1.40001
1.40001
1.40001
1.40001
1.40001
1.40001
1.40001
1.40001
1.40001
1.40001
1.40001
1.40001
1.40001
1.40001
1.40001
1.40001
1.40001
1.40001
1.40001
1.40001
1.40001
1.40001
1.40001
1.40001
1.40001
1.40001
1.40001
1.40001
1.40001
1.40001
1.40001
1.40001
1.40001
1.40001
1.40001
1.40001
1.40001
1.40001
1.40001
1.40001
1.40001
1.40001
1.40001
1.40001
1.40001
1.40001
1.40001
1.40001
1.40001
1.40001
1.40001
1.40001
1.40001
1.40001
1.40001
1.40001
1.40001
1.40001
1.40001
1.40001
1.40001
1.40001
1.40001
1.40001
1.40001
1.40001
1.40001
1.40001
1.40001
1.40001
1.40001
1.40001
1.40001
1.40001
1.40001
1.40001
1.40001
1.40001
1.40001
1.40001
1.40001
1.40001
1.40001
1.40001
1.40001
1.40001
1.40001
1.40001
1.40001
1.40001
1.40001
1.40001
1.40001
1.40001
1.40001
1.40001
1.40001
1.40001
1.40001
1.40001
1.40001
1.40001
1.40001
1.40001
1.40001
1.40001
1.40001
1.40001
1.40001
1.40001
1.40001
1.40001
1.40001
1.40001
1.40001
1.40001
1.40001
1.40001
1.40001
1.40001
1.40001
1.40001
1.40001
1.40001
1.40001
1.40001
1.40001
1.40001
1.40001
1.40001
1.40001
1.40001
1.40001
1.40001
1.40001
1.40001
1.40001
1.40001
1.40001
1.40001
1.40001
1.40001
1.40001
1.40001
1.40001
1.40001
1.40001
1.40001
1.40001
1.40001
1.40001
1.40001
1.40001
1.40001
1.40001
1.40001
1.40001
1.40001
1.40001
1.40001
1.40001
1.40001
1.40001
1.40001
1.40001
1.40001
1.40001
1.40001
1.40001
1.40001
1.40001
1.40001
1.40001
1.40001
1.40001
1.40001
1.40001
1.40001
1.40001
1.40001
1.40001
1.40001
1.40001
1.40001
1.40001
1.40001
1.40001
1.40001
1.40001
1.40001
1.40001
1.40001
1.40001
1.40001
1.40001
1.40001
1.40001
1.40001
1.40001
1.40001
1.40001
1.40001
1.40001
1.40001
1.40001
1.40001
1.40001
1.40001
1.40001
1.40001
1.40001
1.40001
1.40001
1.40001
1.40001
1.40001
1.40001
1.40001
1.40001
1.40001
1.40001
1.40001
1.40001
1.40001
1.40001
1.40001
1.40001
1.40001
1.40001
1.40001
1.40001
1.40001
1.40001
1.40001
1.40001
1.40001
1.40001
1.40001
1.40001
1.40001
1.40001
1.40001
1.40001
1.40001
1.40001
1.40001
1.40001
1.40001
1.40001
1.40001
1.40001
1.40001
1.40001
1.40001
1.40001
1.40001
1.40001
1.40001
1.40001
1.40001
1.40001
1.40001
1.40001
1.40001
1.40001
1.40001
1.40001
1.40001
1.40001
1.40001
1.40001
1.40001
1.40001
1.40001
1.40001
1.40001
1.40001
1.40001
1.40001
1.40001
1.40001
1.40001
1.40001
1.40001
1.40001
1.40001
1.40001
1.40001
1.40001
1.40001
1.40001
1.40001
1.40001
1.40001
1.40001
1.40001
1.40001
1.40001
1.40001
1.40001
1.40001
1.40001
1.40001
1.40001
1.40001
1.40001
1.40001
1.40001
1.40001
1.40001
1.40001
1.40001
1.40001
1.40001
1.40001
1.40001
1.40001
1.40001
1.40001
1.40001
1.40001
1.40001
1.40001
1.40001
1.40001
1.40001
1.40001
1.40001
1.40001
1.40001
1.40001
1.40001
1.40001
1.40001
1.40001
1.40001
1.40001
1.40001
1.40001
1.40001
1.40001
1.40001
1.40001
1.40001
1.40001
1.40001
1.40001
1.40001
1.40001
1.40001
1.40001
1.40001
1.40001
1.40001
1.40001
1.40001
1.40001
1.40001
1.40001
1.40001
1.40001
1.40001
1.40001
1.40001
1.40001
1.40001
1.40001
1.40001
1.40001
1.40001
1.40001
1.40001
1.40001
1.40001
1.40001
1.40001
1.40001
1.40001
1.40001
1.40001
1.40001
1.40001
1.40001
1.40001
1.40001
1.40001
1.40001
1.40001
1.40001
1.40001
1.40001
1.40001
1.40001
1.40001
1.40001
1.40001
1.40001
1.40001
1.40001
1.40001
1.40001
1.40001
1.40001
1.40001
1.40001
1.40001
1.40001
1.40001
1.40001
1.40001
1.40001
1.40001
1.40001
1.40001
1.40001
1.40001
1.40001
1.40001
1.40001
1.40001
1.40001
1.40001
1.40001
1.40001
1.40001
1.40001
1.40001
1.40001
1.40001
1.40001
1.40001
1.40001
1.40001
1.40001
1.40001
1.40001
1.40001
1.40001
1.40001
1.40001
1.40001
1.40001
1.40001
1.40001
1.40001
1.40001
1.40001
1.40001
1.40001
1.40001
1.40001
1.40001
1.40001
1.40001
1.40001
1.40001
1.40001
1.40001
1.40001
1.40001
1.40001
1.40001
1.40001
1.40001
1.40001
1.40001
1.40001
1.40001
1.40001
1.40001
1.40001
1.40001
1.40001
1.40001
1.40001
1.40001
1.40001
1.40001
1.40001
1.40001
1.40001
1.40001
1.40001
1.40001
1.40001
1.40001
1.40001
1.40001
1.40001
1.40001
1.40001
1.40001
1.40001
1.40001
1.40001
1.40001
1.40001
1.40001
1.40001
1.40001
1.40001
1.40001
1.40001
1.40001
1.40001
1.40001
1.40001
1.40001
1.40001
1.40001
1.40001
1.40001
1.40001
1.40001
1.40001
1.40001
1.40001
1.40001
1.40001
1.40001
1.40001
1.40001
1.40001
1.40001
1.40001
1.40001
1.40001
1.40001
1.40001
1.40001
1.40001
1.40001
1.40001
1.40001
1.40001
1.40001
1.40001
1.40001
1.40001
1.40001
1.40001
1.40001
1.40001
1.40001
1.40001
1.40001
1.40001
1.40001
1.40001
1.40001
1.40001
1.40001
1.40001
1.40001
1.40001
1.40001
1.40001
1.40001
1.40001
1.40001
1.40001
1.40001
1.40001
1.40001
1.40001
1.40001
1.40001
1.40001
1.40001
1.40001
1.40001
1.40001
1.40001
1.40001
1.40001
1.40001
1.40001
1.40001
1.40001
1.40001
1.40001
1.40001
1.40001
1.40001
1.40001
1.40001
1.40001
1.40001
1.40001
1.40001
1.40001
1.40001
1.40001
1.40001
1.40001
1.40001
1.40001
1.40001
1.40001
1.40001
1.40001
1.40001
1.40001
1.40001
1.40001
1.40001
1.40001
1.40001
1.40001
1.40001
1.40001
1.40001
1.40001
1.40001
1.40001
1.40001
1.40001
1.40001
1.40001
1.40001
1.40001
1.40001
1.40001
1.40001
1.40001
1.40001
1.40001
1.40001
1.40001
1.40001
1.40001
1.40001
1.40001
1.40001
1.40001
1.40001
1.40001
1.40001
1.40001
1.40001
1.40001
1.40001
1.40001
1.40001
1.40001
1.40001
1.40001
1.40001
1.40001
1.40001
1.40001
1.40001
1.40001
1.40001
1.40001
1.40001
1.40001
1.40001
1.40001
1.40001
1.40001
1.40001
1.40001
1.40001
1.40001
1.40001
1.40001
1.40001
1.40001
1.40001
1.40001
1.40001
1.40001
1.40001
1.40001
1.40001
1.40001
1.40001
1.40001
1.40001
1.40001
1.40001
1.40001
1.40001
1.40001
1.40001
1.40001
1.40001
1.40001
1.40001
1.40001
1.40001
1.40001
1.40001
1.40001
1.40001
1.40001
1.40001
1.40001
1.40001
1.40001
1.40001
1.40001
1.40001
1.40001
1.40001
1.40001
1.40001
1.40001
1.40001
1.40001
1.40001
1.40001
1.40001
1.40001
1.40001
1.40001
1.40001
1.40001
1.40001
1.40001
1.40001
1.40001
1.40001
1.40001
1.40001
1.40001
1.40001
1.40001
1.40001
1.40001
1.40001
1.40001
1.40001
1.40001
1.40001
1.40001
1.40001
1.40001
1.40001
1.40001
1.40001
1.40001
1.40001
1.40001
1.40001
1.40001
1.40001
1.40001
1.40001
1.40001
1.40001
1.40001
1.40001
1.40001
1.40001
1.40001
1.40001
1.40001
1.40001
1.40001
1.40001
1.40001
1.40001
1.40001
1.40001
1.40001
1.40001
1.40001
1.40001
1.40001
1.39996
1.40001
1.40001
1.40001
1.40001
1.40001
1.40001
1.40001
1.40001
1.40001
1.40001
1.40001
1.40001
1.40001
1.40001
1.39741
1.39982
1.4
1.40001
1.40001
1.40001
1.40001
1.40001
1.40001
1.40001
1.40001
1.40001
1.40001
1.40001
1.40001
1.54108
1.40078
1.4
1.4
1.40001
1.40001
1.40001
1.40001
1.40001
1.40001
1.40001
1.40001
1.40001
1.40001
1.40001
2.88332
1.50219
1.4007
1.4
1.4
1.40001
1.40001
1.40001
1.40001
1.40001
1.40001
1.40001
1.40001
1.40001
1.40001
4.61986
2.35031
1.46555
1.4007
1.40001
1.40001
1.40001
1.40001
1.40001
1.40001
1.40001
1.40001
1.40001
1.40001
1.40001
4.51657
3.56028
1.90856
1.42708
1.40027
1.40001
1.40001
1.40001
1.40001
1.40001
1.40001
1.40001
1.40001
1.40001
1.40001
4.07056
3.98925
2.76182
1.61283
1.40732
1.40008
1.40001
1.40001
1.40001
1.40001
1.40001
1.40001
1.40001
1.40001
1.40001
3.25968
3.91421
3.51929
2.15158
1.46696
1.40112
1.40001
1.4
1.40001
1.40001
1.40001
1.40001
1.40001
1.40001
1.40001
2.24723
3.42531
3.59796
2.90921
1.83113
1.45144
1.40262
1.40007
1.40001
1.40001
1.40001
1.40001
1.40001
1.40001
1.40001
1.80024
2.82125
3.47887
3.29652
2.35247
1.5511
1.40628
1.40013
1.40001
1.40001
1.40001
1.40001
1.40001
1.40001
1.40001
1.34713
2.15424
3.01945
3.26766
2.99282
2.01362
1.46254
1.40156
1.40002
1.40001
1.40001
1.40001
1.40001
1.40001
1.40001
0.997863
1.55195
2.42793
3.12336
3.09629
2.57827
1.68601
1.41477
1.40022
1.40001
1.40001
1.40001
1.40001
1.40001
1.40001
0.956666
1.24174
1.84837
2.69739
3.05132
2.94621
2.16266
1.508
1.40338
1.40004
1.40001
1.40001
1.40001
1.40001
1.40001
0.945204
1.17675
1.49336
2.1882
2.86634
2.94419
2.59991
1.77519
1.42636
1.40046
1.40001
1.40001
1.40001
1.40001
1.40001
0.90891
1.14003
1.3018
1.73419
2.48755
2.89431
2.82066
2.19468
1.54166
1.40562
1.40007
1.40001
1.40001
1.40001
1.40001
0.831881
1.05143
1.19015
1.50192
2.0573
2.69316
2.81274
2.55346
1.80672
1.43369
1.40066
1.40001
1.40001
1.40001
1.40001
0.764952
0.920849
1.0643
1.35512
1.74996
2.36146
2.74923
2.70413
2.17353
1.5524
1.40693
1.4001
1.40001
1.40001
1.40001
0.731684
0.828736
0.975984
1.23264
1.49429
2.00488
2.56709
2.69402
2.47199
1.80076
1.43593
1.40075
1.40001
1.40001
1.40001
0.698126
0.776461
0.942423
1.16202
1.32938
1.69268
2.25734
2.63318
2.59629
2.12696
1.54934
1.40716
1.4001
1.40001
1.40001
0.686183
0.750825
0.915876
1.07628
1.20711
1.51141
1.95487
2.46376
2.58696
2.37514
1.76814
1.4351
1.40079
1.40001
1.40001
0.679488
0.752074
0.884092
0.994165
1.10664
1.36394
1.7008
2.21629
2.53891
2.50188
2.06943
1.53086
1.40581
1.40008
1.40001
0.669137
0.744897
0.842736
0.916753
1.05302
1.2853
1.49342
1.92815
2.4036
2.49631
2.28231
1.72607
1.43202
1.40076
1.40001
0.666613
0.713975
0.798855
0.859143
0.995378
1.20828
1.36574
1.69198
2.1667
2.4573
2.40982
1.99578
1.50984
1.40454
1.40007
0.678508
0.676557
0.761253
0.818005
0.957951
1.11259
1.24607
1.53493
1.93184
2.34614
2.40771
2.20311
1.677
1.42527
1.4006
0.79584
0.685741
0.736078
0.810747
0.939263
1.02804
1.12843
1.40027
1.72035
2.15632
2.38259
2.31959
1.91284
1.49038
1.40361
1.05031
0.745995
0.744579
0.797822
0.914244
0.973818
1.07986
1.29922
1.53208
1.93817
2.30197
2.3231
2.12453
1.62629
1.41948
1.2387
0.905662
0.755414
0.779541
0.869636
0.922328
1.04543
1.23886
1.3901
1.71822
2.14024
2.3086
2.23719
1.83819
1.47191
1.30803
1.09675
0.804347
0.761393
0.796807
0.880485
1.02738
1.17356
1.29117
1.56902
1.95447
2.2605
2.25007
2.02199
1.5904
1.32368
1.26682
1.04197
0.8103
0.799968
0.850777
0.975521
1.06443
1.16567
1.39782
1.67486
2.04897
2.21994
2.1681
1.94251
1.2245
1.02569
0.910538
0.887782
0.811766
0.72617
0.683485
0.665498
0.635932
0.627974
0.61936
0.610808
0.611044
0.649988
0.867869
1.17006
1.21937
1.29384
1.35414
1.33687
0.935163
0.840749
0.784809
0.762552
0.686258
0.630709
0.622303
0.612831
0.598053
0.583447
0.577513
0.581746
0.63383
0.876785
1.18507
1.31611
1.27001
1.28747
1.34125
1.34384
0.704723
0.687426
0.684386
0.663889
0.59037
0.548534
0.555713
0.553721
0.554044
0.549391
0.556483
0.623265
0.898021
1.15186
1.27079
1.32849
1.30838
1.29838
1.32564
1.34536
0.536461
0.566129
0.579641
0.556544
0.508786
0.500646
0.511094
0.516689
0.527234
0.542166
0.651852
0.947463
1.1391
1.26737
1.31093
1.33848
1.33101
1.30626
1.31374
1.34429
0.421375
0.463214
0.483405
0.467297