/*--------------------------------*- C++ -*----------------------------------*\
  =========                 |
  \\      /  F ield         | OpenFOAM: The Open Source CFD Toolbox
   \\    /   O peration     | Website:  https://openfoam.org
    \\  /    A nd           | Version:  7
     \\/     M anipulation  |
\*---------------------------------------------------------------------------*/
FoamFile
{
    version     2.0;
    format      ascii;
    class       volScalarField;
    location    "9.5";
    object      T;
}
// * * * * * * * * * * * * * * * * * * * * * * * * * * * * * * * * * * * * * //

dimensions      [0 0 0 1 0 0 0];

internalField   nonuniform List<scalar> 
3700
(
100.772
100.853
100.895
100.916
100.88
100.835
100.866
100.973
101.111
101.15
101.144
101.132
101.125
101.138
101.137
101.127
101.105
101.085
101.082
101.079
100.406
100.309
100.304
100.371
100.237
100.11
100.268
100.548
100.642
100.628
100.557
100.499
100.508
100.561
100.603
100.586
100.511
100.456
100.472
100.499
100.426
100.268
100.118
99.9799
99.9456
99.9567
99.978
100.016
100.024
100.03
100.008
99.9865
99.9634
99.9564
99.9663
99.9936
100.018
100.035
100.047
100.047
100.413
100.229
100.059
99.9111
99.9015
99.9131
99.9469
100.017
100.043
100.07
100.087
100.08
100.068
100.043
100.014
100.003
100.011
100.038
100.061
100.095
100.303
100.138
99.9674
99.8495
99.8705
99.8875
99.92
99.9794
100.018
100.067
100.103
100.109
100.125
100.127
100.118
100.097
100.063
100.051
100.057
100.114
100.172
100.045
99.8769
99.8288
99.8623
99.8837
99.9128
99.967
100.004
100.045
100.08
100.107
100.137
100.16
100.165
100.167
100.163
100.157
100.147
100.158
100.066
99.9537
99.809
99.8376
99.9034
99.9582
99.9766
100.005
100.019
100.052
100.071
100.092
100.128
100.159
100.182
100.202
100.219
100.23
100.232
100.255
99.9538
99.8673
99.7932
99.8745
99.9749
100.041
100.075
100.111
100.126
100.142
100.13
100.136
100.139
100.157
100.186
100.219
100.251
100.278
100.291
100.329
99.8216
99.773
99.8065
99.9063
100.022
100.087
100.116
100.159
100.202
100.222
100.236
100.241
100.251
100.258
100.262
100.268
100.285
100.318
100.343
100.39
99.7045
99.687
99.8039
99.9477
100.081
100.129
100.132
100.165
100.226
100.263
100.292
100.307
100.331
100.341
100.353
100.362
100.371
100.384
100.408
100.448
99.6354
99.6326
99.8166
100.017
100.125
100.165
100.172
100.195
100.236
100.278
100.318
100.345
100.378
100.393
100.414
100.432
100.449
100.465
100.499
100.491
99.6072
99.6173
99.8602
100.07
100.157
100.2
100.225
100.287
100.339
100.375
100.392
100.408
100.425
100.439
100.462
100.492
100.521
100.543
100.579
100.569
99.6006
99.638
99.9649
100.128
100.207
100.262
100.317
100.386
100.437
100.48
100.496
100.51
100.517
100.524
100.537
100.561
100.593
100.621
100.657
100.655
99.6164
99.7288
100.031
100.163
100.225
100.297
100.385
100.453
100.508
100.551
100.566
100.582
100.595
100.61
100.634
100.661
100.686
100.709
100.725
100.734
99.6623
99.7704
100.029
100.158
100.204
100.333
100.451
100.521
100.581
100.614
100.633
100.651
100.67
100.694
100.725
100.753
100.773
100.785
100.781
100.775
99.7038
99.787
99.9707
100.136
100.342
100.545
100.618
100.663
100.699
100.718
100.732
100.747
100.767
100.791
100.811
100.823
100.821
100.815
100.789
100.744
99.6353
99.8577
100.17
100.413
100.617
100.703
100.742
100.774
100.796
100.81
100.821
100.836
100.852
100.856
100.855
100.843
100.793
100.679
100.516
100.276
99.5043
100
100.451
100.671
100.776
100.812
100.835
100.858
100.873
100.881
100.881
100.883
100.881
100.858
100.77
100.621
100.36
100.102
100.006
99.9978
100.111
100.531
100.742
100.84
100.887
100.905
100.919
100.92
100.916
100.908
100.895
100.842
100.728
100.47
100.147
100.01
99.9966
99.9985
99.9992
99.9998
100.696
100.837
100.912
100.95
100.964
100.956
100.952
100.926
100.845
100.767
100.582
100.238
100.032
99.9958
99.9978
99.9989
99.9998
100
100
100
100.998
100.996
100.992
100.991
100.985
100.95
100.875
100.431
99.8591
100
100
100
100
100
100
100
100
100
100
100
100.994
100.992
100.985
100.975
100.964
100.869
100.502
100.015
100
100
100
100
100
100
100
100
100
100
100
100
100.989
100.99
100.984
100.965
100.92
100.653
100.05
99.999
100
100
100
100
100
100
100
100
100
100
100
100
100.984
100.989
100.984
100.954
100.785
100.236
99.9962
100
100
100
100
100
100
100
100
100
100
100
100
100
100.979
100.987
100.981
100.918
100.546
99.9924
100
100
100
100
100
100
100
100
100
100
100
100
100
100
100.978
100.987
100.979
100.833
100.274
100
100
100
100
100
100
100
100
100
100
100
100
100
100
100
100.978
100.988
100.977
100.709
100.003
100
100
100
100
100
100
100
100
100
100
100
100
100
100
100
100.984
100.982
100.925
100.458
99.9978
100
100
100
100
100
100
100
100
100
100
100
100
100
100
100
101.001
100.964
100.817
100.16
100
100
100
100
100
100
100
100
100
100
100
100
100
100
100
100
101.014
100.942
100.677
99.9964
100
100
100
100
100
100
100
100
100
100
100
100
100
100
100
100
101.023
100.903
100.5
100
100
100
100
100
100
100
100
100
100
100
100
100
100
100
100
100
101.029
100.848
100.315
100
100
100
100
100
100
100
100
100
100
100
100
100
100
100
100
100
101.033
100.795
100.108
100
100
100
100
100
100
100
100
100
100
100
100
100
100
100
100
100
101.033
100.739
100.006
100
100
100
100
100
100
100
100
100
100
100
100
100
100
100
100
100
101.011
100.684
100
100
100
100
100
100
100
100
100
100
100
100
100
100
100
100
100
100
100.987
100.566
100
100
100
100
100
100
100
100
100
100
100
100
100
100
100
100
100
100
100.944
100.417
100
100
100
100
100
100
100
100
100
100
100
100
100
100
100
100
100
100
100.907
100.229
100
100
100
100
100
100
100
100
100
100
100
100
100
100
100
100
100
100
100.869
100.005
100
100
100
100
100
100
100
100
100
100
100
100
100
100
100
100
100
100
100.811
100
100
100
100
100
100
100
100
100
100
100
100
100
100
100
100
100
100
100
100.809
100
100
100
100
100
100
100
100
100
100
100
100
100
100
100
100
100
100
100
100.868
100.005
100
100
100
100
100
100
100
100
100
100
100
100
100
100
100
100
100
100
100.911
100.235
100
100
100
100
100
100
100
100
100
100
100
100
100
100
100
100
100
100
100.945
100.418
100
100
100
100
100
100
100
100
100
100
100
100
100
100
100
100
100
100
100.985
100.562
100
100
100
100
100
100
100
100
100
100
100
100
100
100
100
100
100
100
101.01
100.681
100
100
100
100
100
100
100
100
100
100
100
100
100
100
100
100
100
100
101.033
100.742
100.01
100
100
100
100
100
100
100
100
100
100
100
100
100
100
100
100
100
101.034
100.797
100.112
100
100
100
100
100
100
100
100
100
100
100
100
100
100
100
100
100
101.029
100.849
100.315
100
100
100
100
100
100
100
100
100
100
100
100
100
100
100
100
100
101.023
100.902
100.5
100
100
100
100
100
100
100
100
100
100
100
100
100
100
100
100
100
101.014
100.942
100.675
99.9964
100
100
100
100
100
100
100
100
100
100
100
100
100
100
100
100
101
100.963
100.817
100.161
100
100
100
100
100
100
100
100
100
100
100
100
100
100
100
100
100.982
100.979
100.921
100.457
99.9988
100
100
100
100
100
100
100
100
100
100
100
100
100
100
100
100.978
100.99
100.978
100.704
99.9961
100
100
100
100
100
100
100
100
100
100
100
100
100
100
100
100.979
100.988
100.98
100.835
100.284
100
100
100
100
100
100
100
100
100
100
100
100
100
100
100
100.98
100.988
100.982
100.919
100.549
99.9924
100
100
100
100
100
100
100
100
100
100
100
100
100
100
100.984
100.989
100.984
100.954
100.782
100.23
99.9963
100
100
100
100
100
100
100
100
100
100
100
100
100
100.989
100.99
100.985
100.965
100.915
100.647
100.048
99.9991
100
100
100
100
100
100
100
100
100
100
100
100
100.994
100.991
100.985
100.974
100.962
100.87
100.509
100.018
100
100
100
100
100
100
100
100
100
100
100
100
100.997
100.995
100.991
100.99
100.985
100.952
100.877
100.435
99.8575
100
100
100
100
100
100
100
100
100
100
100
100.695
100.836
100.911
100.949
100.964
100.957
100.953
100.927
100.843
100.765
100.581
100.237
100.031
99.9958
99.9978
99.9989
99.9998
100
100
100
100.114
100.529
100.742
100.839
100.887
100.906
100.921
100.92
100.916
100.907
100.895
100.842
100.728
100.472
100.148
100.01
99.9966
99.9985
99.9992
99.9998
99.4609
100.069
100.459
100.668
100.776
100.812
100.836
100.859
100.874
100.881
100.881
100.883
100.882
100.858
100.771
100.621
100.36
100.102
100.006
99.9978
99.5103
99.7871
100.161
100.42
100.612
100.7
100.741
100.774
100.797
100.81
100.821
100.836
100.852
100.856
100.855
100.843
100.792
100.679
100.516
100.276
99.6709
99.819
100.017
100.142
100.335
100.539
100.613
100.66
100.697
100.716
100.73
100.746
100.767
100.791
100.812
100.822
100.821
100.815
100.79
100.745
99.6447
99.8195
100.025
100.175
100.25
100.344
100.45
100.519
100.578
100.612
100.632
100.651
100.671
100.696
100.726
100.752
100.773
100.785
100.781
100.776
99.5472
99.7733
100.021
100.178
100.248
100.309
100.388
100.453
100.508
100.55
100.567
100.583
100.596
100.611
100.634
100.66
100.685
100.709
100.726
100.735
99.5184
99.6384
99.9833
100.13
100.219
100.274
100.32
100.385
100.435
100.478
100.496
100.51
100.517
100.524
100.536
100.56
100.592
100.622
100.657
100.655
99.5347
99.5996
99.8896
100.062
100.169
100.217
100.229
100.284
100.337
100.372
100.39
100.407
100.426
100.44
100.462
100.492
100.521
100.544
100.58
100.569
99.5787
99.6181
99.842
100.005
100.13
100.183
100.177
100.198
100.239
100.282
100.321
100.347
100.379
100.394
100.413
100.431
100.449
100.465
100.499
100.492
99.6688
99.6802
99.8266
99.9463
100.07
100.138
100.138
100.171
100.23
100.265
100.294
100.307
100.33
100.339
100.351
100.36
100.37
100.384
100.409
100.449
99.7978
99.7723
99.8129
99.8989
100.007
100.086
100.121
100.16
100.202
100.221
100.234
100.238
100.246
100.253
100.257
100.265
100.285
100.32
100.345
100.391
99.926
99.8655
99.8006
99.8635
99.9543
100.034
100.075
100.108
100.123
100.138
100.126
100.132
100.137
100.157
100.187
100.221
100.254
100.279
100.292
100.329
100.031
99.9534
99.8262
99.8355
99.8773
99.9471
99.9769
100.003
100.02
100.054
100.075
100.096
100.131
100.162
100.185
100.205
100.221
100.23
100.231
100.253
100.137
100.048
99.9066
99.8308
99.8497
99.8759
99.9176
99.9733
100.01
100.052
100.088
100.113
100.14
100.162
100.167
100.168
100.163
100.156
100.144
100.156
100.282
100.146
99.9981
99.8581
99.8603
99.8818
99.9248
99.9865
100.028
100.077
100.109
100.113
100.126
100.127
100.117
100.096
100.061
100.049
100.058
100.116
100.4
100.235
100.076
99.9181
99.8988
99.9134
99.9547
100.025
100.053
100.077
100.091
100.08
100.065
100.04
100.013
100.005
100.014
100.041
100.063
100.096
100.408
100.258
100.124
99.9892
99.9502
99.9621
99.9843
100.022
100.03
100.032
100.004
99.9827
99.9599
99.9549
99.9673
99.9978
100.021
100.037
100.045
100.046
100.397
100.35
100.347
100.292
100.44
100.605
100.594
100.497
100.508
100.618
100.698
100.703
100.663
100.554
100.39
100.37
100.413
100.468
100.473
100.427
100.789
100.907
100.906
100.876
100.895
100.972
100.981
100.974
101.041
101.151
101.189
101.183
101.167
101.129
101.065
101.055
101.073
101.077
101.073
101.06
101.051
101.025
101.006
100.985
100.96
100.949
100.938
100.912
100.877
100.864
100.864
100.867
100.863
100.847
100.831
100.824
100.826
100.826
100.821
100.805
100.579
100.63
100.702
100.723
100.763
100.801
100.813
100.816
100.808
100.795
100.792
100.799
100.807
100.806
100.799
100.793
100.793
100.793
100.791
100.783
100.027
100.055
100.177
100.281
100.418
100.515
100.573
100.628
100.66
100.661
100.66
100.67
100.689
100.703
100.709
100.709
100.71
100.713
100.717
100.721
100.086
100.092
100.104
100.092
100.109
100.194
100.337
100.444
100.51
100.544
100.547
100.552
100.569
100.588
100.6
100.604
100.608
100.614
100.621
100.634
100.133
100.14
100.138
100.136
100.112
100.112
100.135
100.23
100.383
100.462
100.473
100.48
100.491
100.509
100.521
100.526
100.53
100.533
100.539
100.553
100.177
100.184
100.19
100.176
100.155
100.148
100.15
100.158
100.202
100.309
100.402
100.44
100.447
100.466
100.478
100.481
100.484
100.484
100.487
100.497
100.229
100.233
100.23
100.214
100.188
100.185
100.188
100.188
100.191
100.197
100.249
100.36
100.412
100.438
100.449
100.458
100.457
100.454
100.457
100.465
100.297
100.28
100.274
100.264
100.241
100.224
100.218
100.209
100.197
100.193
100.193
100.22
100.328
100.395
100.427
100.44
100.435
100.434
100.441
100.445
100.363
100.335
100.316
100.305
100.278
100.254
100.24
100.224
100.211
100.207
100.199
100.193
100.209
100.304
100.392
100.42
100.41
100.416
100.429
100.43
100.433
100.393
100.359
100.344
100.318
100.29
100.265
100.239
100.216
100.213
100.206
100.198
100.191
100.2
100.279
100.367
100.382
100.403
100.416
100.413
100.539
100.458
100.374
100.354
100.35
100.342
100.32
100.278
100.247
100.229
100.22
100.211
100.202
100.188
100.18
100.227
100.314
100.361
100.372
100.38
100.617
100.552
100.475
100.409
100.38
100.37
100.35
100.309
100.272
100.245
100.226
100.216
100.205
100.183
100.16
100.155
100.173
100.227
100.277
100.321
100.608
100.586
100.545
100.482
100.419
100.372
100.348
100.325
100.297
100.279
100.26
100.236
100.211
100.19
100.168
100.151
100.144
100.134
100.146
100.221
100.488
100.547
100.542
100.518
100.475
100.411
100.371
100.349
100.319
100.294
100.269
100.242
100.213
100.189
100.168
100.151
100.134
100.117
100.099
100.106
100.25
100.377
100.446
100.482
100.474
100.449
100.406
100.365
100.324
100.288
100.258
100.23
100.214
100.196
100.176
100.16
100.143
100.118
100.092
100.073
100.043
100.146
100.254
100.335
100.387
100.415
100.405
100.38
100.345
100.302
100.27
100.237
100.218
100.2
100.174
100.144
100.121
100.101
100.084
100.063
100.002
100.015
100.065
100.154
100.232
100.29
100.33
100.349
100.34
100.315
100.281
100.248
100.213
100.187
100.162
100.131
100.111
100.101
100.091
100.066
100
100
100.003
100.024
100.078
100.149
100.21
100.25
100.279
100.29
100.281
100.261
100.228
100.195
100.17
100.146
100.123
100.106
100.088
100.056
100
100
100
100.001
100.006
100.031
100.081
100.139
100.187
100.217
100.241
100.245
100.237
100.215
100.187
100.159
100.129
100.102
100.079
100.049
100
100
100
100
100
100.001
100.007
100.033
100.078
100.128
100.168
100.192
100.211
100.21
100.202
100.184
100.157
100.126
100.1
100.069
100
100
100
100
100
100
100
100.002
100.008
100.032
100.073
100.119
100.153
100.173
100.186
100.185
100.178
100.161
100.137
100.098
100
100
100
100
100
100
100
100
100
100.002
100.008
100.028
100.065
100.108
100.141
100.158
100.168
100.166
100.162
100.139
100
100
100
100
100
100
100
100
100
100
100
100.001
100.007
100.024
100.057
100.096
100.129
100.146
100.153
100.15
100
100
100
100
100
100
100
100
100
100
100
100
100
100.001
100.006
100.02
100.047
100.085
100.114
100.138
100
100
100
100
100
100
100
100
100
100
100
100
100
100
100
100.001
100.004
100.016
100.041
100.105
100.595
100.653
100.61
100.416
100.142
100.017
100.001
100
100
100
100
100
100
100
100
100.671
100.662
100.518
100.217
100.022
100
100
100
100
100
100
100
100
100
100
100.704
100.636
100.374
100.074
100.002
100
100
100
100
100
100
100
100
100
100
100.719
100.518
100.167
100.009
100
100
100
100
100
100
100
100
100
100
100
100.651
100.284
100.024
100
100
100
100
100
100
100
100
100
100
100
100
100.394
100.038
100
100
100
100
100
100
100
100
100
100
100
100
100
100.042
100
100
100
100
100
100
100
100
100
100
100
100
100
100
99.9995
100
100
100
100
100
100
100
100
100
100
100
100
100
100
100
100
100
100
100
100
100
100
100
100
100
100
100
100
100
100
100
100
100
100
100
100
100
100
100
100
100
100
100
100
100
100
100
100
100
100
100
100
100
100
100
100
100
100
100
100
100
100
100
100
100
100
100
100
100
100
100
100
100
100
100
100
100
100
100
100
100
100
100
100
100
100
100
100
100
100
100
100
100
100
100
100
100
100
100
100
100
100
100
100
100
100
100
100
100
100
100
100
100
100
100
100
100
100
100
100
100
100
100
100
100
100
100
100
100
100
100
100
100
100
100
100
100
100
100
100
100
100
100
100
100
100
100
100
100
100
100
100
100
100
100
100
100
100
100
100
100
100
100
100
100
100
100
100
100
100
100
100
100
100
100
100
100
100
100
100
100
100
100
100
100
100
100
100
100
100
100
100
100
100
100
100
100
100
100
100
100
100
100
100
100
100
100
100
100
100
100
100
100
100
100
100
100
100
100
100
100
100
100
100
100
100
100
100
100
100
100
100
100
100
100
100
100
100
100
100
100
100
100
100
100
100
100
100
100
100
100
100
100
100
100
100
100
100
100
100
100
100
100
100
100
100
100
100
100
100
100
100
100
100
100
100
100
100
100
100
100
100
100
100
100
100
100
100
100
100
100
100
100
100
100
100
100
100
100
100
100
100
100
100
100
100
100
100
100
100
100
100
100
100
100
100
100
100
100
100
100
100
100
100
100
100
100
100
100
100
100
100
100
100
100
100
100
100
100
100
100
100
100
100
100
100
100
100
100
100
100
100
100
100
100
100
100
100
100
100
100
100
100
100
100
100
100
100
100
100
100
100
100
100
100
100
100
100
100
100
100
100
100
100
100
100
100
100
100
100
100
100
100
100
100
100
100
100
100
100
100
100
100
100
100
100
100
100
100
100
100
100
100
100
100
100
100
100
100
100
100
100
100
100
100
100
100
100
100
100
100
100
100
100
100
100
100
100
100
100
100
100
100
100
100
100
100
100
100
100
100
100
100
100
100
100
100
100
100
100
100
100
100
100
100
100
100
100
100
100
100
100
100
100
100
100
100
100
100
100
100
100
100
100
100
100
100
100
100
100
100
100
100
100
100
100
100
100
100
100
100
100
100
100
100
100
100
100
100
100
100
100
100
100
100
100
100
100
100
100
100
100
100
100
100
100
100
100
100
100
100
100
100
100
100
100
100
100
100
100
100
100
100
100
100
100
100
100
100
100
100
100
100
100
100
100
100
100
100
100
100
100
100
100
100
100
100
100
100
100
100
100
100
100
100
100
100
100
100
100
100
100
100
100
100
100
100
100
100
100
100
100
100
100
100
100
100
100
100
100
100
100
100
100
100
100
100
100
100
100
100
100
100
100
100
100
100
100
100
100
100
100
100
100
100
100
100
100
100
100
100
100
100
100
100
100
100
100
100
100
100
100
100
100
100
100
100
100
100
100
100
100
100
100
100
100
100
100
100
100
100
100
100
100
100
100
100
100
100
100
100
100
100
100
100
100
100
100
100
100
100
100
100
100
100
100
100
100
100
100
100
100
100
100
100
100
100
100
100
100
100
100
100
100
100
100
100
100
100
100
100
100
100
100
100
100
100
100
100
100
100
100
100
100
100
100
100
100
100
100
100
100
100
100
100
100
100
100
100
100
100
100
100
100
100
100
100
100
100
100
100
100
100
100
100
100
100
100
100
100
100
100
100
100
100
100
100
100
100
100
100
100
100
100
100
100
100
100
100
100
100
100
100
100
100
100
100
100
100
100
100
100
100
100
100
100
100
100
100
100
100
100
100
100
100
100
100
100
100
100
100
100
100
100
100
100
100
100
100
100
100
100
100
100
100
100
100
100
100
100
100
100
100
100
100
100
100
100
100
100
100
100
100
100
100
100
100
100
100
100
100
100
100
100
100
100
100
100
100
100
100
100
100
100
100
100
100
100
100
100
100
100
100
100
99.9995
100
100
100
100
100
100
100
100
100
100
100
100
100
100
100.042
100
100
100
100
100
100
100
100
100
100
100
100
100
100
100.395
100.038
100
100
100
100
100
100
100
100
100
100
100
100
100
100.651
100.284
100.024
100
100
100
100
100
100
100
100
100
100
100
100
100.719
100.518
100.167
100.009
100
100
100
100
100
100
100
100
100
100
100
100.704
100.636
100.374
100.074
100.002
100
100
100
100
100
100
100
100
100
100
100.671
100.662
100.518
100.217
100.022
100
100
100
100
100
100
100
100
100
100
100.595
100.653
100.61
100.416
100.142
100.017
100.001
100
100
100
100
100
100
100
100
100.539
100.617
100.608
100.488
100.25
100.043
100.002
100
100
100
100
100
100
100
100
100.458
100.553
100.586
100.547
100.377
100.146
100.015
100
100
100
100
100
100
100
100
100.373
100.473
100.545
100.542
100.446
100.254
100.065
100.003
100
100
100
100
100
100
100
100.353
100.41
100.48
100.518
100.482
100.335
100.154
100.024
100.001
100
100
100
100
100
100
100.346
100.383
100.42
100.474
100.474
100.388
100.232
100.078
100.006
100
100
100
100
100
100
100.335
100.37
100.376
100.413
100.449
100.415
100.29
100.149
100.031
100.001
100
100
100
100
100
100.311
100.346
100.35
100.375
100.407
100.405
100.33
100.209
100.081
100.007
100
100
100
100
100
100.279
100.307
100.321
100.347
100.366
100.381
100.349
100.25
100.139
100.033
100.002
100
100
100
100
100.254
100.271
100.294
100.319
100.324
100.344
100.34
100.28
100.187
100.078
100.008
100
100
100
100
100.231
100.243
100.276
100.296
100.289
100.301
100.315
100.29
100.217
100.128
100.032
100.002
100
100
100
100.22
100.227
100.259
100.267
100.259
100.27
100.282
100.281
100.241
100.168
100.073
100.008
100
100
100
100.211
100.221
100.241
100.239
100.232
100.241
100.247
100.261
100.245
100.192
100.119
100.028
100.001
100
100
100.2
100.209
100.218
100.211
100.214
100.222
100.213
100.228
100.237
100.211
100.153
100.065
100.007
100
100
100.185
100.183
100.192
100.187
100.195
100.2
100.187
100.195
100.215
100.21
100.173
100.108
100.024
100.001
100
100.18
100.16
100.169
100.166
100.175
100.172
100.16
100.17
100.187
100.202
100.186
100.141
100.057
100.006
100
100.227
100.157
100.152
100.15
100.159
100.143
100.13
100.145
100.159
100.184
100.185
100.158
100.096
100.02
100.001
100.314
100.174
100.145
100.134
100.142
100.122
100.114
100.123
100.129
100.157
100.178
100.168
100.129
100.047
100.004
100.361
100.227
100.134
100.117
100.118
100.102
100.101
100.107
100.102
100.126
100.161
100.167
100.146
100.085
100.016
100.373
100.276
100.145
100.099
100.091
100.085
100.091
100.088
100.079
100.1
100.137
100.162
100.153
100.114
100.041
100.378
100.32
100.222
100.106
100.072
100.062
100.067
100.056
100.049
100.069
100.098
100.139
100.15
100.138
100.105
100.434
100.391
100.357
100.345
100.319
100.291
100.269
100.25
100.225
100.213
100.203
100.194
100.187
100.195
100.281
100.369
100.383
100.403
100.417
100.413
100.362
100.334
100.315
100.307
100.281
100.259
100.246
100.23
100.214
100.2
100.192
100.188
100.206
100.3
100.393
100.423
100.412
100.417
100.43
100.43
100.295
100.279
100.276
100.267
100.241
100.219
100.215
100.206
100.199
100.191
100.191
100.219
100.327
100.399
100.431
100.443
100.437
100.435
100.442
100.446
100.229
100.233
100.233
100.219
100.197
100.19
100.193
100.191
100.193
100.198
100.253
100.362
100.41
100.445
100.457
100.461
100.459
100.455
100.457
100.465
100.175
100.187
100.187
100.173
100.151
100.147
100.151
100.159
100.204
100.315
100.404
100.435
100.442
100.466
100.481
100.486
100.487
100.485
100.486
100.496
100.134
100.138
100.143
100.14
100.123
100.118
100.137
100.228
100.381
100.467
100.478
100.478
100.485
100.502
100.52
100.53
100.535
100.534
100.537
100.55
100.086
100.093
100.096
100.091
100.103
100.174
100.324
100.437
100.504
100.55
100.561
100.559
100.563
100.576
100.591
100.607
100.614
100.615
100.618
100.63
100.028
100.063
100.191
100.314
100.418
100.487
100.545
100.61
100.654
100.673
100.684
100.687
100.688
100.69
100.697
100.709
100.713
100.712
100.712
100.716
100.588
100.647
100.715
100.755
100.773
100.777
100.779
100.794
100.803
100.808
100.814
100.814
100.81
100.797
100.789
100.79
100.793
100.792
100.787
100.779
101.054
101.031
101.009
100.995
100.965
100.945
100.922
100.897
100.873
100.867
100.872
100.874
100.867
100.847
100.829
100.824
100.825
100.824
100.817
100.802
)
;

boundaryField
{
    inlet
    {
        type            fixedValue;
        value           uniform 100;
    }
    outlet
    {
        type            inletOutlet;
        inletValue      uniform 100;
        value           nonuniform List<scalar> 
50
(
100.38
100.321
100.221
100.106
100.073
100.063
100.066
100.056
100.049
100.069
100.098
100.139
100.15
100.138
100.105
100.804
100.783
100.721
100.634
100.553
100.497
100.465
100.445
100.43
100.413
100.413
100.43
100.446
100.465
100.496
100.55
100.63
100.716
100.779
100.802
100.378
100.32
100.222
100.106
100.072
100.062
100.067
100.056
100.049
100.069
100.098
100.139
100.15
100.138
100.105
)
;
    }
    airfoil
    {
        type            zeroGradient;
    }
    top
    {
        type            symmetryPlane;
    }
    bottom
    {
        type            symmetryPlane;
    }
    defaultFaces
    {
        type            empty;
    }
}


// ************************************************************************* //
