/*--------------------------------*- C++ -*----------------------------------*\
  =========                 |
  \\      /  F ield         | OpenFOAM: The Open Source CFD Toolbox
   \\    /   O peration     | Website:  https://openfoam.org
    \\  /    A nd           | Version:  7
     \\/     M anipulation  |
\*---------------------------------------------------------------------------*/
FoamFile
{
    version     2.0;
    format      ascii;
    class       volVectorField;
    location    "9.5";
    object      U;
}
// * * * * * * * * * * * * * * * * * * * * * * * * * * * * * * * * * * * * * //

dimensions      [0 1 -1 0 0 0 0];

internalField   nonuniform List<vector> 
3700
(
(1.4219 -0.566894 0)
(1.43725 -0.543413 0)
(1.33 -0.405434 0)
(1.33116 -0.288387 0)
(1.48006 -0.383914 0)
(1.61125 -0.475019 0)
(1.51971 -0.39522 0)
(1.44638 -0.213408 0)
(1.47597 -0.105932 0)
(1.58187 -0.130923 0)
(1.60932 -0.187259 0)
(1.60526 -0.236411 0)
(1.59745 -0.234946 0)
(1.57105 -0.204753 0)
(1.58318 -0.132986 0)
(1.65686 -0.11692 0)
(1.7375 -0.186017 0)
(1.81725 -0.248787 0)
(1.85169 -0.230559 0)
(1.88333 -0.145943 0)
(1.64996 -1.49147 0)
(1.79888 -1.44499 0)
(1.87131 -1.66993 0)
(1.87021 -1.66559 0)
(2.01 -2.0424 0)
(1.94558 -2.21192 0)
(1.8088 -1.87324 0)
(1.64902 -1.47716 0)
(1.7102 -1.24109 0)
(1.8711 -1.20547 0)
(1.95768 -1.2246 0)
(1.9922 -1.27611 0)
(1.98238 -1.22456 0)
(1.95164 -1.18418 0)
(1.95713 -1.10752 0)
(2.03305 -1.08914 0)
(2.12113 -1.19395 0)
(2.19162 -1.20699 0)
(2.25286 -1.19454 0)
(2.30189 -1.05093 0)
(1.72214 -1.51152 0)
(2.04636 -1.3619 0)
(2.10532 -1.76187 0)
(2.06676 -2.04731 0)
(2.06576 -2.19384 0)
(2.0384 -2.28639 0)
(2.05017 -2.19259 0)
(1.94657 -2.20092 0)
(1.97615 -2.15001 0)
(2.06353 -2.06533 0)
(2.16366 -1.99317 0)
(2.28302 -1.96085 0)
(2.3911 -1.88347 0)
(2.44862 -1.83989 0)
(2.48613 -1.82371 0)
(2.5235 -1.77951 0)
(2.49606 -1.79585 0)
(2.49935 -1.68082 0)
(2.50002 -1.66607 0)
(2.56143 -1.56947 0)
(1.84502 -1.57305 0)
(2.19732 -1.35431 0)
(2.19613 -1.76283 0)
(2.06412 -2.04449 0)
(2.08632 -2.15874 0)
(2.06926 -2.29832 0)
(2.14011 -2.1328 0)
(2.00423 -2.15796 0)
(2.0485 -2.11493 0)
(2.11749 -2.02813 0)
(2.19247 -1.94674 0)
(2.30954 -1.82557 0)
(2.41404 -1.72169 0)
(2.53602 -1.60579 0)
(2.67626 -1.49941 0)
(2.77688 -1.41973 0)
(2.75894 -1.46312 0)
(2.74618 -1.43207 0)
(2.65479 -1.48446 0)
(2.602 -1.40295 0)
(1.94341 -1.59131 0)
(2.21126 -1.35899 0)
(2.05873 -1.84365 0)
(1.92622 -2.07643 0)
(2.00762 -2.15775 0)
(2.06587 -2.28681 0)
(2.15926 -2.11273 0)
(2.10124 -2.06537 0)
(2.1759 -1.99312 0)
(2.29655 -1.89624 0)
(2.27593 -1.95227 0)
(2.35693 -1.77282 0)
(2.40519 -1.69575 0)
(2.47706 -1.61621 0)
(2.61059 -1.50763 0)
(2.69415 -1.34925 0)
(2.76383 -1.1272 0)
(2.85254 -1.00298 0)
(2.85119 -0.974193 0)
(2.73728 -1.07033 0)
(1.86493 -1.56226 0)
(2.00654 -1.4616 0)
(1.78674 -1.97487 0)
(1.77595 -2.11104 0)
(1.89443 -2.15893 0)
(1.93807 -2.18878 0)
(2.14904 -2.05222 0)
(2.27322 -1.93184 0)
(2.32353 -1.90515 0)
(2.42828 -1.71371 0)
(2.46565 -1.75539 0)
(2.55003 -1.62871 0)
(2.5449 -1.56667 0)
(2.55379 -1.48341 0)
(2.58578 -1.40425 0)
(2.62668 -1.30378 0)
(2.67406 -1.17366 0)
(2.80633 -1.06482 0)
(2.8436 -0.810628 0)
(2.8382 -0.677912 0)
(1.71837 -1.49084 0)
(1.79138 -1.51277 0)
(1.62082 -1.94033 0)
(1.60804 -2.11629 0)
(1.65152 -2.11556 0)
(1.82277 -2.07846 0)
(2.0289 -1.9504 0)
(2.23689 -1.75701 0)
(2.39229 -1.70032 0)
(2.5563 -1.53939 0)
(2.59083 -1.46565 0)
(2.67616 -1.34982 0)
(2.69674 -1.31211 0)
(2.68702 -1.27254 0)
(2.69259 -1.16632 0)
(2.68283 -1.09569 0)
(2.67702 -0.990504 0)
(2.74111 -0.967965 0)
(2.74729 -0.806529 0)
(2.79907 -0.573936 0)
(1.59382 -1.37698 0)
(1.68543 -1.40505 0)
(1.57219 -1.83026 0)
(1.46341 -2.09362 0)
(1.63487 -2.06121 0)
(1.78255 -2.03519 0)
(1.99696 -1.86337 0)
(2.13398 -1.75066 0)
(2.25127 -1.60661 0)
(2.42862 -1.5235 0)
(2.54439 -1.2529 0)
(2.69209 -1.1209 0)
(2.72923 -0.913951 0)
(2.75398 -0.873041 0)
(2.77564 -0.759579 0)
(2.76411 -0.765544 0)
(2.74568 -0.665276 0)
(2.72556 -0.699674 0)
(2.72431 -0.6731 0)
(2.7136 -0.465898 0)
(1.56732 -1.24077 0)
(1.65722 -1.24389 0)
(1.60299 -1.66884 0)
(1.46382 -2.06045 0)
(1.676 -2.03138 0)
(1.86669 -2.01301 0)
(2.10312 -1.78562 0)
(2.19156 -1.70822 0)
(2.26521 -1.55453 0)
(2.34556 -1.50126 0)
(2.46205 -1.27121 0)
(2.59535 -1.1548 0)
(2.64434 -0.860834 0)
(2.75323 -0.741745 0)
(2.74878 -0.4768 0)
(2.75921 -0.393701 0)
(2.75148 -0.275307 0)
(2.72439 -0.270992 0)
(2.70329 -0.377678 0)
(2.65902 -0.265683 0)
(1.59524 -1.18013 0)
(1.65012 -1.15354 0)
(1.6242 -1.53799 0)
(1.54149 -2.00566 0)
(1.86662 -1.98319 0)
(2.08537 -1.8877 0)
(2.26128 -1.57733 0)
(2.3977 -1.4408 0)
(2.49249 -1.37528 0)
(2.48692 -1.34459 0)
(2.53011 -1.1601 0)
(2.5858 -1.0109 0)
(2.60444 -0.811578 0)
(2.68551 -0.712652 0)
(2.6818 -0.474763 0)
(2.72175 -0.338591 0)
(2.71071 -0.136936 0)
(2.68254 0.00169464 0)
(2.63275 0.000144602 0)
(2.61291 -0.0298947 0)
(1.58347 -1.19038 0)
(1.63104 -1.16352 0)
(1.68002 -1.55182 0)
(1.74954 -2.11638 0)
(2.22812 -2.05776 0)
(2.4923 -1.86129 0)
(2.63631 -1.44461 0)
(2.67998 -1.1168 0)
(2.71174 -0.970958 0)
(2.72564 -0.83258 0)
(2.72459 -0.744067 0)
(2.71327 -0.565628 0)
(2.68893 -0.476828 0)
(2.68791 -0.382592 0)
(2.65796 -0.265346 0)
(2.64988 -0.204685 0)
(2.64621 -0.101155 0)
(2.61053 0.0624085 0)
(2.54719 0.210717 0)
(2.56208 0.161946 0)
(1.52768 -1.20572 0)
(1.61973 -1.21277 0)
(1.76795 -1.62287 0)
(2.00544 -2.17707 0)
(2.28692 -1.9055 0)
(2.41823 -1.64265 0)
(2.57532 -1.33216 0)
(2.68134 -0.928817 0)
(2.72593 -0.817212 0)
(2.70634 -0.481641 0)
(2.72207 -0.334385 0)
(2.68371 -0.117022 0)
(2.67912 -0.0308676 0)
(2.64349 0.0913647 0)
(2.61039 0.153663 0)
(2.57374 0.167896 0)
(2.55094 0.15083 0)
(2.52966 0.178239 0)
(2.45002 0.335062 0)
(2.45787 0.330461 0)
(1.44615 -1.18323 0)
(1.6236 -1.24977 0)
(1.90405 -1.75429 0)
(1.98709 -1.99391 0)
(2.10823 -1.75488 0)
(2.24635 -1.43089 0)
(2.37151 -1.18534 0)
(2.46423 -0.893727 0)
(2.49435 -0.749309 0)
(2.54145 -0.518973 0)
(2.60244 -0.32022 0)
(2.58424 -0.0631849 0)
(2.59238 0.105428 0)
(2.53757 0.295104 0)
(2.48136 0.438106 0)
(2.43827 0.490972 0)
(2.38847 0.53419 0)
(2.38911 0.470756 0)
(2.32727 0.537902 0)
(2.32735 0.508139 0)
(1.29638 -1.16926 0)
(1.58649 -1.53245 0)
(1.94181 -1.75589 0)
(1.90569 -1.83771 0)
(2.08611 -1.61186 0)
(2.30362 -1.13588 0)
(2.4226 -0.870948 0)
(2.48421 -0.633015 0)
(2.48887 -0.343559 0)
(2.51328 -0.212992 0)
(2.51457 -0.0154036 0)
(2.48309 0.158533 0)
(2.46204 0.286742 0)
(2.416 0.415342 0)
(2.3536 0.545308 0)
(2.31754 0.609359 0)
(2.23136 0.720859 0)
(2.19021 0.755583 0)
(2.17146 0.775305 0)
(2.14838 0.779883 0)
(1.07329 -1.12975 0)
(1.46427 -1.7733 0)
(1.97847 -1.57069 0)
(1.99106 -1.67299 0)
(2.36293 -0.992963 0)
(2.45988 -0.351092 0)
(2.53631 -0.147051 0)
(2.54218 0.0347879 0)
(2.47047 0.220041 0)
(2.45512 0.330505 0)
(2.39435 0.487841 0)
(2.33048 0.606456 0)
(2.28027 0.676264 0)
(2.22754 0.739296 0)
(2.18182 0.768782 0)
(2.13881 0.797854 0)
(2.0848 0.856421 0)
(2.05804 0.894166 0)
(2.0302 0.93932 0)
(2.05777 0.95716 0)
(0.937044 -1.0831 0)
(1.27855 -1.6583 0)
(2.07872 -1.00707 0)
(2.4419 -0.828491 0)
(2.44148 0.0859613 0)
(2.48422 -0.0574067 0)
(2.48673 0.126379 0)
(2.4059 0.377102 0)
(2.34319 0.475707 0)
(2.30123 0.622549 0)
(2.20925 0.766539 0)
(2.12395 0.876987 0)
(2.06439 0.935831 0)
(2.01101 0.988517 0)
(1.97906 0.985885 0)
(1.9541 0.994807 0)
(1.95514 1.01497 0)
(1.97142 0.993541 0)
(1.99631 0.993432 0)
(2.07061 0.977548 0)
(0.847363 -0.693054 0)
(1.2864 -1.31914 0)
(2.199 -0.658376 0)
(2.3515 0.250725 0)
(2.37165 0.152223 0)
(2.36333 0.307594 0)
(2.29216 0.49777 0)
(2.21884 0.628965 0)
(2.14377 0.73964 0)
(2.09207 0.881401 0)
(1.97707 0.993425 0)
(1.91951 1.05117 0)
(1.88625 1.07454 0)
(1.87092 1.08819 0)
(1.87189 1.05816 0)
(1.89505 1.05113 0)
(1.95955 1.02405 0)
(2.16392 0.905183 0)
(2.38481 0.790543 0)
(2.78183 0.436921 0)
(1.07256 -0.138151 0)
(1.99463 0.646932 0)
(2.26591 0.452309 0)
(2.23437 0.499094 0)
(2.19727 0.588548 0)
(2.15856 0.728851 0)
(2.03813 0.908552 0)
(1.96489 0.98193 0)
(1.90311 1.04113 0)
(1.85019 1.12689 0)
(1.78712 1.15666 0)
(1.78836 1.1499 0)
(1.81044 1.12949 0)
(1.85474 1.08559 0)
(2.04372 0.948444 0)
(2.25664 0.829712 0)
(2.65944 0.507933 0)
(3.03438 0.0947102 0)
(3.05495 -0.0233347 0)
(3.00398 -0.00461546 0)
(0.986899 0.0606575 0)
(1.92595 0.705435 0)
(2.10499 0.778123 0)
(1.99749 0.930276 0)
(1.95809 0.975783 0)
(1.86437 1.08777 0)
(1.8024 1.1315 0)
(1.76662 1.1461 0)
(1.76146 1.16324 0)
(1.73475 1.20281 0)
(1.70911 1.19662 0)
(1.85162 1.07484 0)
(2.09508 0.890215 0)
(2.50724 0.579353 0)
(2.99081 0.135389 0)
(3.07433 -0.0298463 0)
(3.00815 -0.00773689 0)
(3.00292 -0.00385942 0)
(3.00122 -0.00220347 0)
(3.00008 -0.000486652 0)
(1.16344 0.761981 0)
(1.82474 1.15683 0)
(1.83777 1.15556 0)
(1.72732 1.20308 0)
(1.70891 1.19173 0)
(1.6679 1.24004 0)
(1.66517 1.21167 0)
(1.7328 1.16576 0)
(1.7646 1.22575 0)
(1.78931 1.1368 0)
(2.26122 0.742727 0)
(2.85165 0.21459 0)
(3.09685 -0.0261324 0)
(3.021 -0.0124748 0)
(3.00423 -0.00523709 0)
(3.00179 -0.00292074 0)
(3.00007 -0.000584166 0)
(2.99998 -2.44491e-05 0)
(2.99999 1.43642e-05 0)
(3 5.9129e-06 0)
(1.5752 1.25749 0)
(1.58123 1.26524 0)
(1.58428 1.27264 0)
(1.59165 1.26289 0)
(1.60907 1.24306 0)
(1.60524 1.26517 0)
(1.92493 1.16387 0)
(2.99525 0.360287 0)
(3.31127 -0.560211 0)
(3 6.14647e-11 0)
(3 -7.30078e-11 0)
(3 7.89585e-11 0)
(3 2.00784e-15 0)
(3 -4.30815e-13 0)
(3 -1.56763e-14 0)
(3 1.53207e-14 0)
(3 -1.29785e-14 0)
(3 -3.78082e-15 0)
(3 -4.54124e-15 0)
(3 -7.63769e-15 0)
(1.58154 1.2521 0)
(1.59211 1.2602 0)
(1.59531 1.27806 0)
(1.59466 1.2849 0)
(1.6585 1.26331 0)
(1.72227 1.2412 0)
(2.27668 0.748194 0)
(2.99732 0.0159012 0)
(3 5.41607e-08 0)
(3 -3.05297e-11 0)
(3 -8.84874e-15 0)
(3 1.57455e-15 0)
(3 -1.6247e-15 0)
(3 -2.45325e-15 0)
(3 4.60482e-16 0)
(3 -4.02753e-16 0)
(3 -2.69848e-15 0)
(3 -3.8801e-15 0)
(3 -3.24748e-15 0)
(3 -4.26459e-15 0)
(1.58805 1.25066 0)
(1.60645 1.25458 0)
(1.61342 1.2622 0)
(1.5943 1.29169 0)
(1.67798 1.23669 0)
(2.18572 0.81275 0)
(2.98441 0.0095139 0)
(3.00054 -0.00101599 0)
(3 6.97881e-07 0)
(3 6.09089e-11 0)
(3 -3.06305e-14 0)
(3 -1.22731e-15 0)
(3 -9.42158e-16 0)
(3 -2.69529e-15 0)
(3 6.92016e-16 0)
(3 -1.25667e-15 0)
(3 -3.04114e-15 0)
(3 -4.73329e-15 0)
(3 -5.56715e-15 0)
(3 -4.03468e-15 0)
(1.58734 1.25346 0)
(1.61085 1.25548 0)
(1.6263 1.25396 0)
(1.63967 1.26861 0)
(1.8567 1.08268 0)
(2.74746 0.212628 0)
(3.00539 -0.00272466 0)
(2.9999 9.475e-05 0)
(3 -8.83026e-07 0)
(3 8.93631e-10 0)
(3 -1.50253e-14 0)
(3 -1.00315e-15 0)
(3 -1.33328e-15 0)
(3 -1.20842e-15 0)
(3 -2.0187e-16 0)
(3 -2.0357e-15 0)
(3 -2.97768e-15 0)
(3 -4.19133e-15 0)
(3 -4.33808e-15 0)
(3 -4.2366e-15 0)
(1.58616 1.26452 0)
(1.59747 1.26045 0)
(1.62547 1.24689 0)
(1.74456 1.19462 0)
(2.38404 0.62571 0)
(3.01905 -0.0175136 0)
(2.99976 0.000191636 0)
(3 -4.41557e-06 0)
(3 8.61584e-08 0)
(3 -9.20732e-10 0)
(3 1.66672e-13 0)
(3 -2.28874e-15 0)
(3 -1.54524e-15 0)
(3 -2.39194e-15 0)
(3 -2.74196e-15 0)
(3 -4.55492e-15 0)
(3 -3.00351e-15 0)
(3 -3.28232e-15 0)
(3 -3.48017e-15 0)
(3 -4.40511e-15 0)
(1.58295 1.27516 0)
(1.57882 1.26951 0)
(1.62878 1.2629 0)
(1.76547 1.16808 0)
(2.68997 0.270875 0)
(3 -5.91649e-10 0)
(3 1.43866e-08 0)
(3 -1.30191e-08 0)
(3 5.68401e-10 0)
(3 3.19654e-12 0)
(3 -9.95601e-14 0)
(3 -2.16687e-15 0)
(3 -2.05756e-15 0)
(3 -2.24946e-15 0)
(3 -2.52126e-15 0)
(3 -3.80049e-15 0)
(3 -2.52867e-15 0)
(3 -3.6774e-15 0)
(3 -2.91234e-15 0)
(3 -4.6186e-15 0)
(1.57929 1.29473 0)
(1.55636 1.291 0)
(1.66866 1.24281 0)
(2.14643 0.849301 0)
(3.01064 -0.01084 0)
(3 -5.47104e-12 0)
(3 -1.82992e-11 0)
(3 2.47658e-11 0)
(3 -3.40253e-12 0)
(3 1.60372e-15 0)
(3 -1.01027e-15 0)
(3 -2.04874e-15 0)
(3 -2.16406e-15 0)
(3 -1.89814e-15 0)
(3 -2.64451e-15 0)
(3 -4.22695e-15 0)
(3 -4.32425e-15 0)
(3 -3.39112e-15 0)
(3 -2.67833e-15 0)
(3 -4.20508e-15 0)
(1.58716 1.32174 0)
(1.50438 1.32846 0)
(1.79323 1.17896 0)
(2.45098 0.532479 0)
(3.00001 -5.94749e-05 0)
(3 -2.62044e-12 0)
(3 1.08506e-13 0)
(3 -1.05927e-13 0)
(3 1.81356e-14 0)
(3 -2.50752e-15 0)
(3 -1.57156e-15 0)
(3 -1.37031e-15 0)
(3 -2.206e-15 0)
(3 -2.30796e-15 0)
(3 -3.08314e-15 0)
(3 -3.93636e-15 0)
(3 -3.32466e-15 0)
(3 -3.89408e-15 0)
(3 -5.24845e-15 0)
(3 -5.21522e-15 0)
(1.59087 1.30861 0)
(1.46592 1.36392 0)
(1.90925 1.05183 0)
(2.84385 0.135082 0)
(3 -1.97785e-08 0)
(3 7.58857e-13 0)
(3 -5.82817e-14 0)
(3 -8.72369e-16 0)
(3 -2.07671e-15 0)
(3 -1.61279e-15 0)
(3 -8.06375e-16 0)
(3 -7.23002e-16 0)
(3 -1.44262e-15 0)
(3 -1.70572e-15 0)
(3 -2.65555e-15 0)
(3 -2.72154e-15 0)
(3 -2.60153e-15 0)
(3 -3.14485e-15 0)
(3 -4.64566e-15 0)
(3 -5.98004e-15 0)
(1.60498 1.29508 0)
(1.47954 1.37845 0)
(2.17453 0.81482 0)
(3.01091 -0.0092815 0)
(3 2.40849e-08 0)
(3 3.28909e-14 0)
(3 2.10166e-14 0)
(3 -1.13839e-15 0)
(3 -1.48384e-15 0)
(3 -1.36334e-15 0)
(3 -1.46929e-16 0)
(3 2.26569e-16 0)
(3 -4.96064e-16 0)
(3 -1.00736e-15 0)
(3 -1.65915e-15 0)
(3 -1.7023e-15 0)
(3 -1.67531e-15 0)
(3 -2.32195e-15 0)
(3 -3.47561e-15 0)
(3 -4.35202e-15 0)
(1.62209 1.27992 0)
(1.57618 1.31142 0)
(2.42004 0.534451 0)
(3 -2.96525e-12 0)
(3 -1.89411e-11 0)
(3 4.92258e-14 0)
(3 -8.16056e-16 0)
(3 -7.78592e-16 0)
(3 -1.3494e-15 0)
(3 -1.26531e-15 0)
(3 8.79896e-17 0)
(3 3.66142e-16 0)
(3 2.1602e-16 0)
(3 -1.28966e-16 0)
(3 -9.23806e-16 0)
(3 -1.66479e-15 0)
(3 -1.37235e-15 0)
(3 -1.14074e-15 0)
(3 -1.95324e-15 0)
(3 -2.15786e-15 0)
(1.63928 1.25994 0)
(1.62419 1.24976 0)
(2.6516 0.289197 0)
(3 4.48549e-13 0)
(3 -3.12424e-14 0)
(3 1.71639e-16 0)
(3 2.04454e-16 0)
(3 -5.80239e-16 0)
(3 -9.96656e-16 0)
(3 -1.05749e-15 0)
(3 4.6398e-17 0)
(3 5.01696e-16 0)
(3 2.86369e-16 0)
(3 1.72848e-16 0)
(3 -3.43942e-16 0)
(3 -1.19244e-15 0)
(3 -1.04406e-15 0)
(3 -9.62122e-16 0)
(3 -1.30778e-15 0)
(3 -1.68355e-15 0)
(1.65704 1.23891 0)
(1.83239 1.10007 0)
(2.87867 0.0902188 0)
(3 -5.36193e-13 0)
(3 4.51159e-16 0)
(3 -1.85777e-16 0)
(3 1.48381e-16 0)
(3 -3.53017e-16 0)
(3 -4.22222e-16 0)
(3 -3.97692e-16 0)
(3 2.32902e-16 0)
(3 8.61786e-16 0)
(3 9.12958e-16 0)
(3 4.49181e-16 0)
(3 1.42283e-16 0)
(3 -4.77452e-16 0)
(3 -6.84043e-16 0)
(3 -8.11903e-16 0)
(3 -1.19331e-15 0)
(3 -1.6113e-15 0)
(1.67331 1.19591 0)
(1.89391 0.982094 0)
(2.99296 0.00603009 0)
(3 -1.57545e-16 0)
(3 -8.49259e-16 0)
(3 -1.0568e-15 0)
(3 -1.05628e-15 0)
(3 -1.13478e-15 0)
(3 -1.23971e-15 0)
(3 -6.42842e-16 0)
(3 1.80036e-16 0)
(3 4.86689e-16 0)
(3 7.94967e-16 0)
(3 8.74666e-16 0)
(3 6.31681e-16 0)
(3 1.93567e-16 0)
(3 4.03886e-17 0)
(3 2.72917e-16 0)
(3 2.16672e-16 0)
(3 -3.3154e-16 0)
(1.68798 1.17556 0)
(2.03453 0.831238 0)
(3 -2.5869e-17 0)
(3 -3.23547e-16 0)
(3 -3.46999e-16 0)
(3 -9.13805e-16 0)
(3 -1.68589e-15 0)
(3 -1.76082e-15 0)
(3 -2.02684e-15 0)
(3 -1.68819e-15 0)
(3 -8.44464e-16 0)
(3 -2.33591e-16 0)
(3 1.74324e-16 0)
(3 5.31198e-16 0)
(3 5.1891e-16 0)
(3 2.60447e-17 0)
(3 -3.46797e-16 0)
(3 -3.32133e-16 0)
(3 -4.86213e-16 0)
(3 -5.75867e-16 0)
(1.77191 1.10633 0)
(2.23282 0.647664 0)
(3 -3.75991e-16 0)
(3 -2.15299e-16 0)
(3 -1.36951e-16 0)
(3 -4.02536e-16 0)
(3 -7.5461e-16 0)
(3 -6.70045e-16 0)
(3 -8.40624e-16 0)
(3 -1.18303e-15 0)
(3 -1.07837e-15 0)
(3 -2.00551e-16 0)
(3 5.43121e-16 0)
(3 8.87975e-16 0)
(3 1.02089e-15 0)
(3 1.05602e-15 0)
(3 9.3359e-16 0)
(3 8.52195e-16 0)
(3 8.68327e-16 0)
(3 7.3726e-16 0)
(1.84603 1.00515 0)
(2.47083 0.432203 0)
(3 1.22347e-15 0)
(3 3.4852e-16 0)
(3 4.20762e-16 0)
(3 4.53768e-16 0)
(3 -4.76629e-17 0)
(3 -5.75976e-16 0)
(3 -4.88162e-16 0)
(3 -4.9799e-16 0)
(3 -2.14485e-16 0)
(3 -1.52526e-16 0)
(3 -1.39766e-16 0)
(3 2.61628e-16 0)
(3 8.96611e-16 0)
(3 1.28025e-15 0)
(3 1.42381e-15 0)
(3 1.25063e-15 0)
(3 1.29147e-15 0)
(3 1.19138e-15 0)
(1.92954 0.865948 0)
(2.71725 0.202572 0)
(3 8.90777e-16 0)
(3 1.22575e-15 0)
(3 1.15987e-15 0)
(3 1.13142e-15 0)
(3 8.76951e-16 0)
(3 7.31142e-16 0)
(3 9.89976e-16 0)
(3 8.87785e-16 0)
(3 5.31664e-16 0)
(3 6.37533e-16 0)
(3 8.53542e-16 0)
(3 1.03362e-15 0)
(3 1.26967e-15 0)
(3 1.3713e-15 0)
(3 1.50822e-15 0)
(3 1.71211e-15 0)
(3 1.89154e-15 0)
(3 2.00562e-15 0)
(2.08957 0.662872 0)
(2.99142 3.17121e-06 0)
(3 9.96989e-16 0)
(3 1.18337e-15 0)
(3 1.18709e-15 0)
(3 1.15938e-15 0)
(3 9.03828e-16 0)
(3 -3.58652e-16 0)
(3 -8.1774e-16 0)
(3 -1.03926e-15 0)
(3 -9.97741e-16 0)
(3 -1.13647e-15 0)
(3 -1.38701e-15 0)
(3 -1.54798e-15 0)
(3 -1.45842e-15 0)
(3 -1.09637e-15 0)
(3 -1.00131e-15 0)
(3 -5.57125e-16 0)
(3 -3.00052e-16 0)
(3 4.55323e-16 0)
(1.99157 0.373315 0)
(2.99986 -1.10425e-05 0)
(3 9.9811e-16 0)
(3 5.86378e-16 0)
(3 4.78317e-16 0)
(3 1.1228e-16 0)
(3 1.26388e-17 0)
(3 2.34882e-16 0)
(3 1.43092e-16 0)
(3 -2.53622e-16 0)
(3 -1.06434e-15 0)
(3 -9.97539e-16 0)
(3 -8.05426e-16 0)
(3 -7.98856e-16 0)
(3 -1.05582e-15 0)
(3 -8.93262e-16 0)
(3 -7.09864e-16 0)
(3 -3.80744e-16 0)
(3 -2.72076e-16 0)
(3 -4.80069e-17 0)
(1.99229 -0.372891 0)
(2.99988 6.53477e-06 0)
(3 -1.81662e-16 0)
(3 -3.43278e-17 0)
(3 -1.49005e-16 0)
(3 2.98723e-18 0)
(3 1.60606e-16 0)
(3 9.98709e-17 0)
(3 1.20836e-16 0)
(3 3.51893e-16 0)
(3 4.63819e-16 0)
(3 5.58641e-16 0)
(3 7.73654e-16 0)
(3 1.13184e-15 0)
(3 2.02052e-15 0)
(3 2.27028e-15 0)
(3 2.43053e-15 0)
(3 2.6847e-15 0)
(3 2.55204e-15 0)
(3 2.64079e-15 0)
(2.0938 -0.66482 0)
(2.99084 -8.24911e-06 0)
(3 -1.58292e-16 0)
(3 -2.77603e-16 0)
(3 -8.94388e-17 0)
(3 -1.05744e-16 0)
(3 8.84475e-17 0)
(3 2.50083e-16 0)
(3 3.59946e-16 0)
(3 5.94857e-16 0)
(3 7.88282e-16 0)
(3 8.83705e-16 0)
(3 1.22935e-15 0)
(3 2.11046e-15 0)
(3 2.54348e-15 0)
(3 2.53345e-15 0)
(3 2.38905e-15 0)
(3 2.12976e-15 0)
(3 1.92498e-15 0)
(3 1.58601e-15 0)
(1.92592 -0.868886 0)
(2.71011 -0.207653 0)
(3 1.09995e-15 0)
(3 8.02363e-16 0)
(3 1.03632e-15 0)
(3 1.36191e-15 0)
(3 1.64578e-15 0)
(3 1.80473e-15 0)
(3 1.79739e-15 0)
(3 1.94537e-15 0)
(3 1.91192e-15 0)
(3 2.1471e-15 0)
(3 2.2592e-15 0)
(3 1.9272e-15 0)
(3 1.53496e-15 0)
(3 1.32308e-15 0)
(3 9.45626e-16 0)
(3 8.83053e-16 0)
(3 6.54784e-16 0)
(3 3.78791e-17 0)
(1.83797 -1.00262 0)
(2.46883 -0.432084 0)
(3 2.44105e-15 0)
(3 2.36813e-15 0)
(3 2.97729e-15 0)
(3 3.32959e-15 0)
(3 3.41503e-15 0)
(3 3.03959e-15 0)
(3 2.87429e-15 0)
(3 2.88719e-15 0)
(3 2.92731e-15 0)
(3 2.9799e-15 0)
(3 2.9413e-15 0)
(3 2.91803e-15 0)
(3 2.98781e-15 0)
(3 2.90459e-15 0)
(3 2.48454e-15 0)
(3 1.82856e-15 0)
(3 1.77485e-15 0)
(3 1.52838e-15 0)
(1.77709 -1.10686 0)
(2.23718 -0.647094 0)
(3 3.08651e-15 0)
(3 3.54786e-15 0)
(3 3.56701e-15 0)
(3 3.40048e-15 0)
(3 3.73259e-15 0)
(3 4.48576e-15 0)
(3 4.46672e-15 0)
(3 4.49853e-15 0)
(3 4.47178e-15 0)
(3 4.39262e-15 0)
(3 4.11968e-15 0)
(3 3.51921e-15 0)
(3 2.64047e-15 0)
(3 2.09437e-15 0)
(3 1.4416e-15 0)
(3 9.41166e-16 0)
(3 2.43381e-16 0)
(3 7.39102e-18 0)
(1.69262 -1.17329 0)
(2.04074 -0.826749 0)
(3 2.60123e-15 0)
(3 2.61804e-15 0)
(3 3.22006e-15 0)
(3 3.8002e-15 0)
(3 4.23055e-15 0)
(3 4.48929e-15 0)
(3 4.35112e-15 0)
(3 4.33398e-15 0)
(3 4.08523e-15 0)
(3 3.31139e-15 0)
(3 2.54432e-15 0)
(3 1.58448e-15 0)
(3 6.8417e-16 0)
(3 6.93127e-16 0)
(3 -5.36068e-17 0)
(3 -5.74457e-16 0)
(3 -7.04109e-16 0)
(3 -5.93843e-16 0)
(1.67031 -1.19873 0)
(1.88721 -0.984429 0)
(2.98738 -0.0104167 0)
(3 3.36249e-15 0)
(3 4.60251e-15 0)
(3 5.30249e-15 0)
(3 5.28376e-15 0)
(3 5.11741e-15 0)
(3 4.72429e-15 0)
(3 4.09112e-15 0)
(3 3.56376e-15 0)
(3 1.96831e-15 0)
(3 1.19182e-15 0)
(3 9.65414e-16 0)
(3 8.35474e-16 0)
(3 5.85579e-16 0)
(3 1.21936e-16 0)
(3 2.84232e-16 0)
(3 4.68562e-16 0)
(3 8.63931e-16 0)
(1.65649 -1.23913 0)
(1.83279 -1.10229 0)
(2.87588 -0.0939811 0)
(3 2.24159e-13 0)
(3 3.83679e-15 0)
(3 5.01764e-15 0)
(3 5.29477e-15 0)
(3 5.17147e-15 0)
(3 4.70796e-15 0)
(3 3.97608e-15 0)
(3 2.87115e-15 0)
(3 1.74355e-15 0)
(3 1.41591e-15 0)
(3 1.35592e-15 0)
(3 1.47492e-15 0)
(3 1.45005e-15 0)
(3 1.44216e-15 0)
(3 1.50005e-15 0)
(3 1.3378e-15 0)
(3 1.31831e-15 0)
(1.63903 -1.26004 0)
(1.62602 -1.24956 0)
(2.65255 -0.289414 0)
(3 -5.08375e-13 0)
(3 1.43586e-14 0)
(3 5.3046e-15 0)
(3 5.73064e-15 0)
(3 5.67802e-15 0)
(3 4.44485e-15 0)
(3 3.782e-15 0)
(3 2.64557e-15 0)
(3 2.02987e-15 0)
(3 2.0676e-15 0)
(3 2.43197e-15 0)
(3 2.51948e-15 0)
(3 2.29261e-15 0)
(3 2.0469e-15 0)
(3 1.9311e-15 0)
(3 1.98597e-15 0)
(3 2.10602e-15 0)
(1.62179 -1.27925 0)
(1.57254 -1.31434 0)
(2.41615 -0.538912 0)
(3 2.93627e-12 0)
(3 3.00024e-11 0)
(3 -4.86183e-14 0)
(3 6.39419e-15 0)
(3 5.65892e-15 0)
(3 5.05643e-15 0)
(3 4.51005e-15 0)
(3 3.94171e-15 0)
(3 3.06142e-15 0)
(3 2.48337e-15 0)
(3 2.62829e-15 0)
(3 2.14845e-15 0)
(3 1.70687e-15 0)
(3 1.59209e-15 0)
(3 1.83489e-15 0)
(3 2.47687e-15 0)
(3 2.63917e-15 0)
(1.60483 -1.29408 0)
(1.47939 -1.37486 0)
(2.18427 -0.808628 0)
(3.01075 0.00916338 0)
(3 -3.08771e-08 0)
(3 1.93434e-12 0)
(3 -1.21721e-14 0)
(3 6.63704e-15 0)
(3 4.98867e-15 0)
(3 3.96738e-15 0)
(3 3.28165e-15 0)
(3 2.14133e-15 0)
(3 1.9866e-15 0)
(3 2.49932e-15 0)
(3 1.78456e-15 0)
(3 1.41552e-15 0)
(3 1.97389e-15 0)
(3 3.09213e-15 0)
(3 2.96028e-15 0)
(3 2.74093e-15 0)
(1.59056 -1.30862 0)
(1.46652 -1.3665 0)
(1.90939 -1.05165 0)
(2.84336 -0.133758 0)
(3 1.98363e-08 0)
(3 -4.2228e-12 0)
(3 4.24155e-14 0)
(3 4.7941e-15 0)
(3 5.34438e-15 0)
(3 3.27997e-15 0)
(3 2.7176e-15 0)
(3 2.02203e-15 0)
(3 1.2561e-15 0)
(3 1.29471e-15 0)
(3 9.99004e-16 0)
(3 1.84314e-15 0)
(3 2.49715e-15 0)
(3 2.48745e-15 0)
(3 2.52085e-15 0)
(3 3.24517e-15 0)
(1.58885 -1.32262 0)
(1.49892 -1.33071 0)
(1.78291 -1.17832 0)
(2.44368 -0.535566 0)
(3 2.59147e-05 0)
(3 1.01342e-11 0)
(3 -2.57009e-13 0)
(3 1.22305e-13 0)
(3 -1.54577e-14 0)
(3 2.64534e-15 0)
(3 2.64624e-15 0)
(3 1.0382e-15 0)
(3 1.08879e-15 0)
(3 1.23078e-15 0)
(3 8.86687e-16 0)
(3 1.85147e-15 0)
(3 1.63844e-15 0)
(3 7.98311e-16 0)
(3 2.40163e-15 0)
(3 2.97679e-15 0)
(1.57921 -1.29591 0)
(1.56063 -1.29478 0)
(1.67606 -1.24154 0)
(2.17166 -0.838023 0)
(3.01778 0.0186972 0)
(3 -2.94189e-12 0)
(3 2.90524e-11 0)
(3 -2.9972e-11 0)
(3 3.3475e-12 0)
(3 5.89691e-16 0)
(3 -3.50893e-16 0)
(3 1.63775e-15 0)
(3 1.16854e-15 0)
(3 1.55142e-15 0)
(3 1.1664e-15 0)
(3 9.08956e-16 0)
(3 2.14267e-16 0)
(3 1.36151e-15 0)
(3 2.08387e-15 0)
(3 3.71699e-15 0)
(1.58246 -1.27492 0)
(1.5786 -1.27022 0)
(1.63187 -1.26331 0)
(1.75448 -1.17801 0)
(2.67541 -0.282905 0)
(3 5.89104e-10 0)
(3 -1.43612e-08 0)
(3 1.29892e-08 0)
(3 -5.65585e-10 0)
(3 -3.14756e-12 0)
(3 1.00801e-13 0)
(3 4.70265e-16 0)
(3 2.4168e-15 0)
(3 2.44953e-15 0)
(3 7.81214e-16 0)
(3 7.87063e-16 0)
(3 1.60144e-15 0)
(3 1.985e-15 0)
(3 2.83836e-15 0)
(3 3.83502e-15 0)
(1.58519 -1.26363 0)
(1.59476 -1.26001 0)
(1.62477 -1.25187 0)
(1.73304 -1.19964 0)
(2.37947 -0.627472 0)
(3.01895 0.0173337 0)
(2.99976 -0.000188078 0)
(3 4.41571e-06 0)
(3 -8.58132e-08 0)
(3 9.24356e-10 0)
(3 -1.76916e-13 0)
(3 2.04193e-15 0)
(3 2.4212e-15 0)
(3 2.33193e-15 0)
(3 6.15526e-16 0)
(3 5.99962e-16 0)
(3 1.98249e-15 0)
(3 3.14909e-15 0)
(3 3.62074e-15 0)
(3 3.11951e-15 0)
(1.5865 -1.25304 0)
(1.60879 -1.25452 0)
(1.62447 -1.25253 0)
(1.64304 -1.26324 0)
(1.87228 -1.07409 0)
(2.75559 -0.207447 0)
(3.00519 0.00247055 0)
(2.9999 -9.34392e-05 0)
(3 9.10182e-07 0)
(3 -8.97815e-10 0)
(3 1.39753e-14 0)
(3 3.08567e-15 0)
(3 2.75373e-15 0)
(3 2.57805e-15 0)
(3 1.18692e-15 0)
(3 9.24483e-16 0)
(3 2.38737e-15 0)
(3 3.28325e-15 0)
(3 3.60306e-15 0)
(3 3.10367e-15 0)
(1.58793 -1.2494 0)
(1.60621 -1.25449 0)
(1.61505 -1.25947 0)
(1.60096 -1.28796 0)
(1.6734 -1.23685 0)
(2.19821 -0.80093 0)
(2.9883 -0.00563457 0)
(3.00053 0.00100556 0)
(3 -7.32185e-07 0)
(3 -6.07589e-11 0)
(3 6.04913e-14 0)
(3 3.20822e-15 0)
(3 3.15826e-15 0)
(3 2.70487e-15 0)
(3 1.63247e-15 0)
(3 8.55576e-16 0)
(3 2.37356e-15 0)
(3 2.6646e-15 0)
(3 3.69439e-15 0)
(3 3.29813e-15 0)
(1.58326 -1.25106 0)
(1.59383 -1.25904 0)
(1.59861 -1.27536 0)
(1.59943 -1.28421 0)
(1.65506 -1.26658 0)
(1.715 -1.24153 0)
(2.26272 -0.7557 0)
(2.99504 -0.0185218 0)
(3 -5.21581e-08 0)
(3 2.99696e-11 0)
(3 6.85772e-15 0)
(3 4.60199e-15 0)
(3 3.66067e-15 0)
(3 2.20554e-15 0)
(3 2.33718e-15 0)
(3 1.54851e-15 0)
(3 1.22464e-15 0)
(3 1.66631e-15 0)
(3 3.65031e-15 0)
(3 3.82768e-15 0)
(1.57606 -1.2583 0)
(1.58185 -1.26576 0)
(1.5856 -1.27296 0)
(1.5924 -1.26412 0)
(1.60653 -1.24543 0)
(1.60159 -1.26632 0)
(1.92198 -1.16877 0)
(2.99175 -0.370243 0)
(3.31026 0.564399 0)
(3 -6.20769e-11 0)
(3 7.33765e-11 0)
(3 -7.87172e-11 0)
(3 1.53257e-15 0)
(3 4.31476e-13 0)
(3 1.68663e-14 0)
(3 -1.57547e-14 0)
(3 1.24082e-14 0)
(3 3.63424e-15 0)
(3 8.53724e-17 0)
(3 1.85107e-15 0)
(1.15903 -0.768034 0)
(1.82631 -1.15518 0)
(1.83984 -1.15405 0)
(1.72764 -1.20377 0)
(1.70682 -1.19129 0)
(1.66751 -1.23932 0)
(1.66417 -1.21092 0)
(1.73338 -1.1654 0)
(1.76765 -1.22543 0)
(1.79396 -1.13545 0)
(2.26444 -0.739797 0)
(2.85364 -0.212371 0)
(3.09774 0.0271209 0)
(3.02115 0.0126091 0)
(3.00422 0.00524698 0)
(3.00177 0.00291082 0)
(3.00006 0.000578477 0)
(2.99998 2.3988e-05 0)
(2.99999 -1.43688e-05 0)
(3 -5.91599e-06 0)
(0.988877 -0.0520551 0)
(1.91807 -0.75782 0)
(2.10832 -0.789895 0)
(2.00304 -0.930164 0)
(1.95131 -0.982416 0)
(1.86123 -1.08981 0)
(1.8021 -1.12939 0)
(1.76758 -1.14509 0)
(1.76294 -1.16276 0)
(1.73695 -1.20242 0)
(1.71118 -1.19625 0)
(1.85093 -1.07414 0)
(2.09236 -0.890039 0)
(2.5046 -0.580287 0)
(2.98983 -0.136268 0)
(3.07435 0.0296367 0)
(3.00816 0.0077292 0)
(3.00292 0.00385671 0)
(3.00122 0.0022033 0)
(3.00008 0.000487422 0)
(1.07825 0.0743899 0)
(1.94095 -0.177651 0)
(2.23803 -0.442179 0)
(2.2259 -0.533651 0)
(2.19779 -0.580282 0)
(2.15535 -0.725221 0)
(2.03732 -0.906228 0)
(1.9669 -0.979721 0)
(1.90406 -1.04113 0)
(1.85205 -1.1271 0)
(1.7881 -1.15666 0)
(1.7885 -1.14977 0)
(1.80914 -1.13004 0)
(1.85379 -1.08617 0)
(2.04391 -0.948615 0)
(2.25763 -0.829506 0)
(2.65976 -0.50783 0)
(3.03436 -0.0947577 0)
(3.05504 0.0233536 0)
(3.00399 0.00462312 0)
(1.04187 0.748767 0)
(1.69291 0.926908 0)
(2.26573 0.674754 0)
(2.34931 -0.128464 0)
(2.3638 -0.202786 0)
(2.3552 -0.3279 0)
(2.29212 -0.497087 0)
(2.22004 -0.630622 0)
(2.14604 -0.740976 0)
(2.09443 -0.882996 0)
(1.97785 -0.993667 0)
(1.9187 -1.0522 0)
(1.88471 -1.07605 0)
(1.87007 -1.08883 0)
(1.87222 -1.05771 0)
(1.89579 -1.05043 0)
(1.95986 -1.02355 0)
(2.16354 -0.905156 0)
(2.38413 -0.791011 0)
(2.78149 -0.437704 0)
(0.944723 1.01729 0)
(1.24086 1.77659 0)
(1.94183 1.48801 0)
(2.29913 0.641032 0)
(2.42038 -0.00811206 0)
(2.48627 0.0795378 0)
(2.48165 -0.144536 0)
(2.40545 -0.388373 0)
(2.34461 -0.482985 0)
(2.30352 -0.628009 0)
(2.20829 -0.7716 0)
(2.12122 -0.881459 0)
(2.06261 -0.937826 0)
(2.01039 -0.988504 0)
(1.98036 -0.983702 0)
(1.95534 -0.992786 0)
(1.95486 -1.01443 0)
(1.97099 -0.993995 0)
(1.99585 -0.994056 0)
(2.0705 -0.978058 0)
(0.935216 0.996922 0)
(1.37607 1.97136 0)
(1.89091 1.75064 0)
(2.04161 1.56905 0)
(2.34537 1.14614 0)
(2.42924 0.356663 0)
(2.5205 0.164181 0)
(2.53564 -0.0232758 0)
(2.46719 -0.214013 0)
(2.45557 -0.322265 0)
(2.39368 -0.48198 0)
(2.32984 -0.600671 0)
(2.28044 -0.67041 0)
(2.22841 -0.73382 0)
(2.18342 -0.764201 0)
(2.13924 -0.795856 0)
(2.08363 -0.857241 0)
(2.05649 -0.896374 0)
(2.02987 -0.940639 0)
(2.05814 -0.957322 0)
(0.979748 0.941409 0)
(1.4594 1.6903 0)
(1.95773 1.92055 0)
(1.97767 1.78657 0)
(2.12218 1.5905 0)
(2.31439 1.12555 0)
(2.41657 0.876704 0)
(2.47602 0.635382 0)
(2.48301 0.360117 0)
(2.50883 0.222247 0)
(2.51251 0.024213 0)
(2.4803 -0.155763 0)
(2.46097 -0.286952 0)
(2.4156 -0.418122 0)
(2.35367 -0.549082 0)
(2.31582 -0.614115 0)
(2.22956 -0.724964 0)
(2.1902 -0.755925 0)
(2.17316 -0.773998 0)
(2.14928 -0.778878 0)
(1.10855 0.97779 0)
(1.3926 1.20142 0)
(1.90497 1.9459 0)
(2.04747 2.0335 0)
(2.18588 1.71694 0)
(2.26792 1.4522 0)
(2.38837 1.16757 0)
(2.47386 0.884364 0)
(2.50267 0.742335 0)
(2.54884 0.509308 0)
(2.60746 0.30651 0)
(2.58542 0.0464984 0)
(2.59209 -0.119183 0)
(2.53741 -0.304571 0)
(2.48207 -0.441296 0)
(2.43812 -0.491064 0)
(2.38966 -0.529003 0)
(2.39142 -0.466081 0)
(2.32791 -0.537173 0)
(2.32723 -0.508771 0)
(1.27238 1.02121 0)
(1.38289 1.11468 0)
(1.64523 1.70226 0)
(1.98315 2.24699 0)
(2.39893 1.81198 0)
(2.43893 1.69275 0)
(2.60158 1.30691 0)
(2.70616 0.932755 0)
(2.75043 0.798382 0)
(2.72269 0.46825 0)
(2.72681 0.319851 0)
(2.68519 0.110306 0)
(2.67926 0.031696 0)
(2.64564 -0.0831335 0)
(2.6118 -0.143468 0)
(2.57403 -0.158534 0)
(2.55128 -0.14444 0)
(2.52896 -0.179624 0)
(2.4501 -0.338029 0)
(2.45669 -0.335155 0)
(1.39964 1.03014 0)
(1.41671 1.07647 0)
(1.53349 1.58782 0)
(1.67055 2.10916 0)
(2.29518 1.96857 0)
(2.49517 1.91475 0)
(2.63115 1.44493 0)
(2.66809 1.13378 0)
(2.70136 0.974595 0)
(2.71808 0.85052 0)
(2.71628 0.759322 0)
(2.70651 0.581983 0)
(2.68296 0.490061 0)
(2.68498 0.396958 0)
(2.65486 0.271953 0)
(2.64918 0.206505 0)
(2.64565 0.0946035 0)
(2.61003 -0.0715985 0)
(2.54596 -0.216234 0)
(2.5627 -0.159771 0)
(1.45281 1.08026 0)
(1.4637 1.12476 0)
(1.47198 1.59452 0)
(1.53676 2.00239 0)
(1.85599 1.96992 0)
(2.09129 1.9136 0)
(2.24803 1.6263 0)
(2.38664 1.45573 0)
(2.46896 1.39035 0)
(2.46983 1.34519 0)
(2.51947 1.16103 0)
(2.57958 1.01353 0)
(2.60267 0.811607 0)
(2.68788 0.710061 0)
(2.68287 0.465784 0)
(2.72193 0.3259 0)
(2.70948 0.12339 0)
(2.68065 -0.00662659 0)
(2.63206 0.00697454 0)
(2.61472 0.0315047 0)
(1.4633 1.2214 0)
(1.50812 1.26483 0)
(1.45646 1.70017 0)
(1.47561 2.0341 0)
(1.67476 2.06519 0)
(1.8658 2.0189 0)
(2.06956 1.84808 0)
(2.17884 1.69754 0)
(2.24911 1.54827 0)
(2.34087 1.49299 0)
(2.46308 1.2611 0)
(2.60142 1.14352 0)
(2.65046 0.847989 0)
(2.75595 0.725786 0)
(2.75104 0.464795 0)
(2.75749 0.390312 0)
(2.74984 0.27806 0)
(2.72295 0.284194 0)
(2.70327 0.386285 0)
(2.66051 0.266381 0)
(1.55353 1.39339 0)
(1.60854 1.42365 0)
(1.48684 1.8427 0)
(1.4845 2.09965 0)
(1.63548 2.09599 0)
(1.80466 2.02688 0)
(1.97839 1.90624 0)
(2.13249 1.72897 0)
(2.25326 1.59764 0)
(2.4393 1.50395 0)
(2.55305 1.23574 0)
(2.69888 1.10672 0)
(2.736 0.921667 0)
(2.75906 0.885603 0)
(2.7778 0.773828 0)
(2.76135 0.776563 0)
(2.74084 0.674449 0)
(2.72511 0.711004 0)
(2.72462 0.669931 0)
(2.715 0.460085 0)
(1.72022 1.50312 0)
(1.76373 1.53016 0)
(1.57465 1.93173 0)
(1.60122 2.14306 0)
(1.66001 2.13293 0)
(1.863 2.05118 0)
(2.02227 1.99096 0)
(2.24435 1.73286 0)
(2.40022 1.69247 0)
(2.55975 1.53218 0)
(2.59171 1.48287 0)
(2.68453 1.35706 0)
(2.69787 1.32347 0)
(2.68371 1.27874 0)
(2.68743 1.17164 0)
(2.6791 1.09555 0)
(2.67612 0.992069 0)