/*--------------------------------*- C++ -*----------------------------------*\
  =========                 |
  \\      /  F ield         | OpenFOAM: The Open Source CFD Toolbox
   \\    /   O peration     | Website:  https://openfoam.org
    \\  /    A nd           | Version:  7
     \\/     M anipulation  |
\*---------------------------------------------------------------------------*/
FoamFile
{
    version     2.0;
    format      ascii;
    class       volScalarField;
    location    "5.9";
    object      p;
}
// * * * * * * * * * * * * * * * * * * * * * * * * * * * * * * * * * * * * * //

dimensions      [1 -1 -2 0 0 0 0];

internalField   nonuniform List<scalar> 
3700
(
0.219227
0.307146
0.341188
0.380615
0.399932
0.383459
0.362337
0.38499
0.401151
0.420613
0.425574
0.437917
0.464272
0.481596
0.485843
0.499393
0.523712
0.515254
0.522708
0.537633
0.150682
0.128776
0.129151
0.126013
0.125494
0.113813
0.10293
0.120569
0.149779
0.178452
0.193374
0.180669
0.163356
0.165988
0.181036
0.204338
0.211256
0.205428
0.208887
0.215707
0.137094
0.0996683
0.0814558
0.0555941
0.0452014
0.0479034
0.0530781
0.0650866
0.0730487
0.0815368
0.0907729
0.0911132
0.0906628
0.0902922
0.0906684
0.0925762
0.0985033
0.10883
0.120829
0.13475
0.112994
0.088538
0.0720411
0.0474415
0.042361
0.0461168
0.0518437
0.0641866
0.0734866
0.0859872
0.104632
0.117807
0.129169
0.134923
0.136865
0.136828
0.134252
0.135691
0.146195
0.174091
0.0887364
0.0759145
0.0602371
0.0401371
0.0418857
0.046751
0.0538306
0.0636443
0.0721438
0.0843026
0.103466
0.121308
0.143364
0.162579
0.175967
0.186753
0.182923
0.18333
0.18272
0.202377
0.0734541
0.0630039
0.0445981
0.0394786
0.0479722
0.0596355
0.0686133
0.0774243
0.0856287
0.0954515
0.103844
0.117912
0.145236
0.176263
0.201706
0.226526
0.24613
0.265137
0.270026
0.286775
0.0572104
0.0489486
0.0384079
0.0447776
0.0564286
0.0720138
0.0851724
0.102038
0.120893
0.140221
0.136492
0.141523
0.152801
0.181255
0.214666
0.253231
0.293317
0.332126
0.364749
0.412062
0.0406291
0.0369645
0.0399333
0.0477117
0.0602669
0.0766514
0.090397
0.114675
0.153775
0.185459
0.202037
0.218743
0.22697
0.244423
0.263049
0.296051
0.341083
0.405581
0.461023
0.560942
0.0275693
0.0286507
0.0408683
0.0506924
0.0621918
0.0783488
0.0888799
0.114732
0.164734
0.213814
0.256698
0.290952
0.330932
0.369029
0.396148
0.427491
0.457998
0.517063
0.586079
0.7394
0.0198538
0.0231525
0.0396736
0.0526117
0.06642
0.0890477
0.0947421
0.114347
0.159775
0.224422
0.289937
0.347415
0.422157
0.480419
0.541579
0.601846
0.65965
0.71702
0.80495
0.952411
0.0163481
0.0199736
0.0381947
0.0570516
0.0817581
0.112774
0.128521
0.166845
0.21651
0.264265
0.338164
0.419887
0.518333
0.600472
0.694725
0.799236
0.904346
0.992586
1.15264
1.12091
0.0149823
0.0190302
0.0401018
0.0705521
0.113337
0.155886
0.200123
0.280841
0.373189
0.467595
0.556646
0.640511
0.728573
0.812511
0.908168
1.04547
1.20912
1.35399
1.56343
1.51138
0.0152134
0.0225041
0.0464253
0.0934266
0.14213
0.189096
0.271179
0.38695
0.528351
0.694676
0.826481
0.953204
1.07179
1.18337
1.30371
1.45781
1.64302
1.83022
2.10982
2.10214
0.0175421
0.0285317
0.0552322
0.104208
0.148697
0.19634
0.329056
0.480309
0.680993
0.926752
1.12852
1.31997
1.4981
1.6705
1.87877
2.10563
2.32815
2.57917
2.8096
3.00325
0.0195518
0.0335651
0.0624346
0.0983607
0.142169
0.278486
0.498377
0.761167
1.10136
1.41428
1.67644
1.90752
2.13578
2.37779
2.68787
2.97355
3.24695
3.50218
3.66752
3.79294
0.0150659
0.0353656
0.0746721
0.103673
0.285207
0.714208
1.10872
1.52071
1.98125
2.36277
2.64387
2.8994
3.15463
3.44182
3.76751
3.96767
4.08612
4.12982
4.0381
3.91374
0.00821954
0.0276671
0.129092
0.362958
0.894872
1.49779
2.05535
2.62004
3.19114
3.56047
3.79041
4.01781
4.21223
4.367
4.47482
4.40315
4.18819
3.65637
2.79833
1.89299
0.0298535
0.146951
0.492257
1.20956
2.15146
2.89928
3.52505
4.18951
4.76325
4.83712
4.76159
4.74495
4.69529
4.51775
4.00826
3.05809
2.09055
1.3344
1.01912
0.992884
0.308127
0.873065
1.99955
3.1841
4.18962
4.8516
5.43612
5.8858
5.73687
5.28675
4.86245
4.32619
3.4072
2.33422
1.42781
1.02954
0.98941
0.99493
0.997316
0.999434
2.31437
3.63519
4.8737
5.69023
6.25044
6.4437
6.57278
6.24731
4.54134
3.2046
2.36502
1.55871
1.07919
0.987275
0.992854
0.996299
0.999178
0.999976
1.00002
1.00001
6.95368
6.9024
6.86504
6.90228
7.00329
6.78207
6.00439
2.34965
0.64452
1
1
1
1
1
1
1
1
1
1
1
6.95101
6.88645
6.80919
6.73817
6.68752
5.76196
2.69042
1.03189
1
1
1
1
1
1
1
1
1
1
1
1
6.79371
6.8398
6.83885
6.71935
6.31318
3.35855
1.03279
0.9993
1
1
1
1
1
1
1
1
1
1
1
1
6.67124
6.80427
6.82998
6.65986
4.69662
1.37749
0.994369
1.00011
0.999999
1
1
1
1
1
1
1
1
1
1
1
6.5694
6.80186
6.79711
6.01952
2.70745
0.975789
1.00035
0.999994
1
1
1
1
1
1
1
1
1
1
1
1
6.47009
6.83278
6.78268
4.95651
1.49107
1
1
1
1
1
1
1
1
1
1
1
1
1
1
1
6.39998
6.71164
6.74185
3.56206
0.972975
1
1
1
1
1
1
1
1
1
1
1
1
1
1
1
6.456
6.61516
6.00624
2.05636
0.999996
1
1
1
1
1
1
1
1
1
1
1
1
1
1
1
6.9863
6.65191
4.87303
1.20392
1
1
1
1
1
1
1
1
1
1
1
1
1
1
1
1
7.28743
6.41804
3.41227
0.988024
1
1
1
1
1
1
1
1
1
1
1
1
1
1
1
1
7.43312
5.95137
2.31809
1
1
1
1
1
1
1
1
1
1
1
1
1
1
1
1
1
7.49598
5.4051
1.60863
1
1
1
1
1
1
1
1
1
1
1
1
1
1
1
1
1
7.51556
4.76395
1.18042
1
1
1
1
1
1
1
1
1
1
1
1
1
1
1
1
1
7.35797
4.02599
1.01909
1
1
1
1
1
1
1
1
1
1
1
1
1
1
1
1
1
7.25849
3.18011
1
1
1
1
1
1
1
1
1
1
1
1
1
1
1
1
1
1
6.92579
2.47358
1
1
1
1
1
1
1
1
1
1
1
1
1
1
1
1
1
1
6.61766
1.91513
1
1
1
1
1
1
1
1
1
1
1
1
1
1
1
1
1
1
6.36669
1.38754
1
1
1
1
1
1
1
1
1
1
1
1
1
1
1
1
1
1
5.70009
1.0064
1
1
1
1
1
1
1
1
1
1
1
1
1
1
1
1
1
1
4.63501
1.00006
1
1
1
1
1
1
1
1
1
1
1
1
1
1
1
1
1
1
4.63922
1.00006
1
1
1
1
1
1
1
1
1
1
1
1
1
1
1
1
1
1
5.68612
1.00628
1
1
1
1
1
1
1
1
1
1
1
1
1
1
1
1
1
1
6.37139
1.38673
1
1
1
1
1
1
1
1
1
1
1
1
1
1
1
1
1
1
6.62463
1.92432
1
1
1
1
1
1
1
1
1
1
1
1
1
1
1
1
1
1
6.91023
2.47817
1
1
1
1
1
1
1
1
1
1
1
1
1
1
1
1
1
1
7.26534
3.16976
1
1
1
1
1
1
1
1
1
1
1
1
1
1
1
1
1
1
7.36244
4.02224
1.01861
1
1
1
1
1
1
1
1
1
1
1
1
1
1
1
1
1
7.51132
4.76101
1.18199
1
1
1
1
1
1
1
1
1
1
1
1
1
1
1
1
1
7.49271
5.41646
1.60985
1
1
1
1
1
1
1
1
1
1
1
1
1
1
1
1
1
7.42993
5.95315
2.3259
1
1
1
1
1
1
1
1
1
1
1
1
1
1
1
1
1
7.28141
6.40668
3.42126
0.988073
1
1
1
1
1
1
1
1
1
1
1
1
1
1
1
1
6.99193
6.66572
4.87433
1.19422
1
1
1
1
1
1
1
1
1
1
1
1
1
1
1
1
6.45835
6.61255
6.00363
2.05819
0.999992
1
1
1
1
1
1
1
1
1
1
1
1
1
1
1
6.386
6.69543
6.73696
3.55327
0.973067
1
1
1
1
1
1
1
1
1
1
1
1
1
1
1
6.46237
6.83167
6.79369
4.97714
1.4839
1
1
1
1
1
1
1
1
1
1
1
1
1
1
1
6.57159
6.81396
6.79815
6.0033
2.73006
0.975484
1.00035
0.999994
1
1
1
1
1
1
1
1
1
1
1
1
6.67944
6.81103
6.82758
6.64409
4.69308
1.37471
0.994578
1.00011
0.999999
1
1
1
1
1
1
1
1
1
1
1
6.79488
6.84034
6.84008
6.7271
6.35086
3.34564
1.0292
0.999405
1
1
1
1
1
1
1
1
1
1
1
1
6.94896
6.88778
6.81919
6.73609
6.6829
5.76058
2.68727
1.0323
1
1
1
1
1
1
1
1
1
1
1
1
6.95496
6.90577
6.87151
6.88977
6.97983
6.77415
6.0081
2.36976
0.640046
1
1
1
1
1
1
1
1
1
1
1
2.3155
3.64326
4.88411
5.68766
6.23603
6.43695
6.5681
6.24922
4.54343
3.20537
2.36456
1.5571
1.0783
0.987174
0.992813
0.996281
0.999174
0.999976
1.00002
1.00001
0.302725
0.851297
1.9888
3.18717
4.18009
4.84612
5.43725
5.88726
5.73712
5.28503
4.86056
4.32539
3.40699
2.33585
1.4295
1.03005
0.989426
0.994939
0.997322
0.999436
0.0365945
0.167594
0.510817
1.20662
2.15533
2.90221
3.52608
4.18968
4.76036
4.83642
4.76406
4.74844
4.70022
4.52165
4.00852
3.0572
2.09004
1.33406
1.01901
0.992891
0.00623189
0.0274413
0.107678
0.375039
0.898269
1.49798
2.05627
2.61922
3.19184
3.56201
3.79352
4.0228
4.21706
4.36692
4.47231
4.40093
4.18648
3.65471
2.79699
1.89229
0.0117096
0.0322433
0.0792672
0.0957885
0.268585
0.704985
1.10675
1.52061
1.981
2.36446
2.6491
2.90768
3.16126
3.44391
3.76764
3.96789
4.08593
4.12924
4.03735
3.913
0.0229042
0.0380864
0.0632142
0.0844247
0.149934
0.278593
0.4912
0.754635
1.0959
1.41147
1.67726
1.90872
2.1355
2.37534
2.68491
2.97063
3.24448
3.49962
3.66521
3.79259
0.0241657
0.0341587
0.0550681
0.0980067
0.152276
0.197805
0.327774
0.474961
0.675408
0.918165
1.12156
1.31401
1.49439
1.66793
1.87902
2.10664
2.32901
2.57801
2.8103
3.00495
0.0211138
0.0301862
0.0463495
0.090885
0.143238
0.190907
0.274756
0.388124
0.528887
0.694649
0.826297
0.953774
1.07345
1.18692
1.3088
1.46172
1.64277
1.82778
2.1084
2.10241
0.0174156
0.0269438
0.0417978
0.0677193
0.113591
0.15813
0.205338
0.286176
0.377408
0.474736
0.563177
0.646754
0.733309
0.8167
0.908753
1.04156
1.20538
1.35231
1.56532
1.51403
0.017521
0.0264433
0.0410365
0.0525585
0.0797501
0.11709
0.130679
0.171501
0.222054
0.267374
0.335721
0.416085
0.514292
0.597454
0.691298
0.797282
0.904603
0.995609
1.15483
1.12127
0.0207077
0.0295838
0.0418182
0.0490222
0.0639745
0.0924276
0.0953048
0.113992
0.156629
0.218302
0.285162
0.343176
0.419867
0.478968
0.541451
0.603195
0.662963
0.720002
0.80554
0.95159
0.027174
0.0339261
0.0421391
0.0460471
0.0588431
0.0802991
0.0876798
0.112154
0.162047
0.211844
0.256519
0.291474
0.333186
0.371034
0.399455
0.431162
0.461026
0.515736
0.58266
0.736557
0.0377073
0.0380901
0.0414764
0.0444876
0.0566894
0.0763929
0.0899221
0.113248
0.154367
0.187777
0.206645
0.223505
0.231443
0.24869
0.265384
0.295155
0.336756
0.401216
0.458177
0.561237
0.0521436
0.0454261
0.0386517
0.0429687
0.0534579
0.0715978
0.0864946
0.102516
0.123657
0.145919
0.139662
0.143838
0.1524
0.178275
0.210508
0.248695
0.289573
0.330224
0.365089
0.415766
0.0695298
0.0581414
0.0407857
0.0396368
0.0454942
0.0593689
0.0713255
0.0784637
0.0871303
0.0979316
0.103965
0.116642
0.142505
0.173316
0.199045
0.224222
0.245603
0.266116
0.274328
0.290252
0.0805235
0.0726025
0.056216
0.0402655
0.0403359
0.0447256
0.0544467
0.0632582
0.0718117
0.0841045
0.102258
0.120022
0.142224
0.161906
0.175041
0.187811
0.186253
0.187307
0.186258
0.202522
0.0893819
0.0832037
0.0754896
0.0511291
0.0406011
0.0433326
0.050761
0.0632534
0.0729148
0.0858941
0.104443
0.118089
0.129593
0.136229
0.137931
0.139761
0.137366
0.137969
0.146407
0.173213
0.10809
0.0940767
0.085445
0.0636066
0.0444624
0.0456427
0.0519764
0.0644295
0.0735326
0.0820287
0.0926323
0.0918985
0.091955
0.0916105
0.0915915
0.0930938
0.0987687
0.108934
0.120603
0.13493
0.133021
0.108703
0.111012
0.0900227
0.0665476
0.0808085
0.112749
0.138106
0.13636
0.146241
0.167474
0.191809
0.207557
0.204556
0.181533
0.157564
0.161605
0.180171
0.207052
0.210155
0.204912
0.267697
0.325758
0.324624
0.323595
0.33912
0.363997
0.396848
0.398016
0.411883
0.43175
0.448139
0.469847
0.478391
0.468711
0.464673
0.499897
0.515611
0.527079
0.52954
0.565114
0.633348
0.711055
0.821034
0.820724
0.827114
0.832469
0.858874
0.899154
0.931358
0.936467
0.926177
0.927566
0.945426
0.964815
0.963769
0.957645
0.953831
0.951257
0.954496
0.298237
0.421982
0.54103
0.690669
0.767415
0.832019
0.828854
0.84411
0.884206
0.922464
0.934173
0.935733
0.930864
0.936944
0.953952
0.966059
0.97163
0.970236
0.958273
0.949409
0.13856
0.162919
0.235798
0.331552
0.535249
0.704358
0.763859
0.828785
0.886161
0.92137
0.93101
0.932452
0.930803
0.932847
0.940082
0.953149
0.967597
0.97082
0.965171
0.95506
0.192645
0.212937
0.232815
0.241676
0.264872
0.356914
0.563981
0.733356
0.821928
0.884368
0.926197
0.927311
0.930245
0.933275
0.935405
0.944365
0.962156
0.967052
0.964262
0.959117
0.238254
0.259453
0.267279
0.287407
0.304588
0.299467
0.322965
0.419611
0.606044
0.771893
0.877493
0.913763
0.9363
0.939079
0.932978
0.940571
0.954705
0.957744
0.958106
0.962489
0.304037
0.323537
0.329819
0.332674
0.337108
0.341621
0.343818
0.336013
0.361425
0.474146
0.677469
0.845891
0.925842
0.94829
0.936549
0.938281
0.94866
0.949757
0.952362
0.962967
0.39988
0.405806
0.377604
0.365906
0.374459
0.384492
0.381695
0.379114
0.370175
0.368256
0.437688
0.639438
0.848412
0.948639
0.93664
0.943722
0.938814
0.933109
0.945424
0.965197
0.53133
0.508626
0.454954
0.408067
0.40874
0.425967
0.430952
0.425361
0.411691
0.39053
0.387402
0.436586
0.622457
0.861534
0.928116
0.947831
0.934622
0.931459
0.951728
0.967729
0.684821
0.626385
0.549956
0.461995
0.456557
0.468966
0.475186
0.466578
0.4502
0.425939
0.402049
0.402975
0.439511
0.616248
0.840267
0.939059
0.920492
0.930556
0.962125
0.966222
0.863109
0.777102
0.673945
0.551723
0.513955
0.507626
0.512537
0.502247
0.489446
0.462526
0.438184
0.42099
0.425166
0.456071
0.621527
0.843471
0.882451
0.933635
0.970114
0.961092
1.24469
0.965817
0.848375
0.716298
0.591541
0.559495
0.570812
0.576882
0.561153
0.535927
0.504245
0.471187
0.459755
0.464186
0.48633
0.575507
0.752271
0.890391
0.936302
0.949725
2.04801
1.43611
1.17675
1.03617
0.870528
0.71966
0.675657
0.660465
0.622792
0.583031
0.562648
0.54074
0.521336
0.510927
0.494664
0.493491
0.529012
0.641555
0.786641
0.907006
2.50859
2.17371
1.69713
1.35425
1.13535
0.94947
0.782952
0.744707
0.704453
0.656011
0.655777
0.64145
0.609452
0.577588
0.549525
0.518013
0.521888
0.534574
0.578974
0.748339
2.36605
2.35022
2.2352
1.92017
1.5534
1.30213
1.06251
0.942164
0.891246
0.821798
0.765429
0.71457
0.659272
0.610972
0.601357
0.585845
0.563417
0.554549
0.548614
0.583681
1.6793
2.14469
2.22183
2.19591
2.05633
1.78398
1.49479
1.22332
1.07924
0.960567
0.860677
0.806568
0.744563
0.701871
0.700724
0.687896
0.65375
0.617133
0.572887
0.574542
1.10826
1.43699
1.84953
2.11435
2.11406
2.07247
1.9353
1.68158
1.42784
1.23255
1.06312
0.989753
0.92879
0.85514
0.797889
0.746019
0.694535
0.65536
0.630359
0.605335
1.00452
1.04441
1.20686
1.54944
1.86637
2.0204
2.01443
1.96905
1.82908
1.63068
1.40074
1.2101
1.08752
0.971986
0.881465
0.822317
0.769873
0.731803
0.727096
0.697762
1.00009
1.00112
1.01056
1.07989
1.27047
1.57389
1.82121
1.93434
1.92844
1.88893
1.77464
1.57938
1.38597
1.22016
1.08246
1.00745
0.942375
0.881784
0.831628
0.761235
1
1.00001
1.00015
1.0026
1.01893
1.10086
1.29166
1.55809
1.76638
1.85782
1.8531
1.81698
1.71609
1.55925
1.37855
1.21906
1.10253
1.00291
0.921939
0.830274
1
1
1
1.00003
1.00032
1.00391
1.02488
1.10837
1.28551
1.52273
1.70348
1.78887
1.78434
1.75669
1.67864
1.53723
1.38163
1.23289
1.12454
0.997326
1
1
1
1
1
1.00005
1.0005
1.0047
1.02639
1.10545
1.26418
1.47734
1.63685
1.72499
1.72292
1.70343
1.64389
1.52836
1.39633
1.19595
1
1
1
1
1
1
1
1.00006
1.00058
1.00474
1.0256
1.09404
1.23284
1.42427
1.57572
1.66515
1.66446
1.65255
1.61601
1.46323
1
1
1
1
1
1
1
1
1.00001
1.00006
1.0006
1.0041
1.02236
1.07959
1.19851
1.36747
1.51202
1.60768
1.61266
1.58967
1
1
1
1
1
1
1
1
1
1
1.00001
1.00005
1.00053
1.00335
1.01755
1.06492
1.1625
1.31314
1.44522
1.55103
1
1
1
1
1
1
1
1
1
1
1
1
1.00001
1.00004
1.00041
1.0026
1.0139
1.05118
1.13652
1.38889
1.62331
2.46044
2.58144
2.08566
1.3107
1.03701
1.00187
1.00005
1
1
1
1
1
1
1
2.3418
2.81415
2.52588
1.54147
1.04847
1.00082
1
1
1
1
1
1
1
1
1
2.93201
2.86833
1.98059
1.15272
1.00524
1.00005
1
1
1
1
1
1
1
1
1
3.25226
2.55687
1.36379
1.0191
1.00018
1
1
1
1
1
1
1
1
1
1
3.32497
1.68212
1.04705
1.00052
1
1
1
1
1
1
1
1
1
1
1
2.06879
1.07337
1.00048
0.999999
1
1
1
1
1
1
1
1
1
1
1
1.10223
1.00056
0.999997
1
1
1
1
1
1
1
1
1
1
1
1
0.998138
0.999864
0.999996
1
1
1
1
1
1
1
1
1
1
1
1
0.999966
1
1
1
1
1
1
1
1
1
1
1
1
1
1
1
1
1
1
1
1
1
1
1
1
1
1
1
1
1
1
1
1
1
1
1
1
1
1
1
1
1
1
1
1
1
1
1
1
1
1
1
1
1
1
1
1
1
1
1
1
1
1
1
1
1
1
1
1
1
1
1
1
1
1
1
1
1
1
1
1
1
1
1
1
1
1
1
1
1
1
1
1
1
1
1
1
1
1
1
1
1
1
1
1
1
1
1
1
1
1
1
1
1
1
1
1
1
1
1
1
1
1
1
1
1
1
1
1
1
1
1
1
1
1
1
1
1
1
1
1
1
1
1
1
1
1
1
1
1
1
1
1
1
1
1
1
1
1
1
1
1
1
1
1
1
1
1
1
1
1
1
1
1
1
1
1
1
1
1
1
1
1
1
1
1
1
1
1
1
1
1
1
1
1
1
1
1
1
1
1
1
1
1
1
1
1
1
1
1
1
1
1
1
1
1
1
1
1
1
1
1
1
1
1
1
1
1
1
1
1
1
1
1
1
1
1
1
1
1
1
1
1
1
1
1
1
1
1
1
1
1
1
1
1
1
1
1
1
1
1
1
1
1
1
1
1
1
1
1
1
1
1
1
1
1
1
1
1
1
1
1
1
1
1
1
1
1
1
1
1
1
1
1
1
1
1
1
1
1
1
1
1
1
1
1
1
1
1
1
1
1
1
1
1
1
1
1
1
1
1
1
1
1
1
1
1
1
1
1
1
1
1
1
1
1
1
1
1
1
1
1
1
1
1
1
1
1
1
1
1
1
1
1
1
1
1
1
1
1
1
1
1
1
1
1
1
1
1
1
1
1
1
1
1
1
1
1
1
1
1
1
1
1
1
1
1
1
1
1
1
1
1
1
1
1
1
1
1
1
1
1
1
1
1
1
1
1
1
1
1
1
1
1
1
1
1
1
1
1
1
1
1
1
1
1
1
1
1
1
1
1
1
1
1
1
1
1
1
1
1
1
1
1
1
1
1
1
1
1
1
1
1
1
1
1
1
1
1
1
1
1
1
1
1
1
1
1
1
1
1
1
1
1
1
1
1
1
1
1
1
1
1
1
1
1
1
1
1
1
1
1
1
1
1
1
1
1
1
1
1
1
1
1
1
1
1
1
1
1
1
1
1
1
1
1
1
1
1
1
1
1
1
1
1
1
1
1
1
1
1
1
1
1
1
1
1
1
1
1
1
1
1
1
1
1
1
1
1
1
1
1
1
1
1
1
1
1
1
1
1
1
1
1
1
1
1
1
1
1
1
1
1
1
1
1
1
1
1
1
1
1
1
1
1
1
1
1
1
1
1
1
1
1
1
1
1
1
1
1
1
1
1
1
1
1
1
1
1
1
1
1
1
1
1
1
1
1
1
1
1
1
1
1
1
1
1
1
1
1
1
1
1
1
1
1
1
1
1
1
1
1
1
1
1
1
1
1
1
1
1
1
1
1
1
1
1
1
1
1
1
1
1
1
1
1
1
1
1
1
1
1
1
1
1
1
1
1
1
1
1
1
1
1
1
1
1
1
1
1
1
1
1
1
1
1
1
1
1
1
1
1
1
1
1
1
1
1
1
1
1
1
1
1
1
1
1
1
1
1
1
1
1
1
1
1
1
1
1
1
1
1
1
1
1
1
1
1
1
1
1
1
1
1
1
1
1
1
1
1
1
1
1
1
1
1
1
1
1
1
1
1
1
1
1
1
1
1
1
1
1
1
1
1
1
1
1
1
1
1
1
1
1
1
1
1
1
1
1
1
1
1
1
1
1
1
1
1
1
1
1
1
1
1
1
1
1
1
1
1
1
1
1
1
1
1
1
1
1
1
1
1
1
1
1
1
1
1
1
1
1
1
1
1
1
1
1
1
1
1
1
1
1
1
1
0.999966
1
1
1
1
1
1
1
1
1
1
1
1
1
1
0.998141
0.999864
0.999996
1
1
1
1
1
1
1
1
1
1
1
1
1.1021
1.00056
0.999997
1
1
1
1
1
1
1
1
1
1
1
1
2.0684
1.07333
1.00048
0.999999
1
1
1
1
1
1
1
1
1
1
1
3.32524
1.68238
1.04706
1.00052
1
1
1
1
1
1
1
1
1
1
1
3.25269
2.55707
1.36387
1.01915
1.00018
1
1
1
1
1
1
1
1
1
1
2.9328
2.86829
1.98079
1.1527
1.00523
1.00005
1
1
1
1
1
1
1
1
1
2.3413
2.8143
2.52566
1.54175
1.04854
1.00082
1
1
1
1
1
1
1
1
1
1.62389
2.46042
2.58108
2.08537
1.31066
1.03701
1.00187
1.00005
1
1
1
1
1
1
1
1.23674
2.05031
2.50931
2.36696
1.68077
1.10839
1.00452
1.00009
1
1
1
1
1
1
1
0.964845
1.43254
2.17354
2.35083
2.14152
1.43616
1.04439
1.00112
1.00001
1
1
1
1
1
1
0.854862
1.17192
1.69461
2.23287
2.222
1.84962
1.20686
1.01056
1.00015
1
1
1
1
1
1
0.722984
1.03298
1.3546
1.91913
2.1967
2.11486
1.54899
1.07976
1.00259
1.00003
1
1
1
1
1
0.593018
0.866709
1.13418
1.56187
2.05942
2.11436
1.86619
1.2701
1.01891
1.00032
1
1
1
1
1
0.563726
0.737926
0.941048
1.28595
1.7873
2.07419
2.02074
1.57326
1.10067
1.00391
1.00005
1
1
1
1
0.568536
0.682305
0.802394
1.06659
1.48634
1.9338
2.01409
1.82091
1.2915
1.02488
1.0005
1
1
1
1
0.570699
0.652927
0.751277
0.962746
1.23086
1.6742
1.9685
1.93365
1.55803
1.10853
1.00471
1.00006
1
1
1
0.554192
0.613957
0.691936
0.887351
1.09221
1.43297
1.82748
1.92783
1.76618
1.28581
1.02645
1.00058
1.00001
1
1
0.536508
0.580583
0.656036
0.80647
0.956521
1.24481
1.63121
1.88897
1.85782
1.52286
1.10552
1.00474
1.00006
1
1
0.510006
0.566803
0.662493
0.760487
0.844904
1.06607
1.40351
1.77447
1.85313
1.70356
1.26412
1.02558
1.0006
1.00001
1
0.47362
0.545034
0.651117
0.721989
0.793844
0.978546
1.21233
1.57841
1.81675
1.7887
1.47716
1.09398
1.0041
1.00005
1
0.455616
0.523584
0.615521
0.666382
0.741232
0.918177
1.08535
1.3866
1.71659
1.78415
1.6366
1.23277
1.02236
1.00053
1.00001
0.454345
0.511507
0.577111
0.609409
0.706435
0.850974
0.970953
1.2229
1.55926
1.75637
1.72468
1.42414
1.07961
1.00336
1.00004
0.475781
0.485257
0.551099
0.604572
0.704173
0.798531
0.881403
1.08456
1.37688
1.67798
1.72265
1.57562
1.19852
1.01755
1.00041
0.569078
0.486682
0.51841
0.592269
0.691441
0.749478
0.820589
1.00254
1.21809
1.53688
1.70333
1.66509
1.36742
1.06496
1.0026
0.750033
0.522754
0.519899
0.568151
0.657381
0.694677
0.766723
0.939388
1.10372
1.38137
1.64376
1.66448
1.51221
1.16253
1.01391
0.894314
0.639221
0.531209
0.547987
0.620537
0.651853
0.731806
0.88164
1.00399
1.23254
1.52873
1.65271
1.60776
1.31328
1.05122
0.941869
0.792089
0.576864
0.545174
0.577141
0.628297
0.729223
0.831389
0.922399
1.12557
1.39692
1.61626
1.6129
1.44551
1.13666
0.952431
0.909588
0.747036
0.583188
0.578774
0.604507
0.701745
0.759717
0.829602
0.998779
1.19615
1.46358
1.58995
1.55135
1.38915
0.864509
0.774938
0.67608
0.556147
0.51506
0.508063
0.515711
0.502672
0.486867
0.472263
0.446014
0.416186
0.419101
0.454123
0.616373
0.836027
0.885
0.942178
0.972208
0.961646
0.68626
0.624378
0.550543
0.464498
0.455031
0.468696
0.476266
0.46668
0.452777
0.435831
0.405239
0.399272
0.434027
0.611771
0.836219
0.944579
0.921393
0.933542
0.963791
0.964915
0.53011
0.509102
0.459626
0.404249
0.399936
0.419537
0.427363
0.42587
0.41811
0.398693
0.386778
0.435776
0.616933
0.839076
0.938285
0.957279
0.94728
0.938249
0.955076
0.963419
0.399955
0.406441
0.378295
0.364765
0.373342
0.38523
0.379908
0.382047
0.378825
0.372083
0.445371
0.644306
0.84154
0.947591
0.945233
0.953978
0.952913
0.942222
0.945576
0.958096
0.303677
0.324143
0.329938
0.330593
0.335009
0.340736
0.339472
0.335755
0.362946
0.480948
0.685542
0.845317
0.928942
0.950813
0.943187
0.948789
0.955694
0.951963
0.949271
0.956867
0.236645
0.262265
0.266697
0.282724
0.303369
0.300017
0.321338
0.420258
0.609406
0.775731
0.864195
0.912477
0.941503
0.945389
0.936893
0.941801
0.953002
0.954126
0.957752
0.960862
0.192213
0.213287
0.232274
0.240605
0.262834
0.345214
0.553612
0.739295
0.818029
0.872126
0.914595
0.926711
0.936157
0.938325
0.935022
0.941444
0.95384
0.960194
0.963434
0.966422
0.139283
0.156784
0.229439
0.329812
0.53091
0.69387
0.764736
0.841175
0.885818
0.903103
0.920698
0.934073
0.939353
0.939067
0.93963
0.946722
0.956667
0.960305
0.963094
0.966509
0.280842
0.406661
0.538286
0.692453
0.764042
0.827291
0.83372
0.856666
0.890661
0.913656
0.930597
0.94021
0.93772
0.937418
0.94562
0.956498
0.960029
0.960033
0.959386
0.964531
0.558983
0.631029
0.710664
0.821542
0.820033
0.83592
0.83245
0.859743
0.896407
0.91516
0.922485
0.937619
0.934152
0.942466
0.960955
0.965591
0.962605
0.959112
0.95437
0.959164
)
;

boundaryField
{
    inlet
    {
        type            fixedValue;
        value           uniform 1;
    }
    outlet
    {
        type            zeroGradient;
    }
    airfoil
    {
        type            zeroGradient;
    }
    top
    {
        type            symmetryPlane;
    }
    bottom
    {
        type            symmetryPlane;
    }
    defaultFaces
    {
        type            empty;
    }
}


// ************************************************************************* //
