/*--------------------------------*- C++ -*----------------------------------*\
  =========                 |
  \\      /  F ield         | OpenFOAM: The Open Source CFD Toolbox
   \\    /   O peration     | Website:  https://openfoam.org
    \\  /    A nd           | Version:  7
     \\/     M anipulation  |
\*---------------------------------------------------------------------------*/
FoamFile
{
    version     2.0;
    format      ascii;
    class       volScalarField;
    location    "5.9";
    object      rho;
}
// * * * * * * * * * * * * * * * * * * * * * * * * * * * * * * * * * * * * * //

dimensions      [1 -3 0 0 0 0 0];

internalField   nonuniform List<scalar> 
3700
(
0.304458
0.425956
0.473063
0.527511
0.554338
0.531648
0.502626
0.533927
0.555785
0.582196
0.589042
0.606206
0.642835
0.666871
0.6726
0.691344
0.725057
0.71356
0.724109
0.744843
0.210053
0.179531
0.180005
0.175482
0.174661
0.158523
0.143577
0.168105
0.208459
0.248103
0.268845
0.251374
0.227574
0.23125
0.252013
0.28427
0.29395
0.286121
0.291151
0.300694
0.191138
0.139167
0.11388
0.0778456
0.0633418
0.0671187
0.0743433
0.0911083
0.102238
0.114107
0.127022
0.127518
0.12691
0.126414
0.126959
0.129631
0.137912
0.152341
0.16911
0.188571
0.157663
0.123688
0.10077
0.0664689
0.0593834
0.0646363
0.0726342
0.0898732
0.102866
0.120324
0.146372
0.164793
0.180674
0.188725
0.191471
0.191466
0.18792
0.189945
0.204609
0.243541
0.124006
0.106172
0.0843298
0.0562765
0.0587258
0.0655334
0.0754274
0.0891364
0.101015
0.117996
0.144761
0.169685
0.200491
0.227319
0.246026
0.261107
0.255801
0.256433
0.255638
0.283091
0.102768
0.088205
0.0625056
0.0553625
0.0672555
0.0835706
0.0961248
0.108437
0.119899
0.133606
0.145318
0.164971
0.203132
0.246443
0.281957
0.3166
0.343968
0.370527
0.377392
0.400787
0.080129
0.0685949
0.0538608
0.0627748
0.079058
0.100831
0.119216
0.142782
0.169144
0.196148
0.190963
0.197987
0.213727
0.253458
0.300092
0.353889
0.409783
0.463906
0.509431
0.575391
0.056978
0.0518526
0.0559981
0.0668639
0.084381
0.107261
0.126471
0.160371
0.214953
0.2592
0.282366
0.305716
0.317228
0.341617
0.367643
0.413685
0.476445
0.566299
0.643573
0.782752
0.0387154
0.0402254
0.0573006
0.0709983
0.0870173
0.109575
0.124323
0.160421
0.23018
0.298668
0.358496
0.40631
0.462065
0.515228
0.553063
0.596791
0.639338
0.721629
0.817746
1.03115
0.0279098
0.0325228
0.0556064
0.0736355
0.0928843
0.124482
0.13247
0.159849
0.223237
0.313414
0.404783
0.484934
0.589083
0.670322
0.755555
0.839529
0.92004
0.999899
1.12227
1.32738
0.0229941
0.0280593
0.0534948
0.0798138
0.114301
0.15762
0.179627
0.233079
0.302336
0.368936
0.471989
0.585896
0.723027
0.837464
0.968714
1.11419
1.26045
1.38317
1.60559
1.56156
0.0210766
0.0267208
0.0561328
0.0986727
0.158392
0.217772
0.279488
0.391966
0.52064
0.652072
0.776102
0.892881
1.01555
1.13248
1.26566
1.45667
1.68414
1.88541
2.17616
2.1039
0.0213954
0.0315637
0.0649815
0.130623
0.198592
0.264079
0.378467
0.539701
0.736528
0.967951
1.15141
1.3277
1.49269
1.64793
1.81528
2.02948
2.28677
2.54664
2.93451
2.92382
0.0246433
0.0400086
0.0773153
0.145691
0.2078
0.274214
0.459042
0.669623
0.948826
1.29061
1.57124
1.83741
2.08499
2.32449
2.61366
2.92853
3.23723
3.58543
3.90511
4.17388
0.0274461
0.0470671
0.0874158
0.137586
0.19874
0.388535
0.694588
1.06014
1.53296
1.96795
2.33235
2.65338
2.97028
3.30599
3.73593
4.13195
4.51097
4.86495
5.09479
5.26924
0.0211546
0.0495751
0.104551
0.14502
0.397853
0.994243
1.54253
2.11478
2.75431
3.28417
3.67447
4.02898
4.38277
4.78061
5.23195
5.50941
5.67402
5.73509
5.60907
5.4387
0.0115751
0.0388271
0.180479
0.505978
1.24504
2.08232
2.85633
3.6399
4.43238
4.9448
5.26353
5.57841
5.84736
6.06192
6.21165
6.11285
5.8174
5.0844
3.89748
2.64283
0.042005
0.205491
0.685953
1.6822
2.98894
4.0263
4.894
5.81531
6.61081
6.71297
6.60807
6.58486
6.51602
6.27108
5.56863
4.25493
2.91635
1.86628
1.42669
1.39007
0.430866
1.21592
2.77884
4.42083
5.81405
6.73128
7.54087
8.16468
7.95858
7.33498
6.74725
6.00629
4.73564
3.2525
1.99597
1.44121
1.38522
1.39293
1.39626
1.39922
3.2178
5.04717
6.76167
7.89178
8.66726
8.93572
9.1148
8.66545
6.30481
4.45266
3.29222
2.17717
1.51043
1.38225
1.39003
1.39484
1.39886
1.39997
1.40003
1.40002
9.6392
9.5684
9.51689
9.56882
9.70943
9.40506
8.33208
3.27432
0.903766
1.40001
1.40001
1.40001
1.40001
1.40001
1.40001
1.40001
1.40001
1.40001
1.40001
1.40001
9.6356
9.54636
9.43984
9.3426
9.2746
7.99798
3.74753
1.44434
1.40001
1.40001
1.40001
1.40001
1.40001
1.40001
1.40001
1.40001
1.40001
1.40001
1.40001
1.40001
9.4179
9.48173
9.48084
9.31706
8.75893
4.67304
1.44547
1.39903
1.40001
1.40001
1.40001
1.40001
1.40001
1.40001
1.40001
1.40001
1.40001
1.40001
1.40001
1.40001
9.24846
9.43253
9.46851
9.23541
6.52413
1.92437
1.39217
1.40016
1.4
1.40001
1.40001
1.40001
1.40001
1.40001
1.40001
1.40001
1.40001
1.40001
1.40001
1.40001
9.10765
9.42912
9.42298
8.35051
3.76898
1.36622
1.40049
1.4
1.40001
1.40001
1.40001
1.40001
1.40001
1.40001
1.40001
1.40001
1.40001
1.40001
1.40001
1.40001
8.97037
9.47188
9.40319
6.88167
2.08165
1.40001
1.40001
1.40001
1.40001
1.40001
1.40001
1.40001
1.40001
1.40001
1.40001
1.40001
1.40001
1.40001
1.40001
1.40001
8.8735
9.3048
9.34759
4.9522
1.36227
1.40001
1.40001
1.40001
1.40001
1.40001
1.40001
1.40001
1.40001
1.40001
1.40001
1.40001
1.40001
1.40001
1.40001
1.40001
8.95106
9.17221
8.33261
2.86543
1.4
1.40001
1.40001
1.40001
1.40001
1.40001
1.40001
1.40001
1.40001
1.40001
1.40001
1.40001
1.40001
1.40001
1.40001
1.40001
9.68382
9.22364
6.76702
1.68306
1.40001
1.40001
1.40001
1.40001
1.40001
1.40001
1.40001
1.40001
1.40001
1.40001
1.40001
1.40001
1.40001
1.40001
1.40001
1.40001
10.0998
8.90138
4.74527
1.38329
1.40001
1.40001
1.40001
1.40001
1.40001
1.40001
1.40001
1.40001
1.40001
1.40001
1.40001
1.40001
1.40001
1.40001
1.40001
1.40001
10.3008
8.25743
3.22895
1.40001
1.40001
1.40001
1.40001
1.40001
1.40001
1.40001
1.40001
1.40001
1.40001
1.40001
1.40001
1.40001
1.40001
1.40001
1.40001
1.40001
10.3873
7.50287
2.24492
1.40001
1.40001
1.40001
1.40001
1.40001
1.40001
1.40001
1.40001
1.40001
1.40001
1.40001
1.40001
1.40001
1.40001
1.40001
1.40001
1.40001
10.4141
6.61643
1.65059
1.40001
1.40001
1.40001
1.40001
1.40001
1.40001
1.40001
1.40001
1.40001
1.40001
1.40001
1.40001
1.40001
1.40001
1.40001
1.40001
1.40001
10.1967
5.59491
1.42656
1.40001
1.40001
1.40001
1.40001
1.40001
1.40001
1.40001
1.40001
1.40001
1.40001
1.40001
1.40001
1.40001
1.40001
1.40001
1.40001
1.40001
10.0605
4.42299
1.40001
1.40001
1.40001
1.40001
1.40001
1.40001
1.40001
1.40001
1.40001
1.40001
1.40001
1.40001
1.40001
1.40001
1.40001
1.40001
1.40001
1.40001
9.60166
3.44383
1.40001
1.40001
1.40001
1.40001
1.40001
1.40001
1.40001
1.40001
1.40001
1.40001
1.40001
1.40001
1.40001
1.40001
1.40001
1.40001
1.40001
1.40001
9.17703
2.66933
1.40001
1.40001
1.40001
1.40001
1.40001
1.40001
1.40001
1.40001
1.40001
1.40001
1.40001
1.40001
1.40001
1.40001
1.40001
1.40001
1.40001
1.40001
8.83221
1.93774
1.40001
1.40001
1.40001
1.40001
1.40001
1.40001
1.40001
1.40001
1.40001
1.40001
1.40001
1.40001
1.40001
1.40001
1.40001
1.40001
1.40001
1.40001
7.91226
1.40889
1.40001
1.40001
1.40001
1.40001
1.40001
1.40001
1.40001
1.40001
1.40001
1.40001
1.40001
1.40001
1.40001
1.40001
1.40001
1.40001
1.40001
1.40001
6.43711
1.40009
1.40001
1.40001
1.40001
1.40001
1.40001
1.40001
1.40001
1.40001
1.40001
1.40001
1.40001
1.40001
1.40001
1.40001
1.40001
1.40001
1.40001
1.40001
6.44292
1.40009
1.40001
1.40001
1.40001
1.40001
1.40001
1.40001
1.40001
1.40001
1.40001
1.40001
1.40001
1.40001
1.40001
1.40001
1.40001
1.40001
1.40001
1.40001
7.89301
1.40872
1.40001
1.40001
1.40001
1.40001
1.40001
1.40001
1.40001
1.40001
1.40001
1.40001
1.40001
1.40001
1.40001
1.40001
1.40001
1.40001
1.40001
1.40001
8.83877
1.93662
1.40001
1.40001
1.40001
1.40001
1.40001
1.40001
1.40001
1.40001
1.40001
1.40001
1.40001
1.40001
1.40001
1.40001
1.40001
1.40001
1.40001
1.40001
9.18654
2.68203
1.40001
1.40001
1.40001
1.40001
1.40001
1.40001
1.40001
1.40001
1.40001
1.40001
1.40001
1.40001
1.40001
1.40001
1.40001
1.40001
1.40001
1.40001
9.58005
3.4502
1.40001
1.40001
1.40001
1.40001
1.40001
1.40001
1.40001
1.40001
1.40001
1.40001
1.40001
1.40001
1.40001
1.40001
1.40001
1.40001
1.40001
1.40001
10.07
4.4087
1.40001
1.40001
1.40001
1.40001
1.40001
1.40001
1.40001
1.40001
1.40001
1.40001
1.40001
1.40001
1.40001
1.40001
1.40001
1.40001
1.40001
1.40001
10.2031
5.58975
1.42589
1.40001
1.40001
1.40001
1.40001
1.40001
1.40001
1.40001
1.40001
1.40001
1.40001
1.40001
1.40001
1.40001
1.40001
1.40001
1.40001
1.40001
10.4083
6.61234
1.65277
1.40001
1.40001
1.40001
1.40001
1.40001
1.40001
1.40001
1.40001
1.40001
1.40001
1.40001
1.40001
1.40001
1.40001
1.40001
1.40001
1.40001
10.3827
7.51855
2.24661
1.40001
1.40001
1.40001
1.40001
1.40001
1.40001
1.40001
1.40001
1.40001
1.40001
1.40001
1.40001
1.40001
1.40001
1.40001
1.40001
1.40001
10.2963
8.25984
3.23976
1.40001
1.40001
1.40001
1.40001
1.40001
1.40001
1.40001
1.40001
1.40001
1.40001
1.40001
1.40001
1.40001
1.40001
1.40001
1.40001
1.40001
10.0914
8.88562
4.75768
1.38336
1.40001
1.40001
1.40001
1.40001
1.40001
1.40001
1.40001
1.40001
1.40001
1.40001
1.40001
1.40001
1.40001
1.40001
1.40001
1.40001
9.69156
9.24269
6.76885
1.66959
1.40001
1.40001
1.40001
1.40001
1.40001
1.40001
1.40001
1.40001
1.40001
1.40001
1.40001
1.40001
1.40001
1.40001
1.40001
1.40001
8.95429
9.16862
8.32906
2.86798
1.39999
1.40001
1.40001
1.40001
1.40001
1.40001
1.40001
1.40001
1.40001
1.40001
1.40001
1.40001
1.40001
1.40001
1.40001
1.40001
8.85422
9.28251
9.34096
4.94001
1.3624
1.40001
1.40001
1.40001
1.40001
1.40001
1.40001
1.40001
1.40001
1.40001
1.40001
1.40001
1.40001
1.40001
1.40001
1.40001
8.95975
9.47038
9.41844
6.91026
2.07172
1.40001
1.40001
1.40001
1.40001
1.40001
1.40001
1.40001
1.40001
1.40001
1.40001
1.40001
1.40001
1.40001
1.40001
1.40001
9.1107
9.44584
9.4244
8.32806
3.80029
1.36579
1.40049
1.4
1.40001
1.40001
1.40001
1.40001
1.40001
1.40001
1.40001
1.40001
1.40001
1.40001
1.40001
1.40001
9.25979
9.44185
9.46513
9.21348
6.5191
1.92048
1.39246
1.40015
1.4
1.40001
1.40001
1.40001
1.40001
1.40001
1.40001
1.40001
1.40001
1.40001
1.40001
1.40001
9.41947
9.48243
9.48248
9.32772
8.81106
4.65516
1.44047
1.39918
1.40001
1.40001
1.40001
1.40001
1.40001
1.40001
1.40001
1.40001
1.40001
1.40001
1.40001
1.40001
9.63271
9.54816
9.45363
9.33973
9.2683
7.99628
3.74324
1.44492
1.40001
1.40001
1.40001
1.40001
1.40001
1.40001
1.40001
1.40001
1.40001
1.40001
1.40001
1.40001
9.64098
9.57305
9.52584
9.55156
9.67706
9.39415
8.33709
3.30218
0.897521
1.40001
1.40001
1.40001
1.40001
1.40001
1.40001
1.40001
1.40001
1.40001
1.40001
1.40001
3.21937
5.05837
6.77608
7.88826
8.64736
8.92644
9.10831
8.66801
6.3077
4.45375
3.29161
2.17494
1.50918
1.38211
1.38998
1.39481
1.39885
1.39997
1.40003
1.40002
0.423296
1.18567
2.76392
4.42508
5.8009
6.72374
7.54243
8.16665
7.95887
7.33258
6.74464
6.00522
4.73535
3.25474
1.99831
1.44193
1.38525
1.39294
1.39627
1.39922
0.0514661
0.234325
0.711739
1.67808
2.99428
4.03035
4.89541
5.8155
6.60675
6.712
6.61151
6.5897
6.52284
6.27646
5.56897
4.25368
2.91564
1.8658
1.42654
1.39008
0.00878306
0.0384897
0.150579
0.522808
1.24977
2.08257
2.85761
3.63875
4.43333
4.94693
5.26785
5.58534
5.85406
6.06181
6.20817
6.10976
5.81503
5.08211
3.89563
2.64185
0.0164358
0.0451637
0.110964
0.133957
0.374712
0.981443
1.53978
2.11462
2.75394
3.2865
3.68172
4.04047
4.39196
4.7835
5.23212
5.50971
5.67376
5.7343
5.60805
5.4377
0.0321075
0.0533598
0.0885468
0.118144
0.209578
0.388682
0.684606
1.05106
1.52538
1.96404
2.33348
2.65506
2.96991
3.30261
3.73182
4.1279
4.50755
4.8614
5.0916
5.26877
0.033887
0.0478927
0.077134
0.137062
0.212802
0.276264
0.45727
0.662199
0.941075
1.2787
1.5616
1.82916
2.07985
2.32093
2.61399
2.92991
3.23842
3.58381
3.90609
4.17625
0.0296378
0.0423223
0.0649174
0.127108
0.200156
0.266613
0.383455
0.541347
0.737284
0.96793
1.15117
1.32851
1.49501
1.65286
1.82233
2.03489
2.28642
2.54327
2.93257
2.9242
0.0244779
0.0377788
0.0585287
0.0947431
0.158758
0.220907
0.286756
0.399404
0.52652
0.662021
0.785199
0.901565
1.02212
1.13829
1.26646
1.45123
1.67896
1.8831
2.17879
2.10759
0.0246314
0.0370988
0.0574599
0.0735405
0.111494
0.163632
0.182631
0.239568
0.310064
0.373253
0.468573
0.580595
0.717403
0.833264
0.963944
1.11147
1.26081
1.38739
1.60864
1.56204
0.0291019
0.0415094
0.0585748
0.0686017
0.0894535
0.12918
0.133242
0.159335
0.218833
0.304868
0.398118
0.479022
0.585887
0.668292
0.75537
0.841404
0.924656
1.00405
1.12309
1.32623
0.0381604
0.0475953
0.059053
0.0644788
0.0823131
0.11227
0.122636
0.156812
0.226411
0.295906
0.358234
0.407026
0.465195
0.518013
0.557666
0.601901
0.643554
0.719786
0.812991
1.02719
0.0528936
0.0534178
0.0581416
0.0623364
0.0793617
0.106878
0.125795
0.158366
0.215757
0.262418
0.28878
0.312346
0.323457
0.34756
0.370895
0.412444
0.470428
0.560225
0.639607
0.783158
0.0730581
0.063665
0.0541931
0.0602365
0.0748928
0.100232
0.121047
0.143436
0.172988
0.204093
0.195385
0.201219
0.213169
0.2493
0.294295
0.347568
0.404567
0.461248
0.509898
0.580546
0.0973126
0.0814175
0.0571752
0.0555839
0.0637886
0.0831884
0.0999053
0.109887
0.121998
0.137073
0.145489
0.163196
0.199316
0.242329
0.278243
0.313383
0.343226
0.371883
0.383382
0.405626
0.112613
0.101578
0.0787224
0.0564575
0.0565622
0.0627036
0.0762923
0.0885969
0.10055
0.117718
0.143075
0.167885
0.198893
0.226374
0.244726
0.262577
0.260435
0.261966
0.260568
0.28329
0.124895
0.116305
0.105581
0.0716136
0.0569266
0.0607456
0.071121
0.088572
0.10207
0.120192
0.1461
0.165178
0.181257
0.190538
0.192947
0.195546
0.192256
0.193124
0.204909
0.242316
0.150876
0.131416
0.119445
0.0890228
0.06231
0.0639626
0.0728048
0.090192
0.102913
0.114788
0.12961
0.128606
0.128706
0.128248
0.128245
0.130352
0.138284
0.152485
0.168789
0.188819
0.185594
0.151765
0.154941
0.125779
0.0930693
0.112788
0.156928
0.192223
0.190058
0.203841
0.233177
0.266635
0.288425
0.284328
0.252611
0.219715
0.225447
0.251228
0.288538
0.292928
0.284885
0.371787
0.451966
0.450466
0.449118
0.470513
0.504618
0.549951
0.551645
0.570815
0.597867
0.620095
0.650112
0.662006
0.648877
0.643831
0.69275
0.714373
0.730165
0.733612
0.782943
0.877675
0.985558
1.13818
1.13807
1.1472
1.15494
1.19175
1.24766
1.29239
1.29967
1.28564
1.28773
1.31259
1.33954
1.3382
1.3298
1.32455
1.32103
1.32562
0.415104
0.586926
0.752163
0.95994
1.0662
1.15552
1.15113
1.17235
1.228
1.28104
1.29733
1.29962
1.29297
1.30144
1.32504
1.34186
1.34958
1.34764
1.33107
1.31886
0.193932
0.227911
0.329544
0.462929
0.746175
0.980916
1.06313
1.15312
1.23273
1.28143
1.29461
1.29661
1.2943
1.29708
1.30705
1.3251
1.34505
1.34945
1.34156
1.32752
0.269475
0.297855
0.325628
0.338027
0.370378
0.498563
0.786574
1.02206
1.14514
1.23168
1.28948
1.29095
1.29496
1.29909
1.30194
1.31425
1.33883
1.34553
1.34157
1.33433
0.333127
0.362752
0.373721
0.401839
0.425844
0.418683
0.451377
0.585949
0.845423
1.07607
1.22275
1.27299
1.30423
1.30806
1.29952
1.30998
1.32952
1.33368
1.33411
1.34009
0.424889
0.45214
0.46095
0.464962
0.471147
0.477427
0.480486
0.46961
0.505017
0.662022
0.944982
1.17906
1.2901
1.32129
1.30497
1.30735
1.32173
1.32323
1.32682
1.34149
0.55849
0.566799
0.52757
0.511284
0.523199
0.537173
0.533263
0.529669
0.517263
0.514631
0.611374
0.892168
1.18271
1.32202
1.30535
1.3152
1.30838
1.30046
1.31756
1.34501
0.741586
0.710021
0.635313
0.570005
0.570948
0.594957
0.601907
0.594125
0.575112
0.545703
0.541398
0.609937
0.868682
1.20116
1.29373
1.32113
1.30278
1.29839
1.32656
1.34879
0.95524
0.873921
0.767542
0.645065
0.637547
0.654867
0.663555
0.651581
0.628792
0.595045
0.561855
0.563177
0.614111
0.860204
1.17182
1.30917
1.28335
1.29734
1.34121
1.34691
1.20319
1.08355
0.940052
0.769967
0.717477
0.708747
0.715614
0.701304
0.683505
0.64605
0.612216
0.588333
0.594172
0.637294
0.867702
1.1765
1.23069
1.30182
1.35253
1.34
1.73344
1.34602
1.18278
0.999081
0.825541
0.781048
0.796839
0.805332
0.783476
0.748388
0.704318
0.658322
0.642463
0.648702
0.67962
0.803865
1.04991
1.24206
1.30597
1.32461
2.84956
1.99988
1.63959
1.44423
1.21387
1.00405
0.942949
0.92189
0.869491
0.814143
0.785799
0.755347
0.728399
0.713982
0.691373
0.689821
0.739359
0.89618
1.09827
1.26578
3.49079
3.02542
2.36334
1.88696
1.58262
1.32409
1.09249
1.03938
0.983398
0.915943
0.915701
0.89585
0.851368
0.807048
0.768013
0.724141
0.729624
0.747415
0.809381
1.04537
3.2964
3.27242
3.11246
2.67448
2.16462
1.81524
1.48195
1.31459
1.24379
1.14716
1.06875
0.998006
0.92103
0.853775
0.840464
0.818936
0.787753
0.775476
0.767289
0.816277
2.34517
2.99131
3.09677
3.05952
2.8653
2.48643
2.08415
1.7065
1.50605
1.34089
1.20184
1.12653
1.04019
0.980745
0.979253
0.961475
0.913962
0.862993
0.801315
0.803782
1.5509
2.00888
2.5828
2.95017
2.94823
2.8895
2.69848
2.34532
1.99218
1.72033
1.48442
1.38227
1.2974
1.19483
1.11513
1.0429
0.971176
0.916598
0.881776
0.846964
1.40631
1.46196
1.6885
2.16587
2.60682
2.82039
2.81094
2.74712
2.55209
2.27575
1.95551
1.68999
1.51924
1.35826
1.23212
1.1497
1.07661
1.02355
1.01705
0.976218
1.40013
1.40157
1.41474
1.51147
1.77727
2.20016
2.5444
2.70134
2.69232
2.63683
2.4775
2.20542
1.93594
1.70486
1.51293
1.40837
1.31766
1.2332
1.16328
1.06514
1.40001
1.40002
1.40021
1.40363
1.42643
1.54073
1.80686
2.17829
2.46833
2.59534
2.5881
2.53759
2.3969
2.17824
1.92637
1.70402
1.54155
1.40263
1.28969
1.16183
1.40001
1.40001
1.40001
1.40004
1.40046
1.40546
1.43473
1.55122
1.79831
2.12909
2.38085
2.49962
2.49285
2.45424
2.34537
2.14821
1.93128
1.72387
1.57277
1.3953
1.40001
1.40001
1.40001
1.40001
1.40001
1.40007
1.4007
1.40656
1.43683
1.54715
1.76857
2.06585
2.28808
2.41081
2.40761
2.38043
2.29738
2.13628
1.9522
1.67271
1.40001
1.40001
1.40001
1.40001
1.40001
1.40001
1.40001
1.40009
1.40081
1.40662
1.43573
1.53123
1.72485
1.99184
2.20291
2.32753
2.32634
2.30973
2.25877
2.0457
1.40001
1.40001
1.40001
1.40001
1.40001
1.40001
1.40001
1.40001
1.40001
1.40009
1.40084
1.40573
1.43121
1.51107
1.67696
1.91263
2.11413
2.24746
2.25425
2.2222
1.40001
1.40001
1.40001
1.40001
1.40001
1.40001
1.40001
1.40001
1.40001
1.40001
1.40001
1.40008
1.40075
1.40468
1.4245
1.4906
1.62673
1.83685
2.02103
2.16846
1.40001
1.40001
1.40001
1.40001
1.40001
1.40001
1.40001
1.40001
1.40001
1.40001
1.40001
1.40001
1.40001
1.40007
1.40058
1.40364
1.41941
1.47142
1.59049
1.9424
2.25916
3.42231
3.59216
2.90783
1.83237
1.45156
1.40262
1.40007
1.40001
1.40001
1.40001
1.40001
1.40001
1.40001
1.40001
3.25667
3.9139
3.51802
2.15337
1.46754
1.40115
1.40001
1.4
1.40001
1.40001
1.40001
1.40001
1.40001
1.40001
1.40001
4.07611
3.99032
2.76253
1.61262
1.40731
1.40008
1.40001
1.40001
1.40001
1.40001
1.40001
1.40001
1.40001
1.40001
1.40001
4.52068
3.56124
1.90615
1.42662
1.40026
1.40001
1.40001
1.40001
1.40001
1.40001
1.40001
1.40001
1.40001
1.40001
1.40001
4.62482
2.34831
1.46552
1.40074
1.40001
1.40001
1.40001
1.40001
1.40001
1.40001
1.40001
1.40001
1.40001
1.40001
1.40001
2.88492
1.50215
1.40067
1.4
1.4
1.4
1.40001
1.40001
1.40001
1.40001
1.40001
1.40001
1.40001
1.40001
1.40001
1.54247
1.40079
1.4
1.4
1.40001
1.40001
1.40001
1.40001
1.40001
1.40001
1.40001
1.40001
1.40001
1.40001
1.40001
1.39741
1.39982
1.4
1.4
1.40001
1.40001
1.40001
1.40001
1.40001
1.40001
1.40001
1.40001
1.40001
1.40001
1.40001
1.39996
1.40001
1.40001
1.40001
1.40001
1.40001
1.40001
1.40001
1.40001
1.40001
1.40001
1.40001
1.40001
1.40001
1.40001
1.40001
1.40001
1.40001
1.40001
1.40001
1.40001
1.40001
1.40001
1.40001
1.40001
1.40001
1.40001
1.40001
1.40001
1.40001
1.40001
1.40001
1.40001
1.40001
1.40001
1.40001
1.40001
1.40001
1.40001
1.40001
1.40001
1.40001
1.40001
1.40001
1.40001
1.40001
1.40001
1.40001
1.40001
1.40001
1.40001
1.40001
1.40001
1.40001
1.40001
1.40001
1.40001
1.40001
1.40001
1.40001
1.40001
1.40001
1.40001
1.40001
1.40001
1.40001
1.40001
1.40001
1.40001
1.40001
1.40001
1.40001
1.40001
1.40001
1.40001
1.40001
1.40001
1.40001
1.40001
1.40001
1.40001
1.40001
1.40001
1.40001
1.40001
1.40001
1.40001
1.40001
1.40001
1.40001
1.40001
1.40001
1.40001
1.40001
1.40001
1.40001
1.40001
1.40001
1.40001
1.40001
1.40001
1.40001
1.40001
1.40001
1.40001
1.40001
1.40001
1.40001
1.40001
1.40001
1.40001
1.40001
1.40001
1.40001
1.40001
1.40001
1.40001
1.40001
1.40001
1.40001
1.40001
1.40001
1.40001
1.40001
1.40001
1.40001
1.40001
1.40001
1.40001
1.40001
1.40001
1.40001
1.40001
1.40001
1.40001
1.40001
1.40001
1.40001
1.40001
1.40001
1.40001
1.40001
1.40001
1.40001
1.40001
1.40001
1.40001
1.40001
1.40001
1.40001
1.40001
1.40001
1.40001
1.40001
1.40001
1.40001
1.40001
1.40001
1.40001
1.40001
1.40001
1.40001
1.40001
1.40001
1.40001
1.40001
1.40001
1.40001
1.40001
1.40001
1.40001
1.40001
1.40001
1.40001
1.40001
1.40001
1.40001
1.40001
1.40001
1.40001
1.40001
1.40001
1.40001
1.40001
1.40001
1.40001
1.40001
1.40001
1.40001
1.40001
1.40001
1.40001
1.40001
1.40001
1.40001
1.40001
1.40001
1.40001
1.40001
1.40001
1.40001
1.40001
1.40001
1.40001
1.40001
1.40001
1.40001
1.40001
1.40001
1.40001
1.40001
1.40001
1.40001
1.40001
1.40001
1.40001
1.40001
1.40001
1.40001
1.40001
1.40001
1.40001
1.40001
1.40001
1.40001
1.40001
1.40001
1.40001
1.40001
1.40001
1.40001
1.40001
1.40001
1.40001
1.40001
1.40001
1.40001
1.40001
1.40001
1.40001
1.40001
1.40001
1.40001
1.40001
1.40001
1.40001
1.40001
1.40001
1.40001
1.40001
1.40001
1.40001
1.40001
1.40001
1.40001
1.40001
1.40001
1.40001
1.40001
1.40001
1.40001
1.40001
1.40001
1.40001
1.40001
1.40001
1.40001
1.40001
1.40001
1.40001
1.40001
1.40001
1.40001
1.40001
1.40001
1.40001
1.40001
1.40001
1.40001
1.40001
1.40001
1.40001
1.40001
1.40001
1.40001
1.40001
1.40001
1.40001
1.40001
1.40001
1.40001
1.40001
1.40001
1.40001
1.40001
1.40001
1.40001
1.40001
1.40001
1.40001
1.40001
1.40001
1.40001
1.40001
1.40001
1.40001
1.40001
1.40001
1.40001
1.40001
1.40001
1.40001
1.40001
1.40001
1.40001
1.40001
1.40001
1.40001
1.40001
1.40001
1.40001
1.40001
1.40001
1.40001
1.40001
1.40001
1.40001
1.40001
1.40001
1.40001
1.40001
1.40001
1.40001
1.40001
1.40001
1.40001
1.40001
1.40001
1.40001
1.40001
1.40001
1.40001
1.40001
1.40001
1.40001
1.40001
1.40001
1.40001
1.40001
1.40001
1.40001
1.40001
1.40001
1.40001
1.40001
1.40001
1.40001
1.40001
1.40001
1.40001
1.40001
1.40001
1.40001
1.40001
1.40001
1.40001
1.40001
1.40001
1.40001
1.40001
1.40001
1.40001
1.40001
1.40001
1.40001
1.40001
1.40001
1.40001
1.40001
1.40001
1.40001
1.40001
1.40001
1.40001
1.40001
1.40001
1.40001
1.40001
1.40001
1.40001
1.40001
1.40001
1.40001
1.40001
1.40001
1.40001
1.40001
1.40001
1.40001
1.40001
1.40001
1.40001
1.40001
1.40001
1.40001
1.40001
1.40001
1.40001
1.40001
1.40001
1.40001
1.40001
1.40001
1.40001
1.40001
1.40001
1.40001
1.40001
1.40001
1.40001
1.40001
1.40001
1.40001
1.40001
1.40001
1.40001
1.40001
1.40001
1.40001
1.40001
1.40001
1.40001
1.40001
1.40001
1.40001
1.40001
1.40001
1.40001
1.40001
1.40001
1.40001
1.40001
1.40001
1.40001
1.40001
1.40001
1.40001
1.40001
1.40001
1.40001
1.40001
1.40001
1.40001
1.40001
1.40001
1.40001
1.40001
1.40001
1.40001
1.40001
1.40001
1.40001
1.40001
1.40001
1.40001
1.40001
1.40001
1.40001
1.40001
1.40001
1.40001
1.40001
1.40001
1.40001
1.40001
1.40001
1.40001
1.40001
1.40001
1.40001
1.40001
1.40001
1.40001
1.40001
1.40001
1.40001
1.40001
1.40001
1.40001
1.40001
1.40001
1.40001
1.40001
1.40001
1.40001
1.40001
1.40001
1.40001
1.40001
1.40001
1.40001
1.40001
1.40001
1.40001
1.40001
1.40001
1.40001
1.40001
1.40001
1.40001
1.40001
1.40001
1.40001
1.40001
1.40001
1.40001
1.40001
1.40001
1.40001
1.40001
1.40001
1.40001
1.40001
1.40001
1.40001
1.40001
1.40001
1.40001
1.40001
1.40001
1.40001
1.40001
1.40001
1.40001
1.40001
1.40001
1.40001
1.40001
1.40001
1.40001
1.40001
1.40001
1.40001
1.40001
1.40001
1.40001
1.40001
1.40001
1.40001
1.40001
1.40001
1.40001
1.40001
1.40001
1.40001
1.40001
1.40001
1.40001
1.40001
1.40001
1.40001
1.40001
1.40001
1.40001
1.40001
1.40001
1.40001
1.40001
1.40001
1.40001
1.40001
1.40001
1.40001
1.40001
1.40001
1.40001
1.40001
1.40001
1.40001
1.40001
1.40001
1.40001
1.40001
1.40001
1.40001
1.40001
1.40001
1.40001
1.40001
1.40001
1.40001
1.40001
1.40001
1.40001
1.40001
1.40001
1.40001
1.40001
1.40001
1.40001
1.40001
1.40001
1.40001
1.40001
1.40001
1.40001
1.40001
1.40001
1.40001
1.40001
1.40001
1.40001
1.40001
1.40001
1.40001
1.40001
1.40001
1.40001
1.40001
1.40001
1.40001
1.40001
1.40001
1.40001
1.40001
1.40001
1.40001
1.40001
1.40001
1.40001
1.40001
1.40001
1.40001
1.40001
1.40001
1.40001
1.40001
1.40001
1.40001
1.40001
1.40001
1.40001
1.40001
1.40001
1.40001
1.40001
1.40001
1.40001
1.40001
1.40001
1.40001
1.40001
1.40001
1.40001
1.40001
1.40001
1.40001
1.40001
1.40001
1.40001
1.40001
1.40001
1.40001
1.40001
1.40001
1.40001
1.40001
1.40001
1.40001
1.40001
1.40001
1.40001
1.40001
1.40001
1.40001
1.40001
1.40001
1.40001
1.40001
1.40001
1.40001
1.40001
1.40001
1.40001
1.40001
1.40001
1.40001
1.40001
1.40001
1.40001
1.40001
1.40001
1.40001
1.40001
1.40001
1.40001
1.40001
1.40001
1.40001
1.40001
1.40001
1.40001
1.40001
1.40001
1.40001
1.40001
1.40001
1.40001
1.40001
1.40001
1.40001
1.40001
1.40001
1.40001
1.40001
1.40001
1.40001
1.40001
1.40001
1.40001
1.40001
1.40001
1.40001
1.40001
1.40001
1.40001
1.40001
1.40001
1.40001
1.40001
1.40001
1.40001
1.40001
1.40001
1.40001
1.40001
1.40001
1.40001
1.40001
1.40001
1.40001
1.40001
1.40001
1.40001
1.40001
1.40001
1.40001
1.40001
1.40001
1.40001
1.40001
1.40001
1.40001
1.40001
1.40001
1.40001
1.40001
1.40001
1.40001
1.40001
1.40001
1.40001
1.40001
1.40001
1.40001
1.40001
1.40001
1.40001
1.40001
1.40001
1.40001
1.40001
1.40001
1.40001
1.40001
1.40001
1.40001
1.40001
1.40001
1.40001
1.40001
1.40001
1.40001
1.40001
1.40001
1.40001
1.40001
1.40001
1.40001
1.40001
1.40001
1.40001
1.40001
1.40001
1.40001
1.40001
1.40001
1.40001
1.40001
1.40001
1.40001
1.40001
1.40001
1.40001
1.40001
1.40001
1.40001
1.40001
1.40001
1.40001
1.40001
1.40001
1.40001
1.40001
1.40001
1.40001
1.40001
1.40001
1.40001
1.40001
1.40001
1.40001
1.40001
1.40001
1.40001
1.40001
1.40001
1.40001
1.40001
1.40001
1.40001
1.40001
1.40001
1.40001
1.40001
1.40001
1.40001
1.40001
1.40001
1.40001
1.40001
1.40001
1.40001
1.40001
1.40001
1.39996
1.40001
1.40001
1.40001
1.40001
1.40001
1.40001
1.40001
1.40001
1.40001
1.40001
1.40001
1.40001
1.40001
1.40001
1.39741
1.39982
1.4
1.4
1.40001
1.40001
1.40001
1.40001
1.40001
1.40001
1.40001
1.40001
1.40001
1.40001
1.40001
1.54229
1.40078
1.4
1.4
1.40001
1.40001
1.40001
1.40001
1.40001
1.40001
1.40001
1.40001
1.40001
1.40001
1.40001
2.88439
1.50209
1.40067
1.4
1.4
1.4
1.40001
1.40001
1.40001
1.40001
1.40001
1.40001
1.40001
1.40001
1.40001
4.62519
2.34866
1.46554
1.40073
1.40001
1.4
1.40001
1.40001
1.40001
1.40001
1.40001
1.40001
1.40001
1.40001
1.40001
4.52128
3.5615
1.90625
1.42669
1.40026
1.40001
1.40001
1.40001
1.40001
1.40001
1.40001
1.40001
1.40001
1.40001
1.40001
4.07721
3.99026
2.7628
1.61259
1.40729
1.40008
1.40001
1.40001
1.40001
1.40001
1.40001
1.40001
1.40001
1.40001
1.40001
3.25596
3.91411
3.51771
2.15376
1.46764
1.40115
1.40001
1.4
1.40001
1.40001
1.40001
1.40001
1.40001
1.40001
1.40001
2.25995
3.42229
3.59165
2.90742
1.83232
1.45156
1.40262
1.40007
1.40001
1.40001
1.40001
1.40001
1.40001
1.40001
1.40001
1.72241
2.85275
3.49179
3.29767
2.34722
1.55108
1.40631
1.40013
1.40001
1.40001
1.40001
1.40001
1.40001
1.40001
1.40001
1.34468
1.99494
3.02518
3.27327
2.9869
2.00772
1.46193
1.40157
1.40002
1.40001
1.40001
1.40001
1.40001
1.40001
1.40001
1.19181
1.63288
2.35983
3.10922
3.097
2.58292
1.6885
1.41474
1.40021
1.40001
1.40001
1.40001
1.40001
1.40001
1.40001
1.00839
1.4398
1.88744
2.67305
3.06062
2.95088
2.16524
1.51129
1.40362
1.40004
1.40001
1.40001
1.40001
1.40001
1.40001
0.827588
1.20856
1.581
2.17639
2.86959
2.94864
2.60657
1.77675
1.42639
1.40046
1.40001
1.40001
1.40001
1.40001
1.40001
0.786934
1.02947
1.31238
1.79273
2.49103
2.89188
2.82086
2.1993
1.54047
1.40546
1.40007
1.40001
1.40001
1.40001
1.40001
0.793675
0.952198
1.11955
1.48762
2.07241
2.6964
2.81048
2.54399
1.80665
1.43473
1.4007
1.40001
1.40001
1.40001
1.40001
0.796726
0.911396
1.04851
1.34323
1.71701
2.33507
2.74636
2.70038
2.17821
1.55144
1.40658
1.40009
1.40001
1.40001
1.40001
0.773785
0.857183
0.96596
1.23836
1.52409
1.99931
2.54987
2.69148
2.46806
1.79874
1.43692
1.40081
1.40001
1.40001
1.40001
0.749201
0.81074
0.915996
1.12582
1.33524
1.73739
2.27648
2.63688
2.59535
2.12927
1.54724
1.40663
1.40009
1.40001
1.40001
0.712345
0.791592
0.925071
1.06188
1.17986
1.4885
1.95936
2.47726
2.58815
2.38096
1.76849
1.4357
1.40084
1.40001
1.40001
0.661705
0.761324
0.909322
1.00836
1.10882
1.36665
1.6931
2.20407
2.53728
2.4994
2.06559
1.53115
1.40573
1.40008
1.40001
0.636684
0.731519
0.859822
0.930957
1.03557
1.28261
1.51621
1.93682
2.39759
2.49258
2.28774
1.72476
1.43121
1.40075
1.40001
0.634977
0.714777
0.806377
0.851594
0.987123
1.18904
1.35682
1.70868
2.17825
2.45378
2.41038
1.99167
1.51109
1.40469
1.40007
0.664908
0.678242
0.770193
0.844942
0.984064
1.11603
1.23203
1.51586
1.92404
2.34444
2.40724
2.20277
1.67699
1.4245
1.40058
0.794923
0.680322
0.724696
0.827886
0.966413
1.04772
1.14729
1.40153
1.70268
2.14771
2.38028
2.32743
1.91256
1.49066
1.40364
1.04681
0.730644
0.726853
0.794355
0.919023
0.971377
1.07222
1.3135
1.54321
1.93092
2.2972
2.32637
2.11439
1.62678
1.41942
1.24749
0.89294
0.742734
0.766322
0.86774
0.911701
1.02355
1.233
1.40414
1.72338
2.1368
2.30995
2.24757
1.83705
1.47148
1.31369
1.10586
0.806455
0.762488
0.807246
0.878895
1.02001
1.16295
1.29034
1.57422
1.95302
2.25912
2.25459
2.02143
1.59069
1.32837
1.26938
1.04356
0.815588
0.809685
0.845803
0.981769
1.06302
1.16089
1.39733
1.67298
2.04618
2.22258
2.1689
1.94277
1.20514
1.08054
0.943025
0.776124
0.719009
0.709354
0.720033
0.701896
0.679919
0.659623
0.623123
0.581635
0.58572
0.634595
0.860548
1.16618
1.23424
1.31367
1.35543
1.34076
0.95724
0.87113
0.768363
0.648547
0.63542
0.654487
0.665057
0.651721
0.632384
0.608831
0.566292
0.558017
0.606467
0.853992
1.16622
1.31685
1.28461
1.30148
1.34353
1.34509
0.739889
0.710686
0.64182
0.564684
0.558686
0.586
0.596905
0.594832
0.584052
0.557073
0.540528
0.608806
0.860996
1.16996
1.30786
1.33426
1.32037
1.30784
1.33122
1.3428
0.558596
0.567684
0.528533
0.509691
0.521641
0.538202
0.530769
0.533755
0.529315
0.51996
0.622063
0.898939
1.17317
1.32057
1.31729
1.32946
1.32798
1.31313
1.31778
1.33515
0.424386
0.452985
0.461115
0.462062