/*--------------------------------*- C++ -*----------------------------------*\
  =========                 |
  \\      /  F ield         | OpenFOAM: The Open Source CFD Toolbox
   \\    /   O peration     | Website:  https://openfoam.org
    \\  /    A nd           | Version:  7
     \\/     M anipulation  |
\*---------------------------------------------------------------------------*/
FoamFile
{
    version     2.0;
    format      ascii;
    class       volScalarField;
    location    "5.9";
    object      T;
}
// * * * * * * * * * * * * * * * * * * * * * * * * * * * * * * * * * * * * * //

dimensions      [0 0 0 1 0 0 0];

internalField   nonuniform List<scalar> 
3700
(
100.808
100.951
100.973
101.014
101.005
100.977
100.925
100.948
101.049
101.145
101.148
101.135
101.112
101.104
101.127
101.129
101.123
101.093
101.061
101.053
100.43
100.421
100.449
100.534
100.59
100.515
100.366
100.411
100.591
100.698
100.699
100.622
100.494
100.49
100.57
100.635
100.615
100.517
100.444
100.431
100.415
100.265
100.139
99.9825
99.9058
99.92
99.9547
100.015
100.03
100.039
100.048
100.032
100.015
99.9961
99.9821
99.9816
99.9952
100.014
100.03
100.042
100.335
100.215
100.087
99.924
99.869
99.8879
99.9274
99.9871
100.015
100.048
100.077
100.083
100.091
100.089
100.073
100.049
100.017
100.012
100.031
100.077
100.182
100.102
100.003
99.8502
99.8542
99.8752
99.9148
99.9619
99.9872
100.024
100.063
100.086
100.11
100.129
100.133
100.133
100.114
100.09
100.067
100.084
100.066
100.001
99.8911
99.8332
99.8599
99.9036
99.9314
99.9612
99.9848
100.02
100.044
100.064
100.098
100.132
100.153
100.17
100.179
100.18
100.171
100.175
99.9573
99.9028
99.8337
99.863
99.927
99.9892
100.022
100.05
100.064
100.082
100.066
100.074
100.091
100.118
100.147
100.18
100.21
100.231
100.239
100.26
99.8296
99.8031
99.837
99.8994
99.9916
100.048
100.068
100.109
100.155
100.171
100.172
100.172
100.168
100.169
100.17
100.19
100.225
100.268
100.289
100.328
99.6946
99.7159
99.852
99.9596
100.059
100.104
100.088
100.128
100.195
100.225
100.246
100.252
100.268
100.275
100.28
100.285
100.291
100.314
100.339
100.39
99.5902
99.6641
99.8864
100.029
100.112
100.148
100.128
100.149
100.201
100.248
100.279
100.299
100.329
100.338
100.352
100.364
100.378
100.393
100.415
100.452
99.5357
99.6575
99.9588
100.074
100.141
100.168
100.169
100.217
100.258
100.281
100.306
100.333
100.365
100.382
100.403
100.426
100.448
100.467
100.505
100.495
99.5191
99.7065
100.018
100.102
100.178
100.215
100.245
100.309
100.351
100.393
100.413
100.43
100.439
100.445
100.456
100.48
100.512
100.54
100.581
100.572
99.5484
99.817
100.022
100.134
100.196
100.248
100.313
100.376
100.43
100.475
100.492
100.511
100.524
100.534
100.547
100.565
100.589
100.615
100.656
100.656
99.6582
99.8398
100.013
100.138
100.181
100.242
100.357
100.42
100.481
100.531
100.553
100.574
100.593
100.612
100.636
100.661
100.686
100.709
100.726
100.735
99.7319
99.8389
99.992
100.087
100.15
100.347
100.452
100.518
100.584
100.612
100.629
100.647
100.667
100.694
100.725
100.751
100.771
100.784
100.78
100.776
99.7058
99.8729
99.9907
100.085
100.361
100.568
100.628
100.673
100.706
100.722
100.734
100.749
100.77
100.794
100.814
100.823
100.821
100.814
100.789
100.746
99.415
99.7603
100.138
100.428
100.626
100.701
100.741
100.774
100.795
100.807
100.818
100.835
100.851
100.856
100.855
100.844
100.792
100.679
100.518
100.279
99.5001
100.118
100.468
100.666
100.773
100.812
100.839
100.86
100.874
100.879
100.88
100.882
100.881
100.858
100.771
100.621
100.358
100.101
100.006
99.9978
100.119
100.524
100.739
100.835
100.885
100.906
100.925
100.924
100.918
100.907
100.892
100.839
100.728
100.474
100.149
100.01
99.9967
99.9985
99.9992
99.9998
100.694
100.834
100.91
100.945
100.962
100.957
100.956
100.933
100.842
100.759
100.572
100.231
100.029
99.9957
99.9977
99.9989
99.9998
100
100
100
100.996
100.993
100.99
100.987
100.981
100.956
100.889
100.464
99.8412
100
100
100
100
100
100
100
100
100
100
100
100.995
100.992
100.986
100.973
100.948
100.86
100.509
100.021
100
100
100
100
100
100
100
100
100
100
100
100
100.991
100.992
100.987
100.967
100.908
100.62
100.03
99.9994
100
100
100
100
100
100
100
100
100
100
100
100
100.987
100.991
100.987
100.957
100.784
100.215
99.9968
100
100
100
100
100
100
100
100
100
100
100
100
100
100.983
100.992
100.987
100.92
100.57
99.9921
100
100
100
100
100
100
100
100
100
100
100
100
100
100
100.979
100.993
100.985
100.835
100.281
100
100
100
100
100
100
100
100
100
100
100
100
100
100
100
100.975
100.984
100.974
100.701
99.9925
100
100
100
100
100
100
100
100
100
100
100
100
100
100
100
100.976
100.971
100.914
100.47
100
100
100
100
100
100
100
100
100
100
100
100
100
100
100
100
101.002
100.966
100.817
100.145
100
100
100
100
100
100
100
100
100
100
100
100
100
100
100
100
101.016
100.943
100.673
99.9965
100
100
100
100
100
100
100
100
100
100
100
100
100
100
100
100
101.026
100.902
100.508
100
100
100
100
100
100
100
100
100
100
100
100
100
100
100
100
100
101.032
100.857
100.32
100
100
100
100
100
100
100
100
100
100
100
100
100
100
100
100
100
101.034
100.803
100.122
100
100
100
100
100
100
100
100
100
100
100
100
100
100
100
100
100
101.025
100.742
100.012
100
100
100
100
100
100
100
100
100
100
100
100
100
100
100
100
100
101.008
100.66
100
100
100
100
100
100
100
100
100
100
100
100
100
100
100
100
100
100
100.984
100.557
100
100
100
100
100
100
100
100
100
100
100
100
100
100
100
100
100
100
100.956
100.445
100
100
100
100
100
100
100
100
100
100
100
100
100
100
100
100
100
100
100.919
100.249
100
100
100
100
100
100
100
100
100
100
100
100
100
100
100
100
100
100
100.858
100.005
100
100
100
100
100
100
100
100
100
100
100
100
100
100
100
100
100
100
100.807
100
100
100
100
100
100
100
100
100
100
100
100
100
100
100
100
100
100
100
100.807
100
100
100
100
100
100
100
100
100
100
100
100
100
100
100
100
100
100
100
100.856
100.005
100
100
100
100
100
100
100
100
100
100
100
100
100
100
100
100
100
100
100.919
100.248
100
100
100
100
100
100
100
100
100
100
100
100
100
100
100
100
100
100
100.958
100.448
100
100
100
100
100
100
100
100
100
100
100
100
100
100
100
100
100
100
100.984
100.558
100
100
100
100
100
100
100
100
100
100
100
100
100
100
100
100
100
100
101.008
100.657
100
100
100
100
100
100
100
100
100
100
100
100
100
100
100
100
100
100
101.023
100.741
100.012
100
100
100
100
100
100
100
100
100
100
100
100
100
100
100
100
100
101.034
100.803
100.122
100
100
100
100
100
100
100
100
100
100
100
100
100
100
100
100
100
101.031
100.858
100.32
100
100
100
100
100
100
100
100
100
100
100
100
100
100
100
100
100
101.026
100.903
100.51
100
100
100
100
100
100
100
100
100
100
100
100
100
100
100
100
100
101.017
100.943
100.675
99.9965
100
100
100
100
100
100
100
100
100
100
100
100
100
100
100
100
101.003
100.967
100.816
100.139
100
100
100
100
100
100
100
100
100
100
100
100
100
100
100
100
100.976
100.971
100.913
100.47
100
100
100
100
100
100
100
100
100
100
100
100
100
100
100
100
100.974
100.982
100.972
100.7
99.9926
100
100
100
100
100
100
100
100
100
100
100
100
100
100
100
100.978
100.993
100.985
100.836
100.277
100
100
100
100
100
100
100
100
100
100
100
100
100
100
100
100.983
100.992
100.987
100.92
100.574
99.992
100
100
100
100
100
100
100
100
100
100
100
100
100
100
100.988
100.992
100.988
100.958
100.786
100.214
99.9968
100
100
100
100
100
100
100
100
100
100
100
100
100
100.992
100.992
100.988
100.967
100.91
100.618
100.028
99.9995
100
100
100
100
100
100
100
100
100
100
100
100
100.995
100.993
100.987
100.973
100.947
100.857
100.506
100.021
100
100
100
100
100
100
100
100
100
100
100
100
100.996
100.993
100.99
100.986
100.979
100.955
100.891
100.469
99.8382
100
100
100
100
100
100
100
100
100
100
100
100.694
100.835
100.911
100.944
100.961
100.956
100.956
100.934
100.842
100.758
100.571
100.23
100.029
99.9957
99.9977
99.9989
99.9998
100
100
100
100.123
100.519
100.739
100.836
100.883
100.905
100.925
100.925
100.919
100.907
100.892
100.838
100.728
100.475
100.15
100.011
99.9967
99.9985
99.9992
99.9998
99.5461
100.132
100.479
100.667
100.775
100.813
100.84
100.861
100.875
100.879
100.88
100.882
100.881
100.858
100.772
100.621
100.358
100.101
100.006
99.9978
99.3354
99.8134
100.113
100.43
100.625
100.701
100.741
100.774
100.795
100.807
100.818
100.834
100.851
100.856
100.855
100.844
100.792
100.679
100.518
100.279
99.7425
99.9492
100.009
100.11
100.349
100.564
100.628
100.673
100.707
100.723
100.734
100.75
100.77
100.794
100.814
100.823
100.821
100.814
100.789
100.745
99.8707
99.9275
99.9474
100.043
100.157
100.347
100.449
100.517
100.583
100.612
100.629
100.646
100.666
100.693
100.725
100.751
100.771
100.783
100.78
100.776
99.8379
99.8532
99.9502
100.108
100.181
100.24
100.353
100.415
100.478
100.527
100.55
100.572
100.591
100.611
100.637
100.662
100.686
100.709
100.726
100.735
99.7356
99.8548
99.9571
100.103
100.189
100.247
100.314
100.375
100.429
100.473
100.491
100.51
100.524
100.535
100.549
100.566
100.589
100.615
100.655
100.656
99.6082
99.8483
99.9803
100.068
100.17
100.215
100.251
100.312
100.352
100.395
100.414
100.432
100.441
100.448
100.458
100.479
100.511
100.539
100.581
100.572
99.5864
99.7897
99.9852
100.057
100.141
100.18
100.175
100.223
100.262
100.287
100.307
100.332
100.364
100.381
100.402
100.425
100.447
100.467
100.505
100.495
99.6183
99.7785
99.9503
100.043
100.124
100.169
100.139
100.16
100.205
100.248
100.279
100.298
100.329
100.339
100.353
100.365
100.378
100.394
100.416
100.452
99.6941
99.7927
99.9017
99.9803
100.082
100.133
100.095
100.131
100.201
100.229
100.25
100.255
100.272
100.277
100.282
100.287
100.293
100.312
100.337
100.389
99.8048
99.8287
99.8721
99.914
100.005
100.068
100.076
100.114
100.165
100.179
100.181
100.18
100.175
100.175
100.174
100.188
100.219
100.264
100.288
100.329
99.9223
99.8928
99.8512
99.867
99.9313
100.005
100.038
100.06
100.076
100.096
100.073
100.077
100.09
100.115
100.142
100.174
100.207
100.231
100.241
100.263
100.03
99.9765
99.8689
99.8343
99.8488
99.914
99.9508
99.966
99.9875
100.023
100.043
100.064
100.096
100.129
100.151
100.169
100.181
100.183
100.177
100.179
100.107
100.065
99.975
99.8484
99.8379
99.8604
99.9128
99.9605
99.9864
100.024
100.06
100.088
100.112
100.13
100.136
100.137
100.123
100.101
100.075
100.085
100.192
100.155
100.099
99.9545
99.8509
99.8688
99.9221
99.9809
100.011
100.05
100.082
100.089
100.096
100.096
100.081
100.062
100.029
100.017
100.031
100.076
100.298
100.222
100.149
100.03
99.8998
99.9022
99.9484
100.011
100.032
100.046
100.058
100.041
100.024
100.005
99.9872
99.9843
99.9948
100.016
100.033
100.044
100.343
100.276
100.308
100.201
100.105
100.305
100.587
100.586
100.445
100.44
100.552
100.712
100.748
100.722
100.608
100.398
100.355
100.403
100.463
100.441
100.7
100.804
100.906
100.89
100.872
100.905
100.987
101.025
101.011
101.02
101.102
101.177
101.181
101.17
101.128
101.043
101.026
101.048
101.061
101.056
101.05
101.027
101.007
100.99
100.962
100.938
100.911
100.896
100.894
100.891
100.877
100.857
100.844
100.839
100.836
100.828
100.82
100.817
100.813
100.805
100.585
100.656
100.702
100.729
100.768
100.806
100.806
100.802
100.806
100.813
100.811
100.801
100.792
100.791
100.792
100.792
100.793
100.793
100.79
100.782
100.027
100.077
100.174
100.269
100.426
100.529
100.59
100.623
100.641
100.662
100.68
100.681
100.682
100.687
100.694
100.703
100.713
100.719
100.722
100.721
100.085
100.087
100.096
100.095
100.12
100.224
100.382
100.454
100.486
100.523
100.558
100.565
100.57
100.577
100.586
100.598
100.612
100.62
100.626
100.633
100.129
100.134
100.126
100.133
100.136
100.137
100.172
100.258
100.36
100.426
100.469
100.493
100.506
100.509
100.512
100.521
100.532
100.537
100.543
100.552
100.18
100.18
100.173
100.168
100.171
100.177
100.179
100.173
100.194
100.27
100.368
100.44
100.471
100.479
100.476
100.478
100.484
100.486
100.489
100.497
100.24
100.235
100.204
100.193
100.2
100.208
100.208
100.206
100.19
100.18
100.228
100.342
100.429
100.46
100.456
100.457
100.456
100.454
100.458
100.466
100.307
100.29
100.256
100.227
100.226
100.235
100.237
100.233
100.219
100.191
100.179
100.211
100.318
100.416
100.436
100.442
100.437
100.435
100.442
100.447
100.368
100.346
100.312
100.268
100.256
100.258
100.257
100.25
100.237
100.214
100.181
100.176
100.197
100.296
100.389
100.422
100.416
100.42
100.43
100.431
100.429
100.406
100.37
100.318
100.288
100.273
100.271
100.263
100.252
100.23
100.203
100.179
100.179
100.19
100.281
100.371
100.386
100.405
100.416
100.413
100.527
100.455
100.418
100.374
100.317
100.288
100.289
100.286
100.273
100.256
100.231
100.204
100.186
100.179
100.183
100.23
100.312
100.362
100.372
100.378
100.62
100.534
100.479
100.444
100.401
100.346
100.315
100.3
100.278
100.258
100.243
100.224
100.202
100.185
100.168
100.155
100.171
100.223
100.276
100.318
100.609
100.588
100.535
100.477
100.434
100.391
100.334
100.309
100.289
100.27
100.261
100.244
100.219
100.195
100.173
100.149
100.14
100.133
100.146
100.221
100.488
100.547
100.541
100.515
100.469
100.427
100.376
100.338
100.318
100.293
100.267
100.24
100.212
100.186
100.171
100.153
100.131
100.115
100.101
100.108
100.25
100.377
100.446
100.483
100.474
100.448
100.411
100.36
100.325
100.291
100.259
100.237
100.212
100.191
100.18
100.165
100.141
100.115
100.091
100.072
100.043
100.145
100.254
100.337
100.389
100.415
100.406
100.379
100.342
100.304
100.266
100.245
100.225
100.198
100.172
100.147
100.121
100.099
100.083
100.06
100.002
100.015
100.066
100.155
100.234
100.29
100.33
100.348
100.338
100.317
100.283
100.246
100.217
100.186
100.157
100.135
100.113
100.096
100.088
100.067
100
100
100.003
100.025
100.079
100.149
100.208
100.25
100.279
100.292
100.283
100.259
100.228
100.197
100.167
100.146
100.126
100.106
100.086
100.056
100
100
100
100.001
100.006
100.031
100.081
100.14
100.187
100.216
100.241
100.244
100.235
100.216
100.187
100.156
100.129
100.103
100.079
100.048
100
100
100
100
100
100.001
100.008
100.032
100.078
100.129
100.169
100.192
100.21
100.209
100.202
100.183
100.156
100.126
100.101
100.069
100
100
100
100
100
100
100
100.001
100.008
100.032
100.073
100.118
100.154
100.174
100.186
100.184
100.177
100.161
100.137
100.098
100
100
100
100
100
100
100
100
100
100.001
100.008
100.028
100.065
100.107
100.141
100.159
100.168
100.167
100.162
100.138
100
100
100
100
100
100
100
100
100
100
100
100.001
100.007
100.024
100.057
100.096
100.128
100.147
100.154
100.151
100
100
100
100
100
100
100
100
100
100
100
100
100
100.001
100.005
100.02
100.047
100.084
100.113
100.138
100
100
100
100
100
100
100
100
100
100
100
100
100
100
100
100.001
100.004
100.016
100.041
100.105
100.597
100.652
100.609
100.416
100.143
100.017
100.001
100
100
100
100
100
100
100
100
100.671
100.662
100.518
100.218
100.022
100
100
100
100
100
100
100
100
100
100
100.705
100.635
100.373
100.074
100.002
100
100
100
100
100
100
100
100
100
100
100.719
100.517
100.166
100.009
100
100
100
100
100
100
100
100
100
100
100
100.652
100.284
100.024
100
100
100
100
100
100
100
100
100
100
100
100
100.395
100.038
100
100
100
100
100
100
100
100
100
100
100
100
100
100.043
100
100
100
100
100
100
100
100
100
100
100
100
100
100
99.9995
100
100
100
100
100
100
100
100
100
100
100
100
100
100
100
100
100
100
100
100
100
100
100
100
100
100
100
100
100
100
100
100
100
100
100
100
100
100
100
100
100
100
100
100
100
100
100
100
100
100
100
100
100
100
100
100
100
100
100
100
100
100
100
100
100
100
100
100
100
100
100
100
100
100
100
100
100
100
100
100
100
100
100
100
100
100
100
100
100
100
100
100
100
100
100
100
100
100
100
100
100
100
100
100
100
100
100
100
100
100
100
100
100
100
100
100
100
100
100
100
100
100
100
100
100
100
100
100
100
100
100
100
100
100
100
100
100
100
100
100
100
100
100
100
100
100
100
100
100
100
100
100
100
100
100
100
100
100
100
100
100
100
100
100
100
100
100
100
100
100
100
100
100
100
100
100
100
100
100
100
100
100
100
100
100
100
100
100
100
100
100
100
100
100
100
100
100
100
100
100
100
100
100
100
100
100
100
100
100
100
100
100
100
100
100
100
100
100
100
100
100
100
100
100
100
100
100
100
100
100
100
100
100
100
100
100
100
100
100
100
100
100
100
100
100
100
100
100
100
100
100
100
100
100
100
100
100
100
100
100
100
100
100
100
100
100
100
100
100
100
100
100
100
100
100
100
100
100
100
100
100
100
100
100
100
100
100
100
100
100
100
100
100
100
100
100
100
100
100
100
100
100
100
100
100
100
100
100
100
100
100
100
100
100
100
100
100
100
100
100
100
100
100
100
100
100
100
100
100
100
100
100
100
100
100
100
100
100
100
100
100
100
100
100
100
100
100
100
100
100
100
100
100
100
100
100
100
100
100
100
100
100
100
100
100
100
100
100
100
100
100
100
100
100
100
100
100
100
100
100
100
100
100
100
100
100
100
100
100
100
100
100
100
100
100
100
100
100
100
100
100
100
100
100
100
100
100
100
100
100
100
100
100
100
100
100
100
100
100
100
100
100
100
100
100
100
100
100
100
100
100
100
100
100
100
100
100
100
100
100
100
100
100
100
100
100
100
100
100
100
100
100
100
100
100
100
100
100
100
100
100
100
100
100
100
100
100
100
100
100
100
100
100
100
100
100
100
100
100
100
100
100
100
100
100
100
100
100
100
100
100
100
100
100
100
100
100
100
100
100
100
100
100
100
100
100
100
100
100
100
100
100
100
100
100
100
100
100
100
100
100
100
100
100
100
100
100
100
100
100
100
100
100
100
100
100
100
100
100
100
100
100
100
100
100
100
100
100
100
100
100
100
100
100
100
100
100
100
100
100
100
100
100
100
100
100
100
100
100
100
100
100
100
100
100
100
100
100
100
100
100
100
100
100
100
100
100
100
100
100
100
100
100
100
100
100
100
100
100
100
100
100
100
100
100
100
100
100
100
100
100
100
100
100
100
100
100
100
100
100
100
100
100
100
100
100
100
100
100
100
100
100
100
100
100
100
100
100
100
100
100
100
100
100
100
100
100
100
100
100
100
100
100
100
100
100
100
100
100
100
100
100
100
100
100
100
100
100
100
100
100
100
100
100
100
100
100
100
100
100
100
100
100
100
100
100
100
100
100
100
100
100
100
100
100
100
100
100
100
100
100
100
100
100
100
100
100
100
100
100
100
100
100
100
100
100
100
100
100
100
100
100
100
100
100
100
100
100
100
100
100
100
100
100
100
100
100
100
100
100
100
100
100
100
100
100
100
100
100
100
100
100
100
100
100
100
100
100
100
100
100
100
100
100
100
100
100
100
100
100
100
100
100
100
100
100
100
100
100
100
100
100
100
100
100
100
100
100
100
100
100
100
100
100
100
100
100
100
100
100
100
100
100
100
100
100
100
100
100
100
100
100
100
100
100
100
100
100
100
100
100
100
100
100
100
100
100
100
100
100
100
100
100
100
100
100
100
100
100
100
100
100
100
100
100
100
100
100
100
100
100
100
100
100
100
100
100
100
100
100
100
100
100
100
100
100
100
100
100
100
100
100
100
100
99.9995
100
100
100
100
100
100
100
100
100
100
100
100
100
100
100.043
100
100
100
100
100
100
100
100
100
100
100
100
100
100
100.395
100.038
100
100
100
100
100
100
100
100
100
100
100
100
100
100.652
100.284
100.024
100
100
100
100
100
100
100
100
100
100
100
100
100.719
100.517
100.166
100.009
100
100
100
100
100
100
100
100
100
100
100
100.705
100.635
100.373
100.074
100.002
100
100
100
100
100
100
100
100
100
100
100.672
100.662
100.518
100.218
100.022
100
100
100
100
100
100
100
100
100
100
100.597
100.652
100.609
100.416
100.143
100.017
100.001
100
100
100
100
100
100
100
100
100.525
100.62
100.609
100.488
100.25
100.043
100.002
100
100
100
100
100
100
100
100
100.454
100.533
100.588
100.547
100.376
100.145
100.015
100
100
100
100
100
100
100
100
100.42
100.478
100.535
100.54
100.446
100.254
100.066
100.003
100
100
100
100
100
100
100
100.376
100.443
100.477
100.514
100.483
100.337
100.155
100.025
100.001
100
100
100
100
100
100
100.319
100.4
100.434
100.47
100.474
100.389
100.234
100.078
100.006
100
100
100
100
100
100
100.291
100.352
100.388
100.425
100.449
100.415
100.29
100.149
100.031
100.001
100
100
100
100
100
100.287
100.318
100.34
100.377
100.409
100.405
100.33
100.208
100.081
100.008
100
100
100
100
100
100.283
100.297
100.313
100.344
100.361
100.378
100.348
100.25
100.14
100.032
100.001
100
100
100
100
100.27
100.275
100.285
100.318
100.328
100.342
100.338
100.279
100.187
100.078
100.008
100
100
100
100
100.255
100.256
100.268
100.288
100.292
100.308
100.317
100.292
100.216
100.129
100.032
100.001
100
100
100
100.234
100.245
100.262
100.265
100.255
100.268
100.283
100.283
100.242
100.169
100.073
100.008
100
100
100
100.206
100.227
100.247
100.241
100.232
100.243
100.246
100.259
100.244
100.192
100.118
100.028
100.001
100
100
100.185
100.205
100.222
100.213
100.209
100.221
100.216
100.228
100.236
100.21
100.154
100.065
100.007
100
100
100.174
100.187
100.196
100.186
100.191
100.196
100.186
100.198
100.216
100.209
100.173
100.107
100.024
100.001
100
100.179
100.165
100.175
100.173
100.181
100.172
100.157
100.167
100.187
100.202
100.186
100.141
100.057
100.005
100
100.225
100.152
100.149
100.156
100.166
100.148
100.134
100.145
100.156
100.183
100.184
100.159
100.096
100.02
100.001
100.309
100.166
100.139
100.133
100.143
100.121
100.111
100.126
100.13
100.156
100.177
100.168
100.128
100.047
100.004
100.365
100.221
100.129
100.113
100.117
100.098
100.096
100.106
100.104
100.126
100.161
100.167
100.147
100.084
100.016
100.376
100.277
100.144
100.099
100.094
100.082
100.089
100.086
100.079
100.101
100.137
100.162
100.154
100.113
100.041
100.379
100.319
100.22
100.108
100.074
100.06
100.069
100.056
100.048
100.069
100.098
100.138
100.151
100.138
100.105
100.43
100.405
100.37
100.32
100.289
100.273
100.273
100.263
100.25
100.235
100.208
100.177
100.175
100.186
100.276
100.365
100.386
100.41
100.418
100.414
100.368
100.345
100.312
100.27
100.256
100.258
100.258
100.251
100.238
100.219
100.185
100.173
100.193
100.292
100.385
100.423
100.416
100.421
100.431
100.431
100.306
100.29
100.258
100.224
100.22
100.231
100.235
100.233
100.223
100.197
100.178
100.211
100.315
100.406
100.439
100.445
100.441
100.437
100.443
100.446
100.241
100.235
100.205
100.193
100.199
100.208
100.208
100.209
100.197
100.184
100.235
100.344
100.426
100.459
100.458
100.46
100.46
100.456
100.458
100.464
100.18
100.18
100.173
100.167
100.169
100.175
100.175
100.172
100.198
100.275
100.375
100.442
100.472
100.479
100.477
100.48
100.485
100.486
100.488
100.494
100.128
100.135
100.125
100.128
100.138
100.139
100.171
100.259
100.363
100.428
100.468
100.496
100.509
100.511
100.512
100.518
100.529
100.535
100.541
100.549
100.084
100.09
100.096
100.094
100.117
100.212
100.373
100.457
100.488
100.52
100.554
100.568
100.577
100.583
100.587
100.595
100.607
100.616
100.623
100.631
100.028
100.053
100.164
100.268
100.428
100.517
100.578
100.622
100.642
100.658
100.676
100.685
100.692
100.697
100.698
100.701
100.708
100.713
100.717
100.72
100.561
100.626
100.685
100.726
100.774
100.8
100.797
100.799
100.806
100.807
100.807
100.807
100.803
100.799
100.795
100.792
100.79
100.788
100.785
100.782
101.042
101.014
100.996
100.986
100.964
100.942
100.907
100.894
100.891
100.883
100.87
100.863
100.85
100.842
100.838
100.83
100.823
100.818
100.812
100.805
)
;

boundaryField
{
    inlet
    {
        type            fixedValue;
        value           uniform 100;
    }
    outlet
    {
        type            inletOutlet;
        inletValue      uniform 100;
        value           nonuniform List<scalar> 
50
(
100.378
100.318
100.221
100.108
100.072
100.06
100.067
100.056
100.048
100.069
100.098
100.138
100.151
100.138
100.105
100.805
100.782
100.721
100.633
100.552
100.497
100.466
100.447
100.431
100.413
100.414
100.431
100.446
100.464
100.494
100.549
100.631
100.72
100.782
100.805
100.379
100.319
100.22
100.108
100.074
100.06
100.069
100.056
100.048
100.069
100.098
100.138
100.151
100.138
100.105
)
;
    }
    airfoil
    {
        type            zeroGradient;
    }
    top
    {
        type            symmetryPlane;
    }
    bottom
    {
        type            symmetryPlane;
    }
    defaultFaces
    {
        type            empty;
    }
}


// ************************************************************************* //
