/*--------------------------------*- C++ -*----------------------------------*\
  =========                 |
  \\      /  F ield         | OpenFOAM: The Open Source CFD Toolbox
   \\    /   O peration     | Website:  https://openfoam.org
    \\  /    A nd           | Version:  7
     \\/     M anipulation  |
\*---------------------------------------------------------------------------*/
FoamFile
{
    version     2.0;
    format      ascii;
    class       volVectorField;
    location    "5.9";
    object      U;
}
// * * * * * * * * * * * * * * * * * * * * * * * * * * * * * * * * * * * * * //

dimensions      [0 1 -1 0 0 0 0];

internalField   nonuniform List<vector> 
3700
(
(1.34291 -0.424769 0)
(1.42286 -0.428778 0)
(1.36704 -0.312911 0)
(1.28472 -0.1802 0)
(1.32424 -0.133874 0)
(1.42275 -0.212866 0)
(1.52651 -0.342114 0)
(1.51092 -0.375825 0)
(1.42964 -0.245599 0)
(1.46074 -0.0575121 0)
(1.57713 -0.0231695 0)
(1.64416 -0.110373 0)
(1.65233 -0.248283 0)
(1.61349 -0.263347 0)
(1.57908 -0.20575 0)
(1.59873 -0.0871369 0)
(1.68858 -0.0759261 0)
(1.75938 -0.169926 0)
(1.85986 -0.250023 0)
(1.89345 -0.226848 0)
(1.69983 -1.40961 0)
(1.88922 -1.24986 0)
(1.91022 -1.42344 0)
(1.82936 -1.4219 0)
(1.79644 -1.36636 0)
(1.89347 -1.60734 0)
(1.92275 -1.75355 0)
(1.77344 -1.75002 0)
(1.65258 -1.42077 0)
(1.71491 -1.14574 0)
(1.89465 -1.02848 0)
(2.02518 -1.08224 0)
(2.10716 -1.24243 0)
(2.06496 -1.23897 0)
(1.99256 -1.13294 0)
(1.96982 -0.934553 0)
(2.06843 -1.00187 0)
(2.18272 -1.1201 0)
(2.25001 -1.20036 0)
(2.30626 -1.19452 0)
(1.82547 -1.45258 0)
(2.13039 -1.21587 0)
(2.24441 -1.64958 0)
(2.16086 -1.97619 0)
(2.04885 -2.19984 0)
(2.02869 -2.28571 0)
(2.07896 -2.2189 0)
(1.97144 -2.22398 0)
(1.9982 -2.15983 0)
(2.06299 -2.07568 0)
(2.14504 -2.0305 0)
(2.23636 -1.94833 0)
(2.34533 -1.89736 0)
(2.44178 -1.83503 0)
(2.52628 -1.7874 0)
(2.58412 -1.73098 0)
(2.58357 -1.75269 0)
(2.57956 -1.68905 0)
(2.53801 -1.67044 0)
(2.53586 -1.60029 0)
(1.92222 -1.4809 0)
(2.19704 -1.21997 0)
(2.26949 -1.61863 0)
(2.1065 -1.94926 0)
(2.04593 -2.16311 0)
(2.03655 -2.27812 0)
(2.11754 -2.19039 0)
(2.06748 -2.16341 0)
(2.1206 -2.08732 0)
(2.20242 -2.01666 0)
(2.21194 -2.03477 0)
(2.30222 -1.86854 0)
(2.37039 -1.78518 0)
(2.45826 -1.69407 0)
(2.58924 -1.59935 0)
(2.71509 -1.4554 0)
(2.76715 -1.35924 0)
(2.80854 -1.32402 0)
(2.78438 -1.35623 0)
(2.67664 -1.39099 0)
(1.89611 -1.46706 0)
(2.07715 -1.26459 0)
(1.99728 -1.77474 0)
(1.8046 -2.10298 0)
(1.9146 -2.20018 0)
(1.97761 -2.26415 0)
(2.09979 -2.16315 0)
(2.13828 -2.09605 0)
(2.20565 -2.00453 0)
(2.34461 -1.82749 0)
(2.3628 -1.90165 0)
(2.44299 -1.79153 0)
(2.44734 -1.71874 0)
(2.47177 -1.64429 0)
(2.54014 -1.55258 0)
(2.62201 -1.434 0)
(2.67787 -1.29754 0)
(2.79681 -1.11908 0)
(2.86993 -0.921181 0)
(2.82008 -0.90968 0)
(1.76908 -1.44704 0)
(1.88468 -1.37165 0)
(1.73955 -1.80482 0)
(1.68246 -2.14586 0)
(1.65323 -2.21787 0)
(1.80236 -2.16914 0)
(1.99059 -2.06895 0)
(2.20682 -1.84854 0)
(2.34458 -1.82019 0)
(2.48825 -1.68869 0)
(2.49774 -1.66842 0)
(2.58687 -1.55203 0)
(2.61541 -1.51099 0)
(2.6069 -1.48425 0)
(2.61631 -1.3946 0)
(2.62032 -1.31038 0)
(2.63647 -1.20623 0)
(2.72994 -1.14651 0)
(2.76048 -0.978162 0)
(2.8435 -0.755172 0)
(1.61584 -1.35721 0)
(1.70148 -1.35176 0)
(1.58983 -1.78328 0)
(1.49354 -2.14744 0)
(1.58861 -2.18788 0)
(1.77198 -2.10211 0)
(1.94329 -1.97072 0)
(2.09797 -1.79199 0)
(2.23118 -1.68346 0)
(2.43415 -1.59099 0)
(2.54119 -1.38191 0)
(2.66703 -1.28626 0)
(2.71538 -1.18149 0)
(2.7239 -1.17784 0)
(2.74333 -1.07212 0)
(2.72348 -1.04397 0)
(2.70861 -0.938038 0)
(2.7082 -0.945225 0)
(2.73125 -0.89609 0)
(2.75467 -0.667617 0)
(1.50449 -1.2121 0)
(1.57462 -1.23384 0)
(1.51636 -1.71958 0)
(1.43724 -2.12163 0)
(1.64402 -2.15308 0)
(1.80987 -2.09828 0)
(2.00534 -1.92254 0)
(2.10327 -1.75871 0)
(2.17384 -1.65525 0)
(2.31051 -1.5983 0)
(2.44197 -1.34994 0)
(2.61156 -1.25748 0)
(2.66459 -0.967874 0)
(2.75081 -0.863417 0)
(2.76825 -0.66893 0)
(2.76982 -0.653418 0)
(2.76755 -0.569393 0)
(2.74299 -0.55504 0)
(2.72976 -0.663203 0)
(2.6993 -0.4882 0)
(1.47018 -1.07426 0)
(1.48591 -1.13578 0)
(1.46991 -1.66132 0)
(1.51215 -2.09225 0)
(1.82014 -2.11359 0)
(2.04836 -2.02765 0)
(2.17368 -1.73874 0)
(2.28008 -1.61192 0)
(2.31751 -1.59094 0)
(2.35584 -1.53425 0)
(2.44773 -1.3245 0)
(2.54233 -1.21348 0)
(2.59153 -0.981372 0)
(2.71199 -0.88325 0)
(2.71826 -0.612549 0)
(2.76078 -0.469434 0)
(2.75466 -0.289535 0)
(2.73695 -0.177765 0)
(2.70302 -0.280662 0)
(2.6677 -0.225968 0)
(1.43202 -1.01131 0)
(1.39892 -1.11393 0)
(1.47469 -1.70394 0)
(1.66352 -2.17656 0)
(2.21619 -2.09554 0)
(2.42801 -1.9809 0)
(2.4695 -1.53774 0)
(2.50021 -1.36085 0)
(2.58536 -1.24986 0)
(2.62305 -1.21414 0)
(2.63044 -1.10807 0)
(2.65206 -0.939437 0)
(2.63847 -0.80513 0)
(2.67803 -0.720329 0)
(2.67223 -0.540768 0)
(2.69666 -0.427662 0)
(2.7083 -0.26556 0)
(2.68713 -0.0715551 0)
(2.6465 0.0285689 0)
(2.61641 0.0177027 0)
(1.33149 -1.0045 0)
(1.35156 -1.17098 0)
(1.54982 -1.87564 0)
(1.88613 -2.38364 0)
(2.36125 -2.03377 0)
(2.46507 -1.88978 0)
(2.61611 -1.3966 0)
(2.72564 -1.17363 0)
(2.80808 -1.02316 0)
(2.78313 -0.681038 0)
(2.77691 -0.587827 0)
(2.74504 -0.401964 0)
(2.72682 -0.356415 0)
(2.71289 -0.263466 0)
(2.68475 -0.197179 0)
(2.65204 -0.156878 0)
(2.64001 -0.124737 0)
(2.61524 -0.015176 0)
(2.55612 0.162694 0)
(2.56451 0.158892 0)
(1.18196 -0.991628 0)
(1.37373 -1.27524 0)
(1.77955 -2.1379 0)
(2.02216 -2.25683 0)
(2.22046 -1.84421 0)
(2.278 -1.65228 0)
(2.4078 -1.31299 0)
(2.49423 -1.08736 0)
(2.54901 -0.993812 0)
(2.60668 -0.68832 0)
(2.68643 -0.488129 0)
(2.66352 -0.200214 0)
(2.67018 -0.0497349 0)
(2.63767 0.112544 0)
(2.60446 0.213353 0)
(2.5684 0.246713 0)
(2.53667 0.240916 0)
(2.53112 0.190641 0)
(2.45367 0.31817 0)
(2.47128 0.296824 0)
(1.06119 -0.98696 0)
(1.48218 -1.70409 0)
(1.88856 -2.17677 0)
(1.99271 -1.9867 0)
(2.12165 -1.73852 0)
(2.25545 -1.42592 0)
(2.34205 -1.18889 0)
(2.42433 -0.966178 0)
(2.46171 -0.748343 0)
(2.50122 -0.586677 0)
(2.56069 -0.389978 0)
(2.5549 -0.15096 0)
(2.56844 0.0201428 0)
(2.54444 0.196888 0)
(2.49099 0.372091 0)
(2.45561 0.457325 0)
(2.38233 0.564368 0)
(2.3609 0.525374 0)
(2.32036 0.558985 0)
(2.33099 0.511366 0)
(0.956392 -1.08786 0)
(1.46236 -2.07005 0)
(1.84923 -2.00072 0)
(1.99377 -1.83989 0)
(2.23837 -1.60768 0)
(2.396 -0.847227 0)
(2.48057 -0.766247 0)
(2.55573 -0.5336 0)
(2.52728 -0.198755 0)
(2.54348 -0.111827 0)
(2.52686 0.072688 0)
(2.4864 0.218332 0)
(2.44988 0.32551 0)
(2.41316 0.413394 0)
(2.36012 0.508506 0)
(2.33428 0.560591 0)
(2.24922 0.672403 0)
(2.19042 0.747823 0)
(2.15946 0.789704 0)
(2.14222 0.793131 0)
(0.890511 -1.15258 0)
(1.32287 -1.98221 0)
(1.85086 -1.79455 0)
(2.13035 -1.38832 0)
(2.47534 -0.860495 0)
(2.4929 -0.251933 0)
(2.54736 -0.0927717 0)
(2.53436 0.131742 0)
(2.49473 0.225019 0)
(2.46813 0.366342 0)
(2.40721 0.517953 0)
(2.32373 0.650217 0)
(2.26426 0.722965 0)
(2.20756 0.785853 0)
(2.1715 0.793961 0)
(2.13765 0.805875 0)
(2.0889 0.852415 0)
(2.06571 0.881611 0)
(2.03014 0.935214 0)
(2.05692 0.958166 0)
(0.843103 -1.02342 0)
(1.43548 -1.68068 0)
(2.00667 -1.51397 0)
(2.25839 -0.334577 0)
(2.39303 0.105792 0)
(2.44158 -0.202263 0)
(2.4606 0.0222421 0)
(2.40224 0.293624 0)
(2.34603 0.421452 0)
(2.31794 0.572176 0)
(2.2293 0.728026 0)
(2.13509 0.852406 0)
(2.06816 0.924242 0)
(2.00873 0.985441 0)
(1.97525 0.987646 0)
(1.95387 0.995813 0)
(1.95424 1.01602 0)
(1.96967 0.994997 0)
(1.99488 0.99492 0)
(2.07014 0.979008 0)
(1.04807 -0.519881 0)
(1.76963 -0.450684 0)
(2.30242 -0.651056 0)
(2.35119 0.0915305 0)
(2.35503 0.125687 0)
(2.35059 0.306826 0)
(2.2708 0.519938 0)
(2.21243 0.631211 0)
(2.14239 0.744414 0)
(2.09308 0.885061 0)
(1.98259 0.997357 0)
(1.92252 1.05174 0)
(1.8853 1.07375 0)
(1.86793 1.0862 0)
(1.87218 1.05586 0)
(1.89765 1.04788 0)
(1.96081 1.02162 0)
(2.16146 0.905585 0)
(2.38007 0.794416 0)
(2.77876 0.442867 0)
(1.13636 -0.0850167 0)
(1.92967 -0.118616 0)
(2.23116 0.400083 0)
(2.22563 0.545122 0)
(2.20319 0.588535 0)
(2.14299 0.737193 0)
(2.03277 0.899928 0)
(1.9554 0.98561 0)
(1.90717 1.04167 0)
(1.85062 1.12838 0)
(1.79116 1.16058 0)
(1.79151 1.15185 0)
(1.80746 1.12966 0)
(1.84944 1.08594 0)
(2.043 0.948081 0)
(2.2614 0.825879 0)
(2.6633 0.503384 0)
(3.03506 0.0928762 0)
(3.05563 -0.0237795 0)
(3.00409 -0.00470752 0)
(1.00644 0.0285761 0)
(1.91068 0.80631 0)
(2.11169 0.806134 0)
(2.00758 0.938983 0)
(1.95958 0.983378 0)
(1.8538 1.09406 0)
(1.78869 1.13375 0)
(1.76396 1.14433 0)
(1.76303 1.16118 0)
(1.74217 1.202 0)
(1.72246 1.19362 0)
(1.86123 1.06771 0)
(2.09084 0.886926 0)
(2.49718 0.581448 0)
(2.98547 0.138294 0)
(3.0735 -0.0289973 0)
(3.00813 -0.0076702 0)
(3.00293 -0.00384443 0)
(3.00123 -0.0022045 0)
(3.00008 -0.00048804 0)
(1.16594 0.765966 0)
(1.82993 1.15309 0)
(1.84351 1.15256 0)
(1.7386 1.20136 0)
(1.70815 1.19932 0)
(1.66099 1.24316 0)
(1.65378 1.21576 0)
(1.72604 1.16799 0)
(1.76151 1.23651 0)
(1.80071 1.14289 0)
(2.27835 0.735228 0)
(2.86283 0.204519 0)
(3.09964 -0.0302455 0)
(3.02116 -0.0127262 0)
(3.00459 -0.00549811 0)
(3.00183 -0.00300814 0)
(3.00006 -0.000582134 0)
(2.99998 -2.18616e-05 0)
(2.99999 1.44891e-05 0)
(3 5.95959e-06 0)
(1.58067 1.25814 0)
(1.58498 1.2635 0)
(1.59325 1.26789 0)
(1.60119 1.26653 0)
(1.60539 1.25769 0)
(1.59297 1.2687 0)
(1.89012 1.18161 0)
(2.96498 0.408715 0)
(3.345 -0.625136 0)
(3 6.24203e-11 0)
(3 -7.32984e-11 0)
(3 7.76559e-11 0)
(3 6.38624e-15 0)
(3 -4.24826e-13 0)
(3 -1.20339e-14 0)
(3 1.81833e-14 0)
(3 -7.43579e-15 0)
(3 1.15739e-15 0)
(3 2.22133e-15 0)
(3 4.22429e-15 0)
(1.58209 1.24586 0)
(1.59388 1.2564 0)
(1.60601 1.26437 0)
(1.61087 1.27764 0)
(1.63957 1.2723 0)
(1.72905 1.21203 0)
(2.23829 0.754656 0)
(2.992 0.0195645 0)
(3 4.61956e-08 0)
(3 -1.76723e-11 0)
(3 8.08435e-14 0)
(3 3.62286e-16 0)
(3 1.62471e-15 0)
(3 2.53474e-15 0)
(3 2.02742e-15 0)
(3 2.68689e-15 0)
(3 3.31429e-15 0)
(3 1.68401e-15 0)
(3 1.47672e-15 0)
(3 3.4956e-15 0)
(1.58137 1.24684 0)
(1.60432 1.25151 0)
(1.61852 1.25612 0)
(1.61337 1.27337 0)
(1.68977 1.22122 0)
(2.24183 0.769142 0)
(3.00399 -0.00904638 0)
(3.00013 -0.000503438 0)
(3 8.16337e-07 0)
(3 5.97059e-11 0)
(3 8.31102e-14 0)
(3 -8.92359e-16 0)
(3 3.82837e-16 0)
(3 8.17374e-16 0)
(3 1.86632e-15 0)
(3 3.34652e-15 0)
(3 2.61662e-15 0)
(3 1.66463e-15 0)
(3 1.755e-15 0)
(3 3.43106e-15 0)
(1.58199 1.25201 0)
(1.6041 1.25222 0)
(1.62497 1.25766 0)
(1.64246 1.26379 0)
(1.91615 1.05147 0)
(2.77347 0.202386 0)
(3.00445 -0.000852862 0)
(2.99991 7.21032e-05 0)
(3 -9.45773e-07 0)
(3 8.80876e-10 0)
(3 6.76254e-14 0)
(3 -5.68007e-16 0)
(3 1.04889e-16 0)
(3 1.23324e-15 0)
(3 1.43755e-15 0)
(3 2.81002e-15 0)
(3 1.90084e-15 0)
(3 1.84382e-15 0)
(3 1.955e-15 0)
(3 2.22341e-15 0)
(1.58133 1.26217 0)
(1.59445 1.26568 0)
(1.63145 1.26497 0)
(1.66189 1.24949 0)
(2.33347 0.648519 0)
(3.02042 -0.0181993 0)
(2.99975 0.000144808 0)
(3 -4.20379e-06 0)
(3 8.27822e-08 0)
(3 -9.10231e-10 0)
(3 3.64891e-13 0)
(3 -5.52271e-16 0)
(3 1.42301e-16 0)
(3 1.05274e-15 0)
(3 1.45409e-15 0)
(3 1.23156e-15 0)
(3 1.7372e-15 0)
(3 2.23376e-15 0)
(3 1.91741e-15 0)
(3 9.87398e-16 0)
(1.5808 1.28167 0)
(1.58695 1.28173 0)
(1.64409 1.26226 0)
(1.76779 1.16619 0)
(2.67239 0.277831 0)
(3 -6.09006e-10 0)
(3 1.40524e-08 0)
(3 -1.26459e-08 0)
(3 5.39662e-10 0)
(3 2.65484e-12 0)
(3 -1.19044e-13 0)
(3 -6.70884e-17 0)
(3 2.35723e-16 0)
(3 1.12184e-15 0)
(3 1.61086e-15 0)
(3 1.70747e-15 0)
(3 2.05601e-15 0)
(3 2.75268e-15 0)
(3 7.54118e-16 0)
(3 3.9122e-16 0)
(1.58071 1.29525 0)
(1.55098 1.30898 0)
(1.67996 1.23866 0)
(2.2137 0.823122 0)
(3.02279 -0.0229017 0)
(3 -2.92489e-11 0)
(3 -2.72225e-11 0)
(3 4.59743e-11 0)
(3 -4.02595e-12 0)
(3 -5.40465e-15 0)
(3 -7.54274e-16 0)
(3 -2.2653e-16 0)
(3 8.80203e-16 0)
(3 9.42787e-16 0)
(3 2.8091e-15 0)
(3 2.77408e-15 0)
(3 2.69879e-15 0)
(3 2.39634e-15 0)
(3 6.92287e-16 0)
(3 5.21309e-17 0)
(1.595 1.33181 0)
(1.49648 1.33783 0)
(1.73183 1.18741 0)
(2.38968 0.557223 0)
(3 -2.47628e-06 0)
(3 -5.31096e-12 0)
(3 4.20978e-15 0)
(3 -1.92185e-13 0)
(3 3.15893e-14 0)
(3 -2.13485e-15 0)
(3 -1.873e-15 0)
(3 6.68231e-17 0)
(3 1.19043e-15 0)
(3 1.37726e-15 0)
(3 2.21451e-15 0)
(3 3.95576e-15 0)
(3 3.78411e-15 0)
(3 1.94514e-15 0)
(3 7.62745e-16 0)
(3 5.35751e-19 0)
(1.58964 1.30468 0)
(1.47701 1.353 0)
(1.95595 1.02965 0)
(2.86911 0.11265 0)
(3 -8.07583e-09 0)
(3 6.93058e-11 0)
(3 -1.45183e-14 0)
(3 -2.72828e-15 0)
(3 -2.71203e-15 0)
(3 -2.20537e-15 0)
(3 -1.5362e-15 0)
(3 -5.93145e-16 0)
(3 9.20684e-16 0)
(3 2.2507e-15 0)
(3 3.15587e-15 0)
(3 4.29998e-15 0)
(3 3.53941e-15 0)
(3 1.95128e-15 0)
(3 7.54871e-16 0)
(3 3.2153e-16 0)
(1.60209 1.29009 0)
(1.47746 1.37265 0)
(2.18892 0.806446 0)
(3.01035 -0.0084753 0)
(3 2.6494e-08 0)
(3 -4.97217e-11 0)
(3 2.29313e-14 0)
(3 -3.10107e-15 0)
(3 -3.62371e-15 0)
(3 -3.35168e-15 0)
(3 -2.63504e-15 0)
(3 -1.74905e-15 0)
(3 -4.85988e-16 0)
(3 1.34932e-15 0)
(3 3.04681e-15 0)
(3 4.57475e-15 0)
(3 3.45256e-15 0)
(3 2.45592e-15 0)
(3 1.01681e-15 0)
(3 5.54291e-17 0)
(1.61877 1.27808 0)
(1.55221 1.32835 0)
(2.40249 0.558333 0)
(3 -3.06789e-12 0)
(3 -2.27026e-11 0)
(3 3.36931e-13 0)
(3 -5.53518e-15 0)
(3 -3.37622e-15 0)
(3 -4.22855e-15 0)
(3 -4.00382e-15 0)
(3 -2.72701e-15 0)
(3 -2.06197e-15 0)
(3 3.3497e-16 0)
(3 1.67292e-15 0)
(3 3.10611e-15 0)
(3 4.57875e-15 0)
(3 6.097e-15 0)
(3 5.9517e-15 0)
(3 3.59359e-15 0)
(3 2.50952e-15 0)
(1.63678 1.26496 0)
(1.64241 1.24235 0)
(2.65359 0.29055 0)
(3 1.01382e-12 0)
(3 -1.54754e-13 0)
(3 -6.86698e-15 0)
(3 -3.28727e-15 0)
(3 -3.82727e-15 0)
(3 -4.43717e-15 0)
(3 -4.44956e-15 0)
(3 -2.67101e-15 0)
(3 -1.76319e-15 0)
(3 -3.97834e-16 0)
(3 1.60417e-16 0)
(3 1.53369e-15 0)
(3 2.40245e-15 0)
(3 4.36624e-15 0)
(3 6.86349e-15 0)
(3 8.34325e-15 0)
(3 7.91327e-15 0)
(1.65277 1.24043 0)
(1.81825 1.10495 0)
(2.86547 0.102005 0)
(3 -9.55976e-15 0)
(3 -3.3667e-15 0)
(3 -3.22158e-15 0)
(3 -2.91081e-15 0)
(3 -3.64288e-15 0)
(3 -4.99899e-15 0)
(3 -4.82516e-15 0)
(3 -2.61129e-15 0)
(3 -1.69756e-15 0)
(3 -1.14626e-15 0)
(3 -1.0417e-15 0)
(3 2.01732e-16 0)
(3 1.09705e-15 0)
(3 1.85155e-15 0)
(3 3.35811e-15 0)
(3 4.72432e-15 0)
(3 4.52975e-15 0)
(1.6617 1.2059 0)
(1.882 0.979622 0)
(2.97942 0.0136811 0)
(3 -5.16339e-15 0)
(3 -5.0085e-15 0)
(3 -5.39482e-15 0)
(3 -5.5453e-15 0)
(3 -5.32261e-15 0)
(3 -4.94896e-15 0)
(3 -4.44473e-15 0)
(3 -3.84123e-15 0)
(3 -2.99119e-15 0)
(3 -2.39103e-15 0)
(3 -2.10541e-15 0)
(3 -1.53435e-15 0)
(3 4.43923e-16 0)
(3 1.51207e-15 0)
(3 2.57781e-15 0)
(3 3.89736e-15 0)
(3 5.29871e-15 0)
(1.72325 1.167 0)
(2.07174 0.812869 0)
(3 -6.68726e-15 0)
(3 -6.50789e-15 0)
(3 -6.20899e-15 0)
(3 -6.22034e-15 0)
(3 -6.5206e-15 0)
(3 -5.33358e-15 0)
(3 -4.82447e-15 0)
(3 -4.61449e-15 0)
(3 -5.08517e-15 0)
(3 -5.42923e-15 0)
(3 -5.06005e-15 0)
(3 -4.34936e-15 0)
(3 -2.52665e-15 0)
(3 -1.51634e-15 0)
(3 -9.3201e-16 0)
(3 -6.42502e-16 0)
(3 3.91009e-16 0)
(3 1.8416e-15 0)
(1.77635 1.09599 0)
(2.24002 0.649941 0)
(3 -6.18525e-15 0)
(3 -5.63191e-15 0)
(3 -5.40744e-15 0)
(3 -5.63314e-15 0)
(3 -6.81441e-15 0)
(3 -6.55089e-15 0)
(3 -5.84158e-15 0)
(3 -5.05785e-15 0)
(3 -4.52265e-15 0)
(3 -4.7323e-15 0)
(3 -5.40573e-15 0)
(3 -5.74326e-15 0)
(3 -5.47089e-15 0)
(3 -5.49994e-15 0)
(3 -4.11147e-15 0)
(3 -3.14138e-15 0)
(3 -1.02494e-15 0)
(3 1.41201e-16 0)
(1.80411 1.00926 0)
(2.4334 0.451257 0)
(3 -7.01776e-15 0)
(3 -5.81837e-15 0)
(3 -5.2799e-15 0)
(3 -5.29139e-15 0)
(3 -5.48034e-15 0)
(3 -6.31494e-15 0)
(3 -6.56278e-15 0)
(3 -6.54666e-15 0)
(3 -6.53392e-15 0)
(3 -7.35876e-15 0)
(3 -7.4002e-15 0)
(3 -7.21415e-15 0)
(3 -6.00668e-15 0)
(3 -4.97451e-15 0)
(3 -4.5395e-15 0)
(3 -3.99845e-15 0)
(3 -4.47925e-15 0)
(3 -4.24226e-15 0)
(1.93034 0.883933 0)
(2.69363 0.221724 0)
(3 -4.78957e-15 0)
(3 -4.03396e-15 0)
(3 -3.78146e-15 0)
(3 -3.71517e-15 0)
(3 -4.56772e-15 0)
(3 -4.37231e-15 0)
(3 -3.74078e-15 0)
(3 -3.27877e-15 0)
(3 -2.91636e-15 0)
(3 -2.2631e-15 0)
(3 -2.2043e-15 0)
(3 -2.34991e-15 0)
(3 -2.94603e-15 0)
(3 -3.43566e-15 0)
(3 -3.52641e-15 0)
(3 -3.41758e-15 0)
(3 -2.22656e-15 0)
(3 -1.72016e-15 0)
(2.10468 0.658406 0)
(2.99001 0.000180508 0)
(3 -2.81438e-15 0)
(3 -3.69917e-15 0)
(3 -3.53756e-15 0)
(3 -2.86069e-15 0)
(3 -2.97911e-15 0)
(3 -3.77387e-15 0)
(3 -4.28186e-15 0)
(3 -4.94637e-15 0)
(3 -4.87707e-15 0)
(3 -4.82725e-15 0)
(3 -4.77946e-15 0)
(3 -4.95373e-15 0)
(3 -5.08894e-15 0)
(3 -5.46013e-15 0)
(3 -5.82034e-15 0)
(3 -5.72308e-15 0)
(3 -5.34145e-15 0)
(3 -4.98534e-15 0)
(1.99497 0.371512 0)
(2.99993 -9.07414e-06 0)
(3 -3.58733e-15 0)
(3 -4.20169e-15 0)
(3 -3.75221e-15 0)
(3 -3.04709e-15 0)
(3 -3.07096e-15 0)
(3 -2.70799e-15 0)
(3 -2.69235e-15 0)
(3 -3.01305e-15 0)
(3 -2.94273e-15 0)
(3 -3.27636e-15 0)
(3 -3.45371e-15 0)
(3 -3.06343e-15 0)
(3 -2.9015e-15 0)
(3 -2.73292e-15 0)
(3 -3.01539e-15 0)
(3 -3.55561e-15 0)
(3 -3.93118e-15 0)
(3 -4.29974e-15 0)
(1.99492 -0.372203 0)
(2.99993 8.06757e-06 0)
(3 -2.2634e-15 0)
(3 -7.89456e-16 0)
(3 -5.35424e-16 0)
(3 -7.50748e-16 0)
(3 -7.30303e-16 0)
(3 -8.84759e-16 0)
(3 -7.63371e-16 0)
(3 -6.3921e-16 0)
(3 -5.28696e-16 0)
(3 -7.18692e-16 0)
(3 -7.1219e-16 0)
(3 -8.40128e-16 0)
(3 -7.0101e-16 0)
(3 -7.03728e-16 0)
(3 -7.72107e-16 0)
(3 -1.0382e-15 0)
(3 -1.43541e-15 0)
(3 -2.06038e-15 0)
(2.10469 -0.654785 0)
(2.9902 -0.00020958 0)
(3 7.22532e-16 0)
(3 1.2966e-15 0)
(3 1.49598e-15 0)
(3 8.18505e-16 0)
(3 -2.65201e-17 0)
(3 -4.37002e-16 0)
(3 -3.47579e-16 0)
(3 -2.11106e-16 0)
(3 -8.3107e-16 0)
(3 -1.4268e-15 0)
(3 -1.70117e-15 0)
(3 -2.30075e-15 0)
(3 -2.89344e-15 0)
(3 -3.16801e-15 0)
(3 -3.07271e-15 0)
(3 -3.12488e-15 0)
(3 -3.60478e-15 0)
(3 -3.73851e-15 0)
(1.93413 -0.8856 0)
(2.69482 -0.221597 0)
(3 1.39601e-15 0)
(3 1.90895e-15 0)
(3 1.05288e-15 0)
(3 1.5685e-16 0)
(3 -4.47008e-16 0)
(3 -1.60279e-15 0)
(3 -1.58499e-15 0)
(3 -2.40654e-15 0)
(3 -2.98074e-15 0)
(3 -3.28912e-15 0)
(3 -3.91254e-15 0)
(3 -4.32397e-15 0)
(3 -4.0652e-15 0)
(3 -3.89361e-15 0)
(3 -3.45844e-15 0)
(3 -3.42171e-15 0)
(3 -3.3613e-15 0)
(3 -3.2738e-15 0)
(1.80205 -1.01074 0)
(2.42868 -0.454052 0)
(3 4.23645e-15 0)
(3 6.07586e-15 0)
(3 5.27141e-15 0)
(3 4.0574e-15 0)
(3 3.40217e-15 0)
(3 2.969e-15 0)
(3 2.67764e-15 0)
(3 2.0626e-15 0)
(3 1.24047e-15 0)
(3 -3.40624e-16 0)
(3 -1.31001e-15 0)
(3 -1.75959e-15 0)
(3 -2.30692e-15 0)
(3 -1.43476e-15 0)
(3 -3.25895e-16 0)
(3 -4.2968e-17 0)
(3 1.28825e-18 0)
(3 3.73846e-16 0)
(1.77193 -1.09464 0)
(2.23835 -0.650545 0)
(3 3.97891e-15 0)
(3 5.12886e-15 0)
(3 3.61054e-15 0)
(3 2.53647e-15 0)
(3 9.75366e-16 0)
(3 1.64249e-17 0)
(3 -2.57118e-16 0)
(3 -4.13339e-16 0)
(3 -3.48046e-16 0)
(3 -5.05655e-16 0)
(3 -4.82163e-16 0)
(3 -6.45769e-16 0)
(3 1.92265e-16 0)
(3 4.85793e-16 0)
(3 6.21203e-16 0)
(3 7.33218e-16 0)
(3 1.13281e-15 0)
(3 1.67035e-15 0)
(1.72718 -1.16734 0)
(2.0746 -0.812389 0)
(3 2.86013e-15 0)
(3 2.87808e-15 0)
(3 1.56003e-15 0)
(3 4.87976e-16 0)
(3 -4.87453e-16 0)
(3 -1.47068e-15 0)
(3 -1.56732e-15 0)
(3 -1.4755e-15 0)
(3 -1.40951e-15 0)
(3 -1.28172e-15 0)
(3 -1.1256e-15 0)
(3 -4.87102e-16 0)
(3 2.80105e-16 0)
(3 1.06029e-15 0)
(3 1.17714e-15 0)
(3 1.15745e-15 0)
(3 7.76886e-16 0)
(3 6.50753e-16 0)
(1.66259 -1.20577 0)
(1.88356 -0.978229 0)
(2.98 -0.0130323 0)
(3 1.91619e-15 0)
(3 1.09648e-15 0)
(3 4.78052e-17 0)
(3 -9.91273e-16 0)
(3 -1.2163e-15 0)
(3 -1.50726e-15 0)
(3 -1.70434e-15 0)
(3 -1.83588e-15 0)
(3 -1.52644e-15 0)
(3 -9.11419e-16 0)
(3 -5.66923e-16 0)
(3 -5.15663e-17 0)
(3 8.62279e-17 0)
(3 3.14486e-17 0)
(3 -3.93882e-16 0)
(3 -4.65022e-16 0)
(3 -9.19577e-16 0)
(1.65268 -1.23967 0)
(1.81468 -1.10453 0)
(2.86458 -0.101989 0)
(3 4.30855e-15 0)
(3 6.7588e-17 0)
(3 -2.92031e-16 0)
(3 -5.97823e-16 0)
(3 -1.06049e-15 0)
(3 -1.50521e-15 0)
(3 -1.77963e-15 0)
(3 -1.86651e-15 0)
(3 -1.80569e-15 0)
(3 -1.81734e-15 0)
(3 -1.51285e-15 0)
(3 -1.16692e-15 0)
(3 -1.04235e-15 0)
(3 -8.77898e-16 0)
(3 -8.91324e-16 0)
(3 -1.81855e-15 0)
(3 -2.64379e-15 0)
(1.63636 -1.26634 0)
(1.64699 -1.24036 0)
(2.65307 -0.290712 0)
(3 -1.35698e-12 0)
(3 1.75943e-13 0)
(3 1.34593e-15 0)
(3 -1.04136e-15 0)
(3 -1.83919e-15 0)
(3 -2.44311e-15 0)
(3 -2.44355e-15 0)
(3 -2.59825e-15 0)
(3 -2.28706e-15 0)
(3 -1.60726e-15 0)
(3 -1.12482e-15 0)
(3 -9.94441e-16 0)
(3 -6.03495e-16 0)
(3 7.86177e-16 0)
(3 5.22629e-16 0)
(3 -9.40371e-16 0)
(3 -1.06566e-15 0)
(1.61819 -1.27835 0)
(1.54915 -1.33013 0)
(2.401 -0.56055 0)
(3 3.02405e-12 0)
(3 1.70657e-11 0)
(3 -3.23522e-13 0)
(3 1.04512e-15 0)
(3 -2.38007e-15 0)
(3 -2.66262e-15 0)
(3 -2.36487e-15 0)
(3 -2.41752e-15 0)
(3 -1.69152e-15 0)
(3 -5.84212e-16 0)
(3 -2.39548e-16 0)
(3 9.90974e-17 0)
(3 4.77788e-16 0)
(3 1.44732e-15 0)
(3 4.22301e-16 0)
(3 1.12874e-16 0)
(3 3.83329e-16 0)
(1.60113 -1.28986 0)
(1.47458 -1.37635 0)
(2.18272 -0.812713 0)
(3.01034 0.00838763 0)
(3 -2.16353e-08 0)
(3 6.02285e-11 0)
(3 -3.80631e-14 0)
(3 -1.98482e-15 0)
(3 -1.81249e-15 0)
(3 -1.41026e-15 0)
(3 -1.40983e-15 0)
(3 -3.86293e-16 0)
(3 1.1553e-15 0)
(3 1.37768e-15 0)
(3 8.58891e-16 0)
(3 3.23457e-16 0)
(3 1.17239e-15 0)
(3 5.85795e-16 0)
(3 1.13355e-15 0)
(3 2.38521e-15 0)
(1.58892 -1.30354 0)
(1.47781 -1.34914 0)
(1.96873 -1.02543 0)
(2.87691 -0.107951 0)
(3 5.9665e-09 0)
(3 -6.83337e-11 0)
(3 1.46609e-14 0)
(3 -1.23572e-15 0)
(3 -5.21609e-16 0)
(3 -8.56328e-16 0)
(3 -7.2383e-16 0)
(3 6.63094e-16 0)
(3 1.91079e-15 0)
(3 2.24469e-15 0)
(3 2.10684e-15 0)
(3 1.10869e-15 0)
(3 1.0072e-15 0)
(3 1.35153e-15 0)
(3 1.70727e-15 0)
(3 3.16243e-15 0)
(1.59561 -1.33178 0)
(1.4985 -1.3375 0)
(1.72797 -1.18839 0)
(2.38613 -0.556589 0)
(3.00001 3.59757e-06 0)
(3 -2.2336e-11 0)
(3 2.53788e-14 0)
(3 1.68095e-13 0)
(3 -3.1733e-14 0)
(3 1.2803e-15 0)
(3 1.15304e-15 0)
(3 1.15488e-15 0)
(3 2.78957e-15 0)
(3 2.27963e-15 0)
(3 1.657e-15 0)
(3 1.35228e-15 0)
(3 2.14693e-15 0)
(3 1.89665e-15 0)
(3 2.36612e-15 0)
(3 3.04854e-15 0)
(1.5819 -1.29667 0)
(1.55103 -1.30832 0)
(1.68096 -1.23478 0)
(2.20776 -0.820807 0)
(3.02281 0.0225602 0)
(3 4.37065e-11 0)
(3 1.39127e-11 0)
(3 -4.18929e-11 0)
(3 3.94695e-12 0)
(3 5.36201e-15 0)
(3 1.65726e-15 0)
(3 3.11211e-15 0)
(3 3.23669e-15 0)
(3 2.51613e-15 0)
(3 1.65019e-15 0)
(3 2.03304e-15 0)
(3 2.7431e-15 0)
(3 1.40226e-15 0)
(3 1.74222e-15 0)
(3 2.0631e-15 0)
(1.5815 -1.28316 0)
(1.58776 -1.28293 0)
(1.64379 -1.26297 0)
(1.77816 -1.15623 0)
(2.67781 -0.270865 0)
(3 6.20512e-10 0)
(3 -1.40261e-08 0)
(3 1.25985e-08 0)
(3 -5.3545e-10 0)
(3 -2.50683e-12 0)
(3 9.97129e-14 0)
(3 4.59166e-15 0)
(3 2.65308e-15 0)
(3 2.32839e-15 0)
(3 1.4699e-15 0)
(3 2.00855e-15 0)
(3 2.26989e-15 0)
(3 3.77628e-16 0)
(3 9.84775e-16 0)
(3 1.73366e-15 0)
(1.58152 -1.26363 0)
(1.59425 -1.2691 0)
(1.62933 -1.26581 0)
(1.64901 -1.26083 0)
(2.32326 -0.656134 0)
(3.02089 0.0185221 0)
(2.99974 -0.000134843 0)
(3 4.16764e-06 0)
(3 -8.22273e-08 0)
(3 9.06568e-10 0)
(3 -1.54775e-13 0)
(3 3.00752e-15 0)
(3 9.52853e-16 0)
(3 1.46632e-15 0)
(3 1.23363e-15 0)
(3 1.29327e-15 0)
(3 1.15195e-15 0)
(3 -1.37003e-15 0)
(3 -2.66663e-16 0)
(3 6.55691e-16 0)
(1.58176 -1.25198 0)
(1.604 -1.25333 0)
(1.62537 -1.25962 0)
(1.64001 -1.26703 0)
(1.91714 -1.05173 0)
(2.77365 -0.203664 0)
(3.00434 0.00058631 0)
(2.99992 -6.81294e-05 0)
(3 9.31084e-07 0)
(3 -8.78393e-10 0)
(3 1.33348e-14 0)
(3 1.84144e-15 0)
(3 -3.58824e-16 0)
(3 -5.00273e-16 0)
(3 5.88487e-16 0)
(3 -1.40458e-16 0)
(3 -1.85888e-15 0)
(3 -1.05618e-15 0)
(3 -1.02349e-15 0)
(3 2.89224e-17 0)
(1.58029 -1.24684 0)
(1.60402 -1.25138 0)
(1.61894 -1.25635 0)
(1.61201 -1.27166 0)
(1.70248 -1.21432 0)
(2.24814 -0.768664 0)
(3.00542 0.0103216 0)
(3.00007 0.000427326 0)
(3 -7.97164e-07 0)
(3 -5.90451e-11 0)
(3 1.095e-14 0)
(3 2.32181e-15 0)
(3 7.35269e-16 0)
(3 -1.47742e-15 0)
(3 -7.1991e-16 0)
(3 -4.64975e-16 0)
(3 -4.28428e-16 0)
(3 -1.11178e-15 0)
(3 -7.93764e-16 0)
(3 -5.50699e-17 0)
(1.58062 -1.24399 0)
(1.5935 -1.25494 0)
(1.60646 -1.26312 0)
(1.60982 -1.27676 0)
(1.63746 -1.27268 0)
(1.73192 -1.20792 0)
(2.23776 -0.752105 0)
(2.99207 -0.0190641 0)
(3 -4.89911e-08 0)
(3 2.55747e-11 0)
(3 9.74022e-15 0)
(3 1.73796e-15 0)
(3 -1.79371e-16 0)
(3 -2.89857e-15 0)
(3 -3.22661e-15 0)
(3 -1.03879e-15 0)
(3 -1.62286e-15 0)
(3 -1.4322e-15 0)
(3 3.74122e-16 0)
(3 4.7869e-16 0)
(1.58069 -1.25793 0)
(1.58532 -1.26286 0)
(1.59416 -1.267 0)
(1.60197 -1.267 0)
(1.60558 -1.2595 0)
(1.59271 -1.26864 0)
(1.8841 -1.18111 0)
(2.95807 -0.412433 0)
(3.35428 0.635836 0)
(3 -6.32068e-11 0)
(3 7.50069e-11 0)
(3 -7.90189e-11 0)
(3 -5.05948e-15 0)
(3 4.30273e-13 0)
(3 1.10896e-14 0)
(3 -1.69394e-14 0)
(3 8.69079e-15 0)
(3 -1.63547e-15 0)
(3 -8.2978e-16 0)
(3 4.20804e-15 0)
(1.161 -0.771605 0)
(1.83003 -1.15101 0)
(1.84646 -1.14806 0)
(1.73937 -1.20061 0)
(1.70969 -1.20032 0)
(1.66052 -1.24348 0)
(1.65297 -1.21638 0)
(1.72467 -1.16812 0)
(1.75899 -1.2385 0)
(1.80002 -1.14501 0)
(2.27997 -0.73541 0)
(2.86409 -0.203509 0)
(3.09974 0.030677 0)
(3.02118 0.0127835 0)
(3.00462 0.00553463 0)
(3.00184 0.00302438 0)
(3.00005 0.000583613 0)
(2.99998 2.18317e-05 0)
(2.99999 -1.44555e-05 0)
(3 -5.94832e-06 0)
(1.01625 -0.01352 0)
(1.90163 -0.85678 0)
(2.10575 -0.832468 0)
(2.01404 -0.933397 0)
(1.95986 -0.98692 0)
(1.85251 -1.09746 0)
(1.78659 -1.13585 0)
(1.76289 -1.1448 0)
(1.76259 -1.16122 0)
(1.74277 -1.20207 0)
(1.72426 -1.1932 0)
(1.8635 -1.06613 0)
(2.09123 -0.885605 0)
(2.49562 -0.581743 0)
(2.98416 -0.139381 0)
(3.07353 0.0288396 0)
(3.00814 0.00767468 0)
(3.00293 0.00383859 0)
(3.00123 0.00219984 0)
(3.00008 0.000487544 0)
(1.1782 0.0907178 0)
(1.92323 0.310661 0)
(2.23464 -0.299893 0)
(2.21898 -0.576708 0)
(2.20644 -0.579942 0)
(2.14239 -0.730409 0)
(2.03186 -0.895508 0)
(1.95543 -0.983085 0)
(1.90786 -1.04027 0)
(1.85143 -1.12773 0)
(1.79208 -1.16044 0)
(1.79178 -1.15212 0)
(1.80742 -1.13028 0)
(1.84825 -1.08672 0)
(2.04238 -0.948707 0)
(2.26157 -0.826183 0)
(2.66399 -0.503412 0)
(3.03542 -0.0927213 0)
(3.05556 0.0237752 0)
(3.00408 0.00469769 0)
(1.23162 0.385634 0)
(1.84868 0.819072 0)
(2.27473 0.224414 0)
(2.37111 0.0822092 0)
(2.36738 -0.122579 0)
(2.34897 -0.318649 0)
(2.26872 -0.521547 0)
(2.21012 -0.633084 0)
(2.14215 -0.744107 0)
(2.09316 -0.884688 0)
(1.98256 -0.998504 0)
(1.92268 -1.05344 0)
(1.88542 -1.07494 0)
(1.86784 -1.08655 0)
(1.87197 -1.05592 0)
(1.89788 -1.04773 0)
(1.96145 -1.02131 0)
(2.16209 -0.90525 0)
(2.38045 -0.794146 0)
(2.77901 -0.442484 0)
(0.897194 0.980707 0)
(1.76487 1.45607 0)
(2.05631 1.37965 0)
(2.23496 0.165877 0)
(2.38074 -0.18096 0)
(2.44462 0.190797 0)
(2.45918 -0.0303113 0)
(2.40214 -0.290892 0)
(2.34612 -0.418979 0)
(2.31713 -0.570705 0)
(2.23143 -0.725988 0)
(2.13788 -0.850095 0)
(2.0702 -0.922669 0)
(2.01 -0.984314 0)
(1.97519 -0.987575 0)
(1.95357 -0.995908 0)
(1.95437 -1.01609 0)
(1.96982 -0.994824 0)
(1.99508 -0.99468 0)
(2.07033 -0.978693 0)
(0.889966 1.35208 0)
(1.46315 1.99951 0)
(1.78464 1.83318 0)
(2.11712 1.01662 0)
(2.48126 0.965125 0)
(2.46938 0.245961 0)
(2.53411 0.079912 0)
(2.52813 -0.136421 0)
(2.49207 -0.22681 0)
(2.46755 -0.366231 0)
(2.41111 -0.516621 0)
(2.32456 -0.65415 0)
(2.2642 -0.727571 0)
(2.20493 -0.792884 0)
(2.16845 -0.799427 0)
(2.13504 -0.809316 0)
(2.08814 -0.853557 0)
(2.06728 -0.879557 0)
(2.03097 -0.933252 0)
(2.05691 -0.957701 0)
(1.02664 1.37532 0)
(1.49851 2.15738 0)
(1.81757 2.01158 0)
(2.01298 1.74939 0)
(2.20797 1.61743 0)
(2.37473 0.836095 0)
(2.46922 0.772287 0)
(2.54815 0.519249 0)
(2.5242 0.196828 0)
(2.54372 0.102067 0)
(2.52626 -0.0863003 0)
(2.48666 -0.229107 0)
(2.44767 -0.334587 0)
(2.41071 -0.417896 0)
(2.35859 -0.506004 0)
(2.33407 -0.553799 0)
(2.25262 -0.661098 0)
(2.19269 -0.742076 0)
(2.15771 -0.791421 0)
(2.14078 -0.795034 0)
(1.06905 1.2556 0)
(1.60534 2.1549 0)
(1.96371 2.20789 0)
(2.00453 1.92205 0)
(2.11289 1.74368 0)
(2.25679 1.41224 0)
(2.33685 1.1908 0)
(2.41985 0.965382 0)
(2.45845 0.743714 0)
(2.49833 0.586753 0)
(2.5542 0.391007 0)
(2.55061 0.161149 0)
(2.56162 -0.00990067 0)
(2.5433 -0.180086 0)
(2.49051 -0.358438 0)
(2.45928 -0.44539 0)
(2.38281 -0.56486 0)
(2.35589 -0.536076 0)
(2.31781 -0.564768 0)
(2.33021 -0.514254 0)
(1.09428 1.03572 0)
(1.45187 1.76017 0)
(1.94657 2.28172 0)
(2.13583 2.18894 0)
(2.23496 1.85003 0)
(2.27402 1.65412 0)
(2.40546 1.30711 0)
(2.48438 1.09854 0)
(2.53569 0.992054 0)
(2.59428 0.716638 0)
(2.67692 0.514197 0)
(2.66009 0.224075 0)
(2.6685 0.0618513 0)
(2.63874 -0.105976 0)
(2.60383 -0.219692 0)
(2.56765 -0.258906 0)
(2.5336 -0.262335 0)
(2.52981 -0.198088 0)
(2.45431 -0.315899 0)
(2.47441 -0.288974 0)
(1.14612 0.99064 0)
(1.27706 1.47994 0)
(1.73475 2.06886 0)
(2.0966 2.4389 0)
(2.47056 1.98589 0)
(2.47737 1.87381 0)
(2.62366 1.3867 0)
(2.71947 1.21461 0)
(2.80857 1.06265 0)
(2.79279 0.681061 0)
(2.7885 0.57337 0)
(2.751 0.377755 0)
(2.73314 0.335644 0)
(2.71685 0.238837 0)
(2.68964 0.178943 0)
(2.65387 0.141692 0)
(2.63831 0.120861 0)
(2.61689 0.0288122 0)
(2.55709 -0.153027 0)
(2.56538 -0.156352 0)
(1.22295 0.98749 0)
(1.22332 1.3878 0)
(1.56146 1.87081 0)
(1.82173 2.26875 0)
(2.3552 2.12833 0)
(2.48832 2.00288 0)
(2.50218 1.56927 0)
(2.53289 1.37276 0)
(2.5842 1.23714 0)
(2.64256 1.16783 0)
(2.65276 1.09605 0)
(2.67025 0.917777 0)
(2.65048 0.797805 0)
(2.68159 0.711081 0)
(2.67325 0.54486 0)
(2.69092 0.436372 0)
(2.7067 0.287994 0)
(2.68689 0.0916454 0)
(2.64914 -0.0292009 0)
(2.61676 -0.0297548 0)
(1.31695 1.03576 0)
(1.30159 1.34191 0)
(1.48721 1.80788 0)
(1.62331 2.11011 0)
(1.93021 2.11384 0)
(2.08508 2.07664 0)
(2.1603 1.74376 0)
(2.27533 1.58056 0)
(2.33408 1.56673 0)
(2.3593 1.5297 0)
(2.44915 1.33066 0)
(2.53988 1.21739 0)
(2.58521 0.996777 0)
(2.70058 0.901906 0)
(2.71023 0.640472 0)
(2.75719 0.489378 0)
(2.75475 0.302714 0)
(2.74105 0.169252 0)
(2.7023 0.257331 0)
(2.66971 0.218858 0)
(1.40466 1.17582 0)
(1.43828 1.36662 0)
(1.47803 1.83742 0)
(1.5409 2.15657 0)
(1.69064 2.16943 0)
(1.81216 2.10965 0)
(1.9953 1.94681 0)
(2.10574 1.73467 0)
(2.16545 1.65641 0)
(2.2949 1.59667 0)
(2.4251 1.35579 0)
(2.59448 1.2752 0)
(2.6484 0.99134 0)
(2.7481 0.886311 0)
(2.76712 0.665666 0)
(2.771 0.63641 0)
(2.76963 0.556156 0)
(2.74901 0.527647 0)
(2.72949 0.652222 0)
(2.69847 0.491971 0)
(1.51929 1.36427 0)
(1.5752 1.46247 0)
(1.54054 1.90761 0)
(1.53996 2.1761 0)
(1.62002 2.19652 0)
(1.79102 2.09426 0)
(1.92848 2.00116 0)
(2.08504 1.76787 0)
(2.20313 1.68457 0)
(2.41018 1.5874 0)
(2.5244 1.38232 0)
(2.65078 1.296 0)