/*--------------------------------*- C++ -*----------------------------------*\
  =========                 |
  \\      /  F ield         | OpenFOAM: The Open Source CFD Toolbox
   \\    /   O peration     | Website:  https://openfoam.org
    \\  /    A nd           | Version:  7
     \\/     M anipulation  |
\*---------------------------------------------------------------------------*/
FoamFile
{
    version     2.0;
    format      ascii;
    class       volScalarField;
    location    "1.1";
    object      p;
}
// * * * * * * * * * * * * * * * * * * * * * * * * * * * * * * * * * * * * * //

dimensions      [1 -1 -2 0 0 0 0];

internalField   nonuniform List<scalar> 
3700
(
0.152934
0.222148
0.270529
0.312728
0.338618
0.351245
0.356212
0.364916
0.388248
0.411785
0.42938
0.444026
0.454212
0.471725
0.486632
0.494753
0.505934
0.517716
0.515281
0.499408
0.11075
0.0976168
0.105844
0.10896
0.108828
0.111252
0.114653
0.123861
0.138832
0.150277
0.146041
0.144611
0.145851
0.150865
0.158441
0.168398
0.178076
0.187263
0.200077
0.200871
0.114735
0.0828335
0.0670496
0.0534777
0.0545468
0.0574824
0.0616374
0.0675673
0.0765814
0.0840071
0.0784954
0.076575
0.0743654
0.0767506
0.0822874
0.0912338
0.101432
0.111311
0.121894
0.135829
0.115894
0.0784248
0.0552195
0.0439929
0.0463187
0.050835
0.0570021
0.0713657
0.0895265
0.10565
0.118796
0.119489
0.115848
0.114474
0.114179
0.116722
0.122531
0.131734
0.143772
0.16858
0.114042
0.0745754
0.0501344
0.0407003
0.0426514
0.0475853
0.0527948
0.0695347
0.0883655
0.105564
0.130312
0.143152
0.153819
0.160328
0.164518
0.167769
0.167344
0.171445
0.174119
0.193103
0.10957
0.0720451
0.0477004
0.0400399
0.0418009
0.0473894
0.0531854
0.0692365
0.0845482
0.101808
0.126293
0.148355
0.173644
0.193528
0.208122
0.225684
0.240923
0.259149
0.265925
0.285158
0.0925559
0.0634116
0.0425928
0.0416796
0.0455537
0.0538309
0.0661392
0.0890823
0.093426
0.108461
0.124824
0.14511
0.180329
0.210146
0.235966
0.26658
0.299284
0.333829
0.363119
0.420228
0.0660258
0.0483638
0.0360171
0.0430002
0.0544348
0.068126
0.0972244
0.127787
0.137814
0.158453
0.167835
0.184858
0.206349
0.238707
0.271818
0.309733
0.352515
0.411085
0.461696
0.561238
0.0479177
0.0362398
0.0321762
0.043467
0.0567989
0.0742999
0.115392
0.149738
0.186224
0.226546
0.258105
0.288585
0.319107
0.355376
0.382859
0.417415
0.455033
0.520609
0.58927
0.735216
0.0354537
0.0273218
0.0307182
0.0441348
0.0559574
0.0730707
0.120311
0.152837
0.205754
0.266366
0.319922
0.371104
0.436209
0.490237
0.542931
0.598269
0.652152
0.716559
0.81064
0.953003
0.0270093
0.021882
0.0274489
0.0459083
0.0577233
0.0727447
0.119775
0.147491
0.207614
0.283387
0.360885
0.442193
0.541045
0.61906
0.707022
0.798272
0.892327
0.980424
1.14826
1.12173
0.0213994
0.0181375
0.023811
0.0478965
0.0695215
0.119815
0.184796
0.211936
0.287287
0.375695
0.486804
0.597021
0.705407
0.804648
0.919781
1.05397
1.2005
1.33249
1.5363
1.49056
0.0173585
0.0154638
0.0226615
0.0604118
0.113725
0.2072
0.27996
0.393512
0.528446
0.673283
0.809848
0.934207
1.05577
1.17269
1.30666
1.46993
1.65255
1.83282
2.0948
2.07797
0.0151395
0.0152462
0.0314707
0.0918443
0.172307
0.27871
0.384525
0.576441
0.778366
1.00486
1.17648
1.344
1.51707
1.6893
1.89747
2.12485
2.35052
2.58982
2.80657
2.9987
0.0142657
0.0218218
0.0532298
0.127795
0.215448
0.354705
0.548899
0.812857
1.13428
1.44042
1.68272
1.9115
2.14046
2.38812
2.69972
2.98516
3.25616
3.5043
3.66172
3.78248
0.0151507
0.0366412
0.080914
0.1634
0.311174
0.60812
1.05109
1.45088
1.92003
2.30034
2.58989
2.86336
3.13916
3.43886
3.75857
3.95768
4.07881
4.12299
4.0309
3.90522
0.0165633
0.0563753
0.142934
0.319322
0.826098
1.45547
2.02324
2.63283
3.21907
3.59344
3.80859
4.0363
4.24494
4.40403
4.48584
4.40765
4.18516
3.6452
2.78424
1.88264
0.0261799
0.119422
0.480755
1.19513
2.10684
2.91744
3.56652
4.21997
4.74783
4.83475
4.75722
4.75969
4.71498
4.54299
4.03278
3.07472
2.09664
1.33364
1.01837
0.992974
0.31603
0.887458
1.97743
3.18789
4.23482
4.82367
5.38826
5.86436
5.72837
5.28735
4.8596
4.31693
3.39763
2.3322
1.43035
1.03063
0.989383
0.994944
0.997339
0.999447
2.31867
3.63261
4.89207
5.72964
6.2664
6.38459
6.53051
6.22158
4.54165
3.20791
2.36343
1.55513
1.07723
0.987128
0.992769
0.996234
0.999151
0.999973
1.00002
1.00001
6.96675
6.91181
6.86613
6.93629
7.04925
6.71315
5.99169
2.33792
0.64518
1
1
1
1
1
1
1
1
1
1
1
6.96201
6.88135
6.80414
6.73928
6.93919
5.7262
2.61361
1.01981
1
1
1
1
1
1
1
1
1
1
1
1
6.81826
6.86868
6.81697
6.62445
6.32622
3.35722
1.02963
0.999422
1
1
1
1
1
1
1
1
1
1
1
1
6.68001
6.85986
6.854
6.53748
4.64569
1.46028
0.99383
1.00011
0.999999
1
1
1
1
1
1
1
1
1
1
1
6.50473
6.78395
6.83995
6.29355
2.66495
0.975571
1.00035
0.999994
1
1
1
1
1
1
1
1
1
1
1
1
6.4148
6.70478
6.70483
4.88978
1.40873
1
1
1
1
1
1
1
1
1
1
1
1
1
1
1
6.37596
6.68375
6.5937
3.59371
0.999641
1
1
1
1
1
1
1
1
1
1
1
1
1
1
1
6.50598
6.73289
6.17552
2.04885
0.999975
1
1
1
1
1
1
1
1
1
1
1
1
1
1
1
6.95073
6.64044
4.88835
1.21088
1
1
1
1
1
1
1
1
1
1
1
1
1
1
1
1
7.24898
6.37157
3.493
0.987397
1
1
1
1
1
1
1
1
1
1
1
1
1
1
1
1
7.45065
6.01283
2.27139
1
1
1
1
1
1
1
1
1
1
1
1
1
1
1
1
1
7.51415
5.36765
1.59194
1
1
1
1
1
1
1
1
1
1
1
1
1
1
1
1
1
7.5526
4.73535
1.15301
1
1
1
1
1
1
1
1
1
1
1
1
1
1
1
1
1
7.37296
3.96485
1.00076
1
1
1
1
1
1
1
1
1
1
1
1
1
1
1
1
1
7.13285
3.23523
1
1
1
1
1
1
1
1
1
1
1
1
1
1
1
1
1
1
6.91888
2.60594
1
1
1
1
1
1
1
1
1
1
1
1
1
1
1
1
1
1
6.77448
1.8831
1
1
1
1
1
1
1
1
1
1
1
1
1
1
1
1
1
1
6.25817
1.32498
1
1
1
1
1
1
1
1
1
1
1
1
1
1
1
1
1
1
5.69784
1.00438
1
1
1
1
1
1
1
1
1
1
1
1
1
1
1
1
1
1
4.67187
1.0001
1
1
1
1
1
1
1
1
1
1
1
1
1
1
1
1
1
1
4.67187
1.0001
1
1
1
1
1
1
1
1
1
1
1
1
1
1
1
1
1
1
5.69784
1.00438
1
1
1
1
1
1
1
1
1
1
1
1
1
1
1
1
1
1
6.25817
1.32498
1
1
1
1
1
1
1
1
1
1
1
1
1
1
1
1
1
1
6.77448
1.8831
1
1
1
1
1
1
1
1
1
1
1
1
1
1
1
1
1
1
6.91888
2.60594
1
1
1
1
1
1
1
1
1
1
1
1
1
1
1
1
1
1
7.13285
3.23522
1
1
1
1
1
1
1
1
1
1
1
1
1
1
1
1
1
1
7.37296
3.96485
1.00076
1
1
1
1
1
1
1
1
1
1
1
1
1
1
1
1
1
7.5526
4.73535
1.15301
1
1
1
1
1
1
1
1
1
1
1
1
1
1
1
1
1
7.51415
5.36765
1.59194
1
1
1
1
1
1
1
1
1
1
1
1
1
1
1
1
1
7.45065
6.01283
2.27139
1
1
1
1
1
1
1
1
1
1
1
1
1
1
1
1
1
7.24898
6.37157
3.493
0.987397
1
1
1
1
1
1
1
1
1
1
1
1
1
1
1
1
6.95073
6.64044
4.88835
1.21088
1
1
1
1
1
1
1
1
1
1
1
1
1
1
1
1
6.50598
6.73289
6.17552
2.04885
0.999975
1
1
1
1
1
1
1
1
1
1
1
1
1
1
1
6.37596
6.68375
6.5937
3.59371
0.999641
1
1
1
1
1
1
1
1
1
1
1
1
1
1
1
6.4148
6.70478
6.70483
4.88978
1.40873
1
1
1
1
1
1
1
1
1
1
1
1
1
1
1
6.50473
6.78395
6.83994
6.29355
2.66495
0.975571
1.00035
0.999994
1
1
1
1
1
1
1
1
1
1
1
1
6.68001
6.85986
6.854
6.53748
4.64569
1.46028
0.99383
1.00011
0.999999
1
1
1
1
1
1
1
1
1
1
1
6.81826
6.86868
6.81697
6.62445
6.32621
3.35722
1.02963
0.999422
1
1
1
1
1
1
1
1
1
1
1
1
6.96201
6.88135
6.80414
6.73928
6.93919
5.7262
2.6136
1.01981
1
1
1
1
1
1
1
1
1
1
1
1
6.96675
6.91181
6.86613
6.93629
7.04926
6.71316
5.9917
2.33793
0.645179
1
1
1
1
1
1
1
1
1
1
1
2.3187
3.63264
4.89209
5.72962
6.26654
6.38454
6.53046
6.22156
4.54165
3.20791
2.36344
1.55513
1.07723
0.987128
0.992769
0.996234
0.999151
0.999973
1.00002
1.00001
0.315975
0.887396
1.97737
3.18784
4.23461
4.82374
5.38835
5.86438
5.72839
5.28736
4.8596
4.31691
3.39761
2.33219
1.43035
1.03064
0.989383
0.994944
0.997339
0.999447
0.0262174
0.119506
0.480782
1.19502
2.10692
2.91739
3.56654
4.22011
4.74774
4.83482
4.75728
4.75973
4.71502
4.54301
4.03278
3.07471
2.09663
1.33364
1.01837
0.992974
0.0165505
0.0564192
0.143087
0.319291
0.825576
1.45511
2.02318
2.63273
3.21923
3.59359
3.80858
4.03626
4.24496
4.40408
4.48587
4.40767
4.18516
3.6452
2.78424
1.88265
0.0151215
0.0366302
0.0810607
0.163822
0.311319
0.60796
1.05058
1.45083
1.92003
2.30029
2.58981
2.86328
3.13915
3.43893
3.75861
3.95769
4.07879
4.12298
4.0309
3.90523
0.0142406
0.0217799
0.0531502
0.127998
0.215959
0.354916
0.548804
0.812457
1.1339
1.4403
1.68273
1.91157
2.14055
2.38819
2.69973
2.98521
3.25621
3.50433
3.66176
3.78249
0.0151265
0.0152238
0.0313766
0.091806
0.172511
0.27893
0.384758
0.576419
0.778396
1.00472
1.17637
1.34394
1.51704
1.68929
1.8975
2.12487
2.35053
2.5898
2.80657
2.99874
0.0173606
0.0154628
0.0226043
0.0602943
0.113693
0.207295
0.280114
0.393651
0.528531
0.673272
0.809725
0.934028
1.0556
1.17257
1.30659
1.46987
1.65252
1.83279
2.09475
2.07794
0.0214222
0.0181456
0.0237766
0.0478267
0.0694812
0.119926
0.184667
0.212135
0.28726
0.375765
0.486858
0.597035
0.70538
0.80461
0.919746
1.05394
1.2005
1.33251
1.53628
1.49055
0.0270612
0.0219049
0.0274302
0.0458774
0.0577074
0.0728176
0.11963
0.147366
0.207446
0.283295
0.360943
0.442327
0.541176
0.619162
0.707111
0.798353
0.892397
0.980479
1.1483
1.12173
0.0355502
0.0273744
0.0307003
0.0441141
0.0559755
0.0730864
0.120092
0.15268
0.205664
0.266251
0.319914
0.371138
0.436279
0.490322
0.543029
0.59836
0.652204
0.716583
0.810648
0.95302
0.0480544
0.0363112
0.0321794
0.0434461
0.0568081
0.0743035
0.115253
0.149603
0.186186
0.226473
0.258055
0.288519
0.31904
0.355324
0.382814
0.417376
0.45497
0.520545
0.589251
0.735205
0.0662156
0.0484684
0.0360569
0.0429915
0.0544362
0.0681449
0.0972029
0.1277
0.137792
0.158398
0.167731
0.184719
0.206189
0.23855
0.271675
0.309625
0.352469
0.41103
0.461691
0.56125
0.0927838
0.0635159
0.0426431
0.0416972
0.045597
0.0538834
0.0661896
0.0890452
0.0933766
0.108446
0.124793
0.14505
0.180241
0.210058
0.235899
0.266544
0.299307
0.333859
0.363137
0.420326
0.109764
0.0721087
0.0477131
0.0400665
0.041852
0.0474309
0.0532336
0.06928
0.0845528
0.101871
0.126294
0.148315
0.173573
0.193463
0.2081
0.225704
0.240968
0.259223
0.265931
0.285166
0.114233
0.0746478
0.0501384
0.04073
0.0427048
0.0476258
0.0528525
0.0696219
0.0884021
0.105631
0.130333
0.143123
0.153766
0.160295
0.164527
0.167812
0.167346
0.171425
0.174091
0.193096
0.116075
0.0785161
0.0552522
0.0440404
0.046388
0.0508945
0.0570891
0.0714696
0.0895835
0.105662
0.118821
0.119417
0.115821
0.114465
0.114185
0.116739
0.122505
0.131699
0.14375
0.16858
0.114843
0.0829412
0.0671456
0.0535731
0.0546478
0.0575709
0.0617002
0.0676301
0.076634
0.0839453
0.0784604
0.0765226
0.0743389
0.0767344
0.0822729
0.0912171
0.101408
0.111293
0.121882
0.135825
0.11074
0.0975674
0.105958
0.108807
0.109052
0.111278
0.114533
0.123665
0.138863
0.150301
0.14491
0.143732
0.145915
0.151862
0.159078
0.167715
0.17735
0.187386
0.200851
0.201249
0.152291
0.221784
0.270494
0.312311
0.338807
0.351416
0.356155
0.364662
0.388068
0.411963
0.42885
0.443464
0.454139
0.472579
0.486772
0.494235
0.505773
0.517955
0.515625
0.499561
0.504311
0.550446
0.627298
0.67229
0.666307
0.657468
0.693309
0.742021
0.822082
0.886006
0.875909
0.845358
0.827672
0.82657
0.858908
0.924713
0.978365
0.997535
0.999919
0.999999
0.251731
0.335307
0.419411
0.539456
0.630941
0.655478
0.674554
0.726437
0.811557
0.881293
0.870632
0.835236
0.820691
0.823532
0.858322
0.924726
0.978293
0.99751
0.999917
0.999999
0.138447
0.145071
0.163046
0.248594
0.463622
0.579184
0.654923
0.73004
0.813668
0.884249
0.874899
0.840087
0.819778
0.814578
0.849394
0.92072
0.977315
0.997419
0.999916
0.999999
0.189017
0.206781
0.210451
0.191526
0.215359
0.386458
0.551944
0.643756
0.758678
0.856598
0.861128
0.831604
0.812383
0.815679
0.853432
0.923066
0.978279
0.997587
0.999923
0.999999
0.225984
0.255526
0.252779
0.233928
0.221735
0.229223
0.305214
0.428466
0.575321
0.750322
0.832393
0.817284
0.802391
0.810421
0.852713
0.922027
0.97826
0.997705
0.999932
0.999999
0.287916
0.314698
0.309731
0.279564
0.255957
0.254459
0.256583
0.266259
0.308947
0.454297
0.675666
0.775119
0.788269
0.806556
0.855256
0.925443
0.979557
0.997938
0.999943
1
0.382918
0.382856
0.374155
0.338452
0.294385
0.279008
0.274556
0.274783
0.29362
0.344559
0.491303
0.673795
0.756205
0.797705
0.857074
0.928977
0.981459
0.998247
0.999955
1
0.513692
0.469817
0.449085
0.414565
0.352883
0.305087
0.292208
0.295024
0.30327
0.34316
0.445291
0.594591
0.715695
0.794995
0.862684
0.934047
0.983648
0.998566
0.999966
1
0.663219
0.566641
0.528108
0.488562
0.419358
0.335432
0.331949
0.334409
0.338026
0.366141
0.44695
0.577149
0.700923
0.793376
0.87088
0.941385
0.986377
0.998906
0.999976
1
0.860066
0.697211
0.621101
0.584246
0.510788
0.404746
0.361738
0.354044
0.356505
0.378246
0.444376
0.56209
0.685671
0.785492
0.872261
0.946027
0.988505
0.999172
0.999984
1
1.27151
0.889531
0.691993
0.663063
0.59355
0.483868
0.410817
0.409763
0.428094
0.462967
0.509836
0.586726
0.693474
0.798364
0.889214
0.95896
0.992758
0.999585
0.999994
1
2.00972
1.47193
1.07568
0.848404
0.713987
0.58459
0.526534
0.523603
0.527075
0.552748
0.61497
0.697784
0.78199
0.862494
0.932686
0.979877
0.997412
0.999898
0.999999
1
2.41949
2.08978
1.64621
1.25529
1.0349
0.838799
0.65289
0.616576
0.616405
0.635983
0.70178
0.797737
0.881535
0.93886
0.975225
0.994142
0.999445
0.999982
1
1
2.27163
2.20136
2.04269
1.77945
1.49082
1.24845
0.993152
0.858962
0.855653
0.87711
0.929595
0.981827
1.00589
1.01009
1.00185
0.999622
0.999843
0.999977
0.999999
1
1.61906
2.01097
1.99678
1.9102
1.77766
1.6262
1.4337
1.24272
1.15454
1.13211
1.12295
1.1019
1.05652
1.01459
1.00124
0.999995
0.999972
0.999987
0.999998
1
1.09111
1.35199
1.62529
1.77894
1.74869
1.65326
1.53515
1.41365
1.31221
1.23546
1.16836
1.10226
1.04304
1.00824
1.00049
1
0.999996
0.999997
0.999999
1
1.00384
1.02806
1.11841
1.28951
1.43528
1.48798
1.45828
1.39011
1.30304
1.21675
1.13577
1.0627
1.01582
1.00154
1.00004
1
1
1
1
1
1.00008
1.00052
1.0043
1.02273
1.07123
1.1343
1.17914
1.1755
1.1487
1.10019
1.04883
1.01399
1.00173
1.00007
1
1
1
1
1
1
1
1
1.00004
1.00035
1.00202
1.00698
1.01481
1.0185
1.01706
1.0114
1.00445
1.0008
1.00005
1
1
1
1
1
1
1
1
1
1
1
1.00002
1.00007
1.00022
1.00034
1.00033
1.00023
1.00009
1.00001
1
1
1
1
1
1
1
1
1
1
1
1
1
1
1
1
1
1
1
1
1
1
1
1
1
1
1
1
1
1
1
1
1
1
1
1
1
1
1
1
1
1
1
1
1
1
1
1
1
1
1
1
1
1
1
1
1
1
1
1
1
1
1
1
1
1
1
1
1
1
1
1
1
1
1
1
1
1
1
1
1
1
1
1
1
1
1
1
1
1
1
1
1
1
1
1
1
1
1
1
1
1
1
1
1
1
1
1
1.60307
2.44615
2.54477
2.06705
1.30229
1.03528
1.00172
1.00004
1
1
1
1
1
1
1
2.32762
2.78791
2.51835
1.53459
1.04681
1.00075
1
1
1
1
1
1
1
1
1
2.91369
2.84638
1.96199
1.1487
1.00505
1.00005
1
1
1
1
1
1
1
1
1
3.24197
2.55032
1.36424
1.0195
1.00019
1
1
1
1
1
1
1
1
1
1
3.3154
1.68055
1.04676
1.00048
1
1
1
1
1
1
1
1
1
1
1
2.06458
1.07264
1.00047
0.999999
1
1
1
1
1
1
1
1
1
1
1
1.10065
1.00056
0.999998
1
1
1
1
1
1
1
1
1
1
1
1
0.998163
0.999866
0.999996
1
1
1
1
1
1
1
1
1
1
1
1
0.999967
1
1
1
1
1
1
1
1
1
1
1
1
1
1
1
1
1
1
1
1
1
1
1
1
1
1
1
1
1
1
1
1
1
1
1
1
1
1
1
1
1
1
1
1
1
1
1
1
1
1
1
1
1
1
1
1
1
1
1
1
1
1
1
1
1
1
1
1
1
1
1
1
1
1
1
1
1
1
1
1
1
1
1
1
1
1
1
1
1
1
1
1
1
1
1
1
1
1
1
1
1
1
1
1
1
1
1
1
1
1
1
1
1
1
1
1
1
1
1
1
1
1
1
1
1
1
1
1
1
1
1
1
1
1
1
1
1
1
1
1
1
1
1
1
1
1
1
1
1
1
1
1
1
1
1
1
1
1
1
1
1
1
1
1
1
1
1
1
1
1
1
1
1
1
1
1
1
1
1
1
1
1
1
1
1
1
1
1
1
1
1
1
1
1
1
1
1
1
1
1
1
1
1
1
1
1
1
1
1
1
1
1
1
1
1
1
1
1
1
1
1
1
1
1
1
1
1
1
1
1
1
1
1
1
1
1
1
1
1
1
1
1
1
1
1
1
1
1
1
1
1
1
1
1
1
1
1
1
1
1
1
1
1
1
1
1
1
1
1
1
1
1
1
1
1
1
1
1
1
1
1
1
1
1
1
1
1
1
1
1
1
1
1
1
1
1
1
1
1
1
1
1
1
1
1
1
1
1
1
1
1
1
1
1
1
1
1
1
1
1
1
1
1
1
1
1
1
1
1
1
1
1
1
1
1
1
1
1
1
1
1
1
1
1
1
1
1
1
1
1
1
1
1
1
1
1
1
1
1
1
1
1
1
1
1
1
1
1
1
1
1
1
1
1
1
1
1
1
1
1
1
1
1
1
1
1
1
1
1
1
1
1
1
1
1
1
1
1
1
1
1
1
1
1
1
1
1
1
1
1
1
1
1
1
1
1
1
1
1
1
1
1
1
1
1
1
1
1
1
1
1
1
1
1
1
1
1
1
1
1
1
1
1
1
1
1
1
1
1
1
1
1
1
1
1
1
1
1
1
1
1
1
1
1
1
1
1
1
1
1
1
1
1
1
1
1
1
1
1
1
1
1
1
1
1
1
1
1
1
1
1
1
1
1
1
1
1
1
1
1
1
1
1
1
1
1
1
1
1
1
1
1
1
1
1
1
1
1
1
1
1
1
1
1
1
1
1
1
1
1
1
1
1
1
1
1
1
1
1
1
1
1
1
1
1
1
1
1
1
1
1
1
1
1
1
1
1
1
1
1
1
1
1
1
1
1
1
1
1
1
1
1
1
1
1
1
1
1
1
1
1
1
1
1
1
1
1
1
1
1
1
1
1
1
1
1
1
1
1
1
1
1
1
1
1
1
1
1
1
1
1
1
1
1
1
1
1
1
1
1
1
1
1
1
1
1
1
1
1
1
1
1
1
1
1
1
1
1
1
1
1
1
1
1
1
1
1
1
1
1
1
1
1
1
1
1
1
1
1
1
1
1
1
1
1
1
1
1
1
1
1
1
1
1
1
1
1
1
1
1
1
1
1
1
1
1
1
1
1
1
1
1
1
1
1
1
1
1
1
1
1
1
1
1
1
1
1
1
1
1
1
1
1
1
1
1
1
1
1
1
1
1
1
1
1
1
1
1
1
1
1
1
1
1
1
1
1
1
1
1
1
1
1
1
1
1
1
1
1
1
1
1
1
1
1
1
1
1
1
1
1
1
1
1
1
1
1
1
1
1
1
1
1
1
1
1
1
1
1
1
1
1
1
1
1
1
1
1
1
1
1
1
1
1
1
1
1
1
1
1
1
1
1
1
1
1
1
1
1
1
1
1
1
1
1
1
1
1
1
1
1
1
1
1
1
1
1
1
1
1
1
1
1
1
1
1
1
1
1
1
1
1
1
1
0.999967
1
1
1
1
1
1
1
1
1
1
1
1
1
1
0.998163
0.999866
0.999996
1
1
1
1
1
1
1
1
1
1
1
1
1.10065
1.00056
0.999998
1
1
1
1
1
1
1
1
1
1
1
1
2.06458
1.07265
1.00047
0.999999
1
1
1
1
1
1
1
1
1
1
1
3.31541
1.68054
1.04676
1.00048
1
1
1
1
1
1
1
1
1
1
1
3.24199
2.55035
1.36424
1.0195
1.00019
1
1
1
1
1
1
1
1
1
1
2.91365
2.84638
1.96202
1.14871
1.00505
1.00005
1
1
1
1
1
1
1
1
1
2.32764
2.7879
2.51831
1.53459
1.04681
1.00075
1
1
1
1
1
1
1
1
1
1.60297
2.4461
2.54481
2.06706
1.30228
1.03528
1.00172
1.00004
1
1
1
1
1
1
1
1.27222
2.01049
2.41921
2.2716
1.61908
1.09111
1.00384
1.00008
1
1
1
1
1
1
1
0.889033
1.46997
2.091
2.20139
2.01097
1.35201
1.02807
1.00052
1
1
1
1
1
1
1
0.692489
1.07856
1.64442
2.04268
1.99666
1.62528
1.11842
1.0043
1.00004
1
1
1
1
1
1
0.662102
0.850336
1.25534
1.77956
1.91015
1.77893
1.28952
1.02273
1.00035
1
1
1
1
1
1
0.591141
0.710163
1.03702
1.49086
1.77764
1.74866
1.43529
1.07124
1.00202
1.00002
1
1
1
1
1
0.483382
0.580503
0.839872
1.24818
1.6261
1.65324
1.48797
1.13431
1.00698
1.00007
1
1
1
1
1
0.413669
0.526572
0.652474
0.993225
1.43362
1.53513
1.45828
1.17914
1.01481
1.00022
1
1
1
1
1
0.41828
0.523261
0.613972
0.859546
1.24291
1.41365
1.39011
1.1755
1.0185
1.00034
1
1
1
1
1
0.438676
0.526054
0.613282
0.856572
1.15454
1.31218
1.30302
1.1487
1.01706
1.00033
1
1
1
1
1
0.474508
0.552406
0.631523
0.878014
1.13194
1.2354
1.21672
1.10019
1.0114
1.00023
1
1
1
1
1
0.523474
0.617357
0.696245
0.929342
1.12271
1.1683
1.13574
1.04884
1.00445
1.00009
1
1
1
1
1
0.594417
0.701155
0.793515
0.980938
1.10173
1.10219
1.0627
1.01399
1.0008
1.00001
1
1
1
1
1
0.69379
0.782804
0.879443
1.00541
1.05647
1.04302
1.01582
1.00173
1.00005
1
1
1
1
1
1
0.796862
0.861809
0.938141
1.00992
1.0146
1.00824
1.00154
1.00007
1
1
1
1
1
1
1
0.888374
0.9323
0.975165
1.00192
1.00124
1.00049
1.00004
1
1
1
1
1
1
1
1
0.958761
0.979873
0.994195
0.999635
0.999995
1
1
1
1
1
1
1
1
1
1
0.992733
0.997429
0.999457
0.999846
0.999972
0.999996
1
1
1
1
1
1
1
1
1
0.999583
0.999899
0.999983
0.999978
0.999987
0.999997
1
1
1
1
1
1
1
1
1
0.999993
0.999999
1
0.999999
0.999998
0.999999
1
1
1
1
1
1
1
1
1
1
1
1
1
1
1
1
1
1
1
1
1
1
1
1
0.860276
0.697213
0.619237
0.58369
0.512171
0.408024
0.364174
0.347872
0.357928
0.383677
0.444624
0.558854
0.683987
0.784791
0.871866
0.945848
0.988431
0.999162
0.999984
1
0.663387
0.565912
0.52729
0.48882
0.422175
0.337774
0.333516
0.329696
0.335506
0.36602
0.444362
0.573227
0.700199
0.793364
0.871081
0.941453
0.98632
0.998894
0.999976
1
0.513663
0.469175
0.448705
0.415896
0.354783
0.303804
0.291514
0.294036
0.302491
0.341528
0.441487
0.591124
0.716403
0.795565
0.863613
0.934167
0.98358
0.998554
0.999965
1
0.382619
0.382647
0.374124
0.340171
0.295509
0.276465
0.270683
0.270193
0.289233
0.340848
0.486318
0.67337
0.760847
0.805033
0.859444
0.929131
0.981476
0.998248
0.999954
1
0.287726
0.314673
0.309713
0.280472
0.255897
0.253024
0.254518
0.263142
0.30361
0.445907
0.66746
0.775512
0.78786
0.803143
0.852931
0.925067
0.97971
0.997943
0.999942
1
0.225911
0.25553
0.252632
0.234219
0.221844
0.229177
0.303035
0.421525
0.563707
0.739867
0.83129
0.818848
0.802322
0.809128
0.853885
0.924126
0.978682
0.997703
0.999931
0.999999
0.188992
0.206921
0.210165
0.191379
0.215214
0.386989
0.553197
0.642658
0.756068
0.858584
0.864516
0.83438
0.814681
0.815006
0.849375
0.919802
0.977196
0.9975
0.999923
0.999999
0.138451
0.145083
0.163064
0.248654
0.46359
0.579843
0.657277
0.732833
0.815512
0.888603
0.880233
0.840169
0.819797
0.818397
0.852529
0.921463
0.977634
0.997517
0.999921
0.999999
0.251501
0.335354
0.419234
0.539056
0.631231
0.655528
0.67568
0.730069
0.818926
0.890794
0.867372
0.829284
0.812548
0.813295
0.849476
0.920229
0.977335
0.997446
0.999916
0.999999
0.504254
0.550477
0.627222
0.672249
0.666389
0.657417
0.693272
0.748792
0.811696
0.870954
0.875065
0.844076
0.826338
0.825424
0.857862
0.924111
0.97825
0.997527
0.999918
0.999999
)
;

boundaryField
{
    inlet
    {
        type            fixedValue;
        value           uniform 1;
    }
    outlet
    {
        type            zeroGradient;
    }
    airfoil
    {
        type            zeroGradient;
    }
    top
    {
        type            symmetryPlane;
    }
    bottom
    {
        type            symmetryPlane;
    }
    defaultFaces
    {
        type            empty;
    }
}


// ************************************************************************* //
