/*--------------------------------*- C++ -*----------------------------------*\
  =========                 |
  \\      /  F ield         | OpenFOAM: The Open Source CFD Toolbox
   \\    /   O peration     | Website:  https://openfoam.org
    \\  /    A nd           | Version:  7
     \\/     M anipulation  |
\*---------------------------------------------------------------------------*/
FoamFile
{
    version     2.0;
    format      ascii;
    class       volScalarField;
    location    "1.1";
    object      T;
}
// * * * * * * * * * * * * * * * * * * * * * * * * * * * * * * * * * * * * * //

dimensions      [0 0 0 1 0 0 0];

internalField   nonuniform List<scalar> 
3700
(
100.604
100.744
100.801
100.827
100.856
100.894
100.942
101.013
101.108
101.148
101.15
101.143
101.135
101.129
101.12
101.107
101.095
101.085
101.072
101.054
100.221
100.217
100.264
100.284
100.313
100.358
100.412
100.491
100.556
100.57
100.56
100.531
100.525
100.516
100.498
100.479
100.458
100.436
100.429
100.399
100.258
100.165
100.096
100.013
100.014
100.021
100.019
100.025
100.035
100.027
99.9799
99.9471
99.9241
99.9315
99.9528
99.9841
100.01
100.028
100.04
100.051
100.324
100.178
100.039
99.9377
99.9459
99.9678
99.9964
100.043
100.077
100.095
100.095
100.072
100.032
99.999
99.9795
99.9826
99.9983
100.023
100.044
100.077
100.343
100.176
99.9859
99.8861
99.8859
99.9009
99.9296
100.01
100.063
100.101
100.127
100.127
100.128
100.115
100.098
100.085
100.067
100.064
100.058
100.077
100.333
100.136
99.9396
99.8644
99.8645
99.879
99.9133
99.9885
100.024
100.075
100.114
100.134
100.158
100.164
100.162
100.163
100.165
100.168
100.165
100.173
100.231
100.056
99.8772
99.8608
99.8628
99.8751
99.9181
99.992
100.017
100.069
100.096
100.118
100.155
100.175
100.186
100.199
100.215
100.229
100.238
100.267
100.089
99.9497
99.82
99.8723
99.9233
99.9608
100.035
100.082
100.086
100.117
100.124
100.141
100.157
100.18
100.201
100.221
100.241
100.27
100.289
100.328
100.003
99.8719
99.7987
99.8797
99.9526
100.032
100.127
100.158
100.187
100.215
100.228
100.237
100.255
100.269
100.277
100.283
100.291
100.314
100.337
100.386
99.9507
99.8281
99.8153
99.8883
99.9594
100.073
100.187
100.197
100.231
100.266
100.287
100.302
100.328
100.339
100.354
100.365
100.377
100.392
100.414
100.449
99.9123
99.8132
99.8479
99.9392
100.014
100.14
100.221
100.212
100.247
100.285
100.315
100.341
100.373
100.388
100.409
100.428
100.447
100.465
100.502
100.493
99.8715
99.793
99.881
100.011
100.097
100.232
100.27
100.286
100.324
100.353
100.382
100.406
100.423
100.438
100.459
100.485
100.515
100.539
100.576
100.568
99.7878
99.7381
99.9211
100.057
100.197
100.3
100.33
100.39
100.436
100.476
100.495
100.508
100.517
100.527
100.543
100.565
100.592
100.618
100.654
100.653
99.6931
99.7012
99.96
100.104
100.271
100.34
100.401
100.471
100.518
100.554
100.566
100.58
100.595
100.612
100.637
100.663
100.688
100.709
100.725
100.734
99.6365
99.6616
99.9757
100.156
100.303
100.391
100.476
100.538
100.592
100.62
100.634
100.65
100.669
100.695
100.727
100.753
100.772
100.783
100.779
100.774
99.5993
99.7029
99.997
100.211
100.377
100.514
100.612
100.66
100.699
100.715
100.727
100.743
100.765
100.792
100.813
100.823
100.82
100.813
100.788
100.743
99.5216
99.8162
100.16
100.381
100.602
100.699
100.738
100.776
100.8
100.811
100.821
100.836
100.852
100.858
100.856
100.844
100.792
100.677
100.514
100.275
99.4353
99.9975
100.439
100.66
100.769
100.814
100.841
100.863
100.875
100.881
100.882
100.884
100.883
100.86
100.774
100.624
100.36
100.102
100.006
99.9979
100.123
100.532
100.736
100.836
100.888
100.902
100.918
100.923
100.918
100.908
100.894
100.84
100.729
100.475
100.15
100.011
99.9967
99.9985
99.9992
99.9998
100.696
100.835
100.912
100.948
100.961
100.952
100.952
100.93
100.842
100.76
100.573
100.231
100.029
99.9956
99.9977
99.9989
99.9998
100
100
100
100.998
100.995
100.992
100.989
100.981
100.945
100.881
100.458
99.8432
100
100
100
100
100
100
100
100
100
100
100
100.999
100.995
100.989
100.975
100.96
100.852
100.487
100.015
100
100
100
100
100
100
100
100
100
100
100
100
100.993
100.995
100.988
100.965
100.919
100.627
100.029
99.9995
100
100
100
100
100
100
100
100
100
100
100
100
100.988
100.994
100.988
100.951
100.784
100.251
99.9964
100
100
100
100
100
100
100
100
100
100
100
100
100
100.979
100.989
100.984
100.924
100.554
99.9922
100
100
100
100
100
100
100
100
100
100
100
100
100
100
100.975
100.984
100.977
100.829
100.249
100
100
100
100
100
100
100
100
100
100
100
100
100
100
100
100.973
100.982
100.97
100.715
100.012
100
100
100
100
100
100
100
100
100
100
100
100
100
100
100
100.983
100.982
100.929
100.47
99.9975
100
100
100
100
100
100
100
100
100
100
100
100
100
100
100
101.002
100.968
100.822
100.154
100
100
100
100
100
100
100
100
100
100
100
100
100
100
100
100
101.014
100.942
100.683
99.9964
100
100
100
100
100
100
100
100
100
100
100
100
100
100
100
100
101.022
100.905
100.498
100
100
100
100
100
100
100
100
100
100
100
100
100
100
100
100
100
101.026
100.85
100.313
100
100
100
100
100
100
100
100
100
100
100
100
100
100
100
100
100
101.03
100.794
100.106
100
100
100
100
100
100
100
100
100
100
100
100
100
100
100
100
100
101.029
100.728
100.001
100
100
100
100
100
100
100
100
100
100
100
100
100
100
100
100
100
101.018
100.669
100
100
100
100
100
100
100
100
100
100
100
100
100
100
100
100
100
100
100.992
100.594
100
100
100
100
100
100
100
100
100
100
100
100
100
100
100
100
100
100
100.954
100.434
100
100
100
100
100
100
100
100
100
100
100
100
100
100
100
100
100
100
100.896
100.208
100
100
100
100
100
100
100
100
100
100
100
100
100
100
100
100
100
100
100.86
100.004
100
100
100
100
100
100
100
100
100
100
100
100
100
100
100
100
100
100
100.817
100
100
100
100
100
100
100
100
100
100
100
100
100
100
100
100
100
100
100
100.817
100
100
100
100
100
100
100
100
100
100
100
100
100
100
100
100
100
100
100
100.86
100.004
100
100
100
100
100
100
100
100
100
100
100
100
100
100
100
100
100
100
100.896
100.208
100
100
100
100
100
100
100
100
100
100
100
100
100
100
100
100
100
100
100.954
100.434
100
100
100
100
100
100
100
100
100
100
100
100
100
100
100
100
100
100
100.992
100.594
100
100
100
100
100
100
100
100
100
100
100
100
100
100
100
100
100
100
101.018
100.669
100
100
100
100
100
100
100
100
100
100
100
100
100
100
100
100
100
100
101.029
100.728
100.001
100
100
100
100
100
100
100
100
100
100
100
100
100
100
100
100
100
101.03
100.794
100.106
100
100
100
100
100
100
100
100
100
100
100
100
100
100
100
100
100
101.026
100.85
100.313
100
100
100
100
100
100
100
100
100
100
100
100
100
100
100
100
100
101.022
100.905
100.498
100
100
100
100
100
100
100
100
100
100
100
100
100
100
100
100
100
101.014
100.942
100.683
99.9964
100
100
100
100
100
100
100
100
100
100
100
100
100
100
100
100
101.002
100.968
100.822
100.154
100
100
100
100
100
100
100
100
100
100
100
100
100
100
100
100
100.983
100.982
100.929
100.47
99.9975
100
100
100
100
100
100
100
100
100
100
100
100
100
100
100
100.973
100.982
100.97
100.715
100.012
100
100
100
100
100
100
100
100
100
100
100
100
100
100
100
100.975
100.984
100.977
100.829
100.249
100
100
100
100
100
100
100
100
100
100
100
100
100
100
100
100.979
100.989
100.984
100.924
100.554
99.9922
100
100
100
100
100
100
100
100
100
100
100
100
100
100
100.988
100.994
100.988
100.951
100.784
100.251
99.9964
100
100
100
100
100
100
100
100
100
100
100
100
100
100.993
100.995
100.988
100.965
100.919
100.627
100.029
99.9995
100
100
100
100
100
100
100
100
100
100
100
100
100.999
100.995
100.989
100.975
100.96
100.852
100.487
100.015
100
100
100
100
100
100
100
100
100
100
100
100
100.998
100.995
100.992
100.989
100.981
100.945
100.881
100.458
99.8432
100
100
100
100
100
100
100
100
100
100
100
100.696
100.835
100.912
100.948
100.961
100.952
100.952
100.93
100.842
100.76
100.573
100.231
100.029
99.9956
99.9977
99.9989
99.9998
100
100
100
100.123
100.532
100.736
100.836
100.888
100.902
100.918
100.923
100.918
100.908
100.894
100.84
100.729
100.475
100.15
100.011
99.9967
99.9985
99.9992
99.9998
99.4356
99.9977
100.439
100.66
100.769
100.814
100.841
100.863
100.875
100.881
100.882
100.884
100.883
100.86
100.774
100.624
100.36
100.102
100.006
99.9979
99.5218
99.8166
100.16
100.381
100.602
100.699
100.738
100.776
100.8
100.811
100.821
100.836
100.852
100.858
100.856
100.844
100.792
100.677
100.514
100.275
99.5991
99.703
99.9978
100.212
100.377
100.514
100.612
100.66
100.699
100.715
100.727
100.743
100.765
100.792
100.813
100.823
100.82
100.813
100.788
100.743
99.636
99.6612
99.9757
100.156
100.304
100.391
100.476
100.538
100.592
100.62
100.634
100.65
100.669
100.695
100.727
100.753
100.772
100.783
100.779
100.774
99.6928
99.7007
99.9596
100.104
100.272
100.34
100.401
100.471
100.518
100.554
100.566
100.58
100.595
100.612
100.637
100.663
100.688
100.709
100.725
100.734
99.7879
99.7378
99.92
100.057
100.197
100.301
100.33
100.39
100.436
100.476
100.495
100.508
100.517
100.527
100.543
100.565
100.592
100.618
100.654
100.653
99.8719
99.7929
99.8798
100.01
100.097
100.233
100.27
100.286
100.324
100.353
100.382
100.406
100.423
100.438
100.459
100.485
100.515
100.539
100.576
100.568
99.9129
99.8133
99.8469
99.9384
100.014
100.141
100.221
100.212
100.247
100.285
100.315
100.341
100.373
100.388
100.409
100.428
100.447
100.465
100.502
100.493
99.9515
99.8283
99.8145
99.8879
99.9593
100.073
100.186
100.197
100.231
100.266
100.287
100.302
100.328
100.339
100.354
100.365
100.377
100.392
100.414
100.449
100.004
99.8722
99.7984
99.8794
99.9524
100.032
100.127
100.158
100.187
100.214
100.228
100.237
100.255
100.269
100.277
100.283
100.291
100.314
100.337
100.386
100.09
99.9503
99.8201
99.8721
99.9231
99.9606
100.035
100.082
100.086
100.117
100.124
100.14
100.157
100.179
100.201
100.221
100.241
100.27
100.289
100.328
100.232
100.056
99.8776
99.8608
99.863
99.8753
99.9183
99.9919
100.017
100.069
100.096
100.118
100.155
100.174
100.186
100.199
100.215
100.229
100.238
100.267
100.333
100.136
99.9396
99.8645
99.8648
99.8793
99.9135
99.9884
100.024
100.075
100.114
100.133
100.158
100.164
100.162
100.163
100.165
100.168
100.165
100.173
100.343
100.176
99.9858
99.8862
99.8862
99.9011
99.9299
100.01
100.063
100.101
100.127
100.127
100.128
100.115
100.098
100.085
100.067
100.064
100.058
100.077
100.324
100.177
100.039
99.9381
99.9464
99.9682
99.9967
100.043
100.077
100.095
100.095
100.072
100.032
99.9991
99.9795
99.9827
99.9982
100.022
100.044
100.077
100.258
100.165
100.096
100.014
100.015
100.021
100.019
100.025
100.035
100.026
99.9796
99.9469
99.9241
99.9316
99.9528
99.984
100.01
100.028
100.04
100.051
100.22
100.216
100.264
100.282
100.313
100.358
100.41
100.489
100.558
100.571
100.552
100.522
100.526
100.524
100.501
100.473
100.455
100.438
100.432
100.401
100.603
100.743
100.802
100.826
100.856
100.893
100.941
101.013
101.109
101.147
101.148
101.142
101.135
101.13
101.12
101.106
101.094
101.085
101.073
101.054
101.028
100.962
100.941
100.933
100.912
100.817
100.624
100.378
100.185
100.063
99.9919
99.9656
99.9573
99.9552
99.9625
99.9794
99.994
99.9993
100
100
100.519
100.557
100.581
100.68
100.785
100.76
100.627
100.429
100.238
100.091
99.9959
99.96
99.9532
99.9533
99.9616
99.9796
99.9941
99.9993
100
100
100.031
100.02
100.054
100.218
100.483
100.609
100.587
100.481
100.305
100.138
100.013
99.9582
99.9483
99.9465
99.9573
99.9786
99.9941
99.9993
100
100
100.085
100.085
100.074
100.035
100.088
100.341
100.466
100.427
100.317
100.162
100.027
99.9551
99.9407
99.9422
99.9564
99.9793
99.9946
99.9994
100
100
100.121
100.133
100.121
100.082
100.066
100.084
100.202
100.259
100.215
100.129
100.03
99.9565
99.9342
99.9367
99.954
99.9788
99.9947
99.9995
100
100
100.168
100.178
100.165
100.121
100.106
100.105
100.099
100.067
99.9776
99.9697
99.9713
99.9489
99.9293
99.9323
99.953
99.9796
99.9951
99.9995
100
100
100.232
100.223
100.208
100.172
100.143
100.134
100.117
100.066
99.9552
99.8624
99.8823
99.9101
99.9168
99.9278
99.9533
99.9803
99.9955
99.9996
100
100
100.299
100.269
100.255
100.23
100.19
100.158
100.131
100.08
99.9662
99.8605
99.8574
99.876
99.9007
99.9268
99.955
99.9813
99.9959
99.9996
100
100
100.36
100.319
100.3
100.274
100.229
100.177
100.155
100.107
100.002
99.8829
99.8602
99.8714
99.8957
99.9263
99.9577
99.9833
99.9965
99.9997
100
100
100.429
100.377
100.343
100.316
100.268
100.207
100.169
100.114
100.021
99.9031
99.8583
99.8661
99.8901
99.9237
99.9585
99.9846
99.997
99.9998
100
100
100.533
100.436
100.358
100.333
100.285
100.229
100.18
100.133
100.066
99.9629
99.8887
99.8828
99.8964
99.9288
99.9641
99.9883
99.9981
99.9999
100
100
100.612
100.536
100.451
100.375
100.307
100.247
100.207
100.157
100.08
99.9789
99.9221
99.9203
99.9294
99.9525
99.9783
99.9942
99.9993
100
100
100
100.599
100.572
100.519
100.441
100.368
100.296
100.222
100.156
100.075
99.9857
99.9466
99.9496
99.9624
99.9792
99.9921
99.9983
99.9999
100
100
100
100.478
100.514
100.501
100.464
100.408
100.345
100.265
100.187
100.111
100.045
100.009
99.9998
100
100.002
100
99.9999
100
100
100
100
100.238
100.337
100.392
100.388
100.369
100.333
100.279
100.208
100.139
100.083
100.048
100.029
100.014
100.004
100
100
100
100
100
100
100.037
100.119
100.196
100.249
100.25
100.237
100.209
100.167
100.12
100.079
100.049
100.028
100.012
100.002
100
100
100
100
100
100
100.001
100.009
100.038
100.088
100.125
100.13
100.123
100.105
100.082
100.057
100.036
100.017
100.005
100
100
100
100
100
100
100
100
100
100.001
100.007
100.022
100.038
100.047
100.046
100.038
100.026
100.013
100.004
100.001
100
100
100
100
100
100
100
100
100
100
100
100.001
100.002
100.004
100.005
100.005
100.003
100.001
100
100
100
100
100
100
100
100
100
100
100
100
100
100
100
100
100
100
100
100
100
100
100
100
100
100
100
100
100
100
100
100
100
100
100
100
100
100
100
100
100
100
100
100
100
100
100
100
100
100
100
100
100
100
100
100
100
100
100
100
100
100
100
100
100
100
100
100
100
100
100
100
100
100
100
100
100
100
100
100
100
100
100
100
100
100
100
100
100
100
100
100
100
100
100
100
100
100
100
100
100
100
100
100
100
100
100
100
100
100
100
100
100
100
100
100
100
100
100
100
100
100
100
100
100
100
100
100
100
100.593
100.65
100.604
100.409
100.138
100.016
100.001
100
100
100
100
100
100
100
100
100.669
100.659
100.514
100.215
100.021
100
100
100
100
100
100
100
100
100
100
100.703
100.634
100.371
100.073
100.002
100
100
100
100
100
100
100
100
100
100
100.718
100.517
100.167
100.009
100
100
100
100
100
100
100
100
100
100
100
100.651
100.284
100.024
100
100
100
100
100
100
100
100
100
100
100
100
100.393
100.038
100
100
100
100
100
100
100
100
100
100
100
100
100
100.042
100
100
100
100
100
100
100
100
100
100
100
100
100
100
99.9995
100
100
100
100
100
100
100
100
100
100
100
100
100
100
100
100
100
100
100
100
100
100
100
100
100
100
100
100
100
100
100
100
100
100
100
100
100
100
100
100
100
100
100
100
100
100
100
100
100
100
100
100
100
100
100
100
100
100
100
100
100
100
100
100
100
100
100
100
100
100
100
100
100
100
100
100
100
100
100
100
100
100
100
100
100
100
100
100
100
100
100
100
100
100
100
100
100
100
100
100
100
100
100
100
100
100
100
100
100
100
100
100
100
100
100
100
100
100
100
100
100
100
100
100
100
100
100
100
100
100
100
100
100
100
100
100
100
100
100
100
100
100
100
100
100
100
100
100
100
100
100
100
100
100
100
100
100
100
100
100
100
100
100
100
100
100
100
100
100
100
100
100
100
100
100
100
100
100
100
100
100
100
100
100
100
100
100
100
100
100
100
100
100
100
100
100
100
100
100
100
100
100
100
100
100
100
100
100
100
100
100
100
100
100
100
100
100
100
100
100
100
100
100
100
100
100
100
100
100
100
100
100
100
100
100
100
100
100
100
100
100
100
100
100
100
100
100
100
100
100
100
100
100
100
100
100
100
100
100
100
100
100
100
100
100
100
100
100
100
100
100
100
100
100
100
100
100
100
100
100
100
100
100
100
100
100
100
100
100
100
100
100
100
100
100
100
100
100
100
100
100
100
100
100
100
100
100
100
100
100
100
100
100
100
100
100
100
100
100
100
100
100
100
100
100
100
100
100
100
100
100
100
100
100
100
100
100
100
100
100
100
100
100
100
100
100
100
100
100
100
100
100
100
100
100
100
100
100
100
100
100
100
100
100
100
100
100
100
100
100
100
100
100
100
100
100
100
100
100
100
100
100
100
100
100
100
100
100
100
100
100
100
100
100
100
100
100
100
100
100
100
100
100
100
100
100
100
100
100
100
100
100
100
100
100
100
100
100
100
100
100
100
100
100
100
100
100
100
100
100
100
100
100
100
100
100
100
100
100
100
100
100
100
100
100
100
100
100
100
100
100
100
100
100
100
100
100
100
100
100
100
100
100
100
100
100
100
100
100
100
100
100
100
100
100
100
100
100
100
100
100
100
100
100
100
100
100
100
100
100
100
100
100
100
100
100
100
100
100
100
100
100
100
100
100
100
100
100
100
100
100
100
100
100
100
100
100
100
100
100
100
100
100
100
100
100
100
100
100
100
100
100
100
100
100
100
100
100
100
100
100
100
100
100
100
100
100
100
100
100
100
100
100
100
100
100
100
100
100
100
100
100
100
100
100
100
100
100
100
100
100
100
100
100
100
100
100
100
100
100
100
100
100
100
100
100
100
100
100
100
100
100
100
100
100
100
100
100
100
100
100
100
100
100
100
100
100
100
100
100
100
100
100
100
100
100
100
100
100
100
100
100
100
100
100
100
100
100
100
100
100
100
100
100
100
100
100
100
100
100
100
100
100
100
100
100
100
100
100
100
100
100
100
100
100
100
100
100
100
100
100
100
100
100
100
100
100
100
100
100
100
100
100
100
100
100
100
100
100
100
100
100
100
100
100
100
100
100
100
100
100
100
100
100
100
100
100
100
100
100
100
100
100
100
100
100
100
100
100
100
100
100
100
100
100
100
100
100
100
100
100
100
100
100
100
100
100
100
100
100
100
100
100
100
100
100
100
100
100
100
100
100
100
100
100
100
100
100
100
100
100
100
100
100
100
100
100
100
100
100
100
100
100
100
100
100
100
100
100
100
100
100
100
100
100
100
100
100
100
100
100
100
100
100
100
100
100
100
100
100
100
100
100
100
100
100
100
100
100
100
100
100
100
100
100
100
100
100
100
100
100
100
100
100
100
100
100
100
100
100
100
100
100
100
100
100
100
100
100
100
100
100
100
100
100
100
100
100
100
100
100
100
100
100
100
100
100
100
100
100
100
100
100
100
100
100
100
100
100
100
100
100
100
100
100
100
100
100
100
100
100
100
100
100
99.9995
100
100
100
100
100
100
100
100
100
100
100
100
100
100
100.042
100
100
100
100
100
100
100
100
100
100
100
100
100
100
100.393
100.038
100
100
100
100
100
100
100
100
100
100
100
100
100
100.651
100.284
100.024
100
100
100
100
100
100
100
100
100
100
100
100
100.718
100.517
100.167
100.009
100
100
100
100
100
100
100
100
100
100
100
100.703
100.634
100.371
100.073
100.002
100
100
100
100
100
100
100
100
100
100
100.669
100.659
100.514
100.215
100.021
100
100
100
100
100
100
100
100
100
100
100.593
100.65
100.604
100.409
100.138
100.016
100.001
100
100
100
100
100
100
100
100
100.533
100.612
100.599
100.478
100.238
100.037
100.001
100
100
100
100
100
100
100
100
100.436
100.536
100.572
100.514
100.337
100.119
100.009
100
100
100
100
100
100
100
100
100.358
100.451
100.519
100.501
100.392
100.196
100.038
100.001
100
100
100
100
100
100
100
100.332
100.376
100.441
100.464
100.388
100.249
100.088
100.007
100
100
100
100
100
100
100
100.283
100.306
100.369
100.408
100.369
100.25
100.125
100.022
100.001
100
100
100
100
100
100
100.228
100.245
100.297
100.344
100.333
100.237
100.13
100.038
100.002
100
100
100
100
100
100
100.181
100.207
100.222
100.265
100.278
100.209
100.123
100.047
100.004
100
100
100
100
100
100
100.139
100.157
100.155
100.187
100.208
100.167
100.105
100.046
100.005
100
100
100
100
100
100
100.073
100.078
100.073
100.111
100.139
100.12
100.082
100.038
100.005
100
100
100
100
100
100
99.9704
99.9783
99.983
100.045
100.083
100.079
100.057
100.026
100.003
100
100
100
100
100
100
99.8956
99.9227
99.9446
100.009
100.048
100.049
100.036
100.013
100.001
100
100
100
100
100
100
99.8862
99.9213
99.9481
99.9996
100.028
100.028
100.017
100.004
100
100
100
100
100
100
100
99.8974
99.9299
99.9617
100
100.014
100.012
100.005
100.001
100
100
100
100
100
100
100
99.9282
99.9523
99.979
100.001
100.004
100.002
100
100
100
100
100
100
100
100
100
99.9637
99.9782
99.9921
100
100
100
100
100
100
100
100
100
100
100
100
99.9882
99.9942
99.9983
99.9999
100
100
100
100
100
100
100
100
100
100
100
99.9981
99.9993
99.9999
100
100
100
100
100
100
100
100
100
100
100
100
99.9999
100
100
100
100
100
100
100
100
100
100
100
100
100
100
100
100
100
100
100
100
100
100
100
100
100
100
100
100
100
100
100
100
100
100
100
100
100
100
100
100
100
100
100
100
100.429
100.377
100.342
100.316
100.268
100.208
100.169
100.112
100.026
99.9102
99.8573
99.8648
99.8892
99.9234
99.9584
99.9846
99.997
99.9998
100
100
100.36
100.318
100.3
100.275
100.23
100.178
100.156
100.105
100.003
99.8849
99.8577
99.8692
99.8951
99.9264
99.9579
99.9833
99.9965
99.9997
100
100
100.299
100.269
100.254
100.231
100.191
100.157
100.13
100.081
99.9686
99.8601
99.8551
99.8738
99.9007
99.9271
99.9554
99.9814
99.9959
99.9996
100
100
100.232
100.222
100.208
100.174
100.144
100.131
100.113
100.062
99.9525
99.8606
99.8799
99.9095
99.9184
99.931
99.9544
99.9803
99.9954
99.9996
100
100
100.168
100.178
100.165
100.122
100.105
100.103
100.096
100.064
99.9736
99.9658
99.9693
99.9491
99.9297
99.9318
99.9524
99.9793
99.9951
99.9995
100
100
100.121
100.133
100.121
100.082
100.066
100.083
100.2
100.254
100.209
100.126
100.03
99.9578
99.9344
99.9363
99.9545
99.9795
99.9949
99.9995
100
100
100.085
100.085
100.074
100.035
100.088
100.342
100.467
100.426
100.316
100.163
100.028
99.9562
99.9416
99.9422
99.9553
99.9784
99.9943
99.9994
100
100
100.031
100.02
100.054
100.218
100.482
100.61
100.588
100.482
100.305
100.14
100.015
99.9579
99.948
99.9475
99.9582
99.9788
99.9942
99.9993
100
100
100.518
100.557
100.581
100.68
100.785
100.76
100.627
100.431
100.239
100.095
99.9945
99.9575
99.9499
99.9493
99.9586
99.9782
99.9939
99.9993
100
100
101.028
100.962
100.941
100.933
100.912
100.816
100.623
100.381
100.181
100.057
99.9923
99.9646
99.9569
99.955
99.9621
99.9792
99.994
99.9993
100
100
)
;

boundaryField
{
    inlet
    {
        type            fixedValue;
        value           uniform 100;
    }
    outlet
    {
        type            inletOutlet;
        inletValue      uniform 100;
        value           nonuniform List<scalar> 
50
(
100
100
100
100
100
100
100
100
100
100
100
100
100
100
100
100
100
100
100
100
100
100
100
100
100
100
100
100
100
100
100
100
100
100
100
100
100
100
100
100
100
100
100
100
100
100
100
100
100
100
)
;
    }
    airfoil
    {
        type            zeroGradient;
    }
    top
    {
        type            symmetryPlane;
    }
    bottom
    {
        type            symmetryPlane;
    }
    defaultFaces
    {
        type            empty;
    }
}


// ************************************************************************* //
