/*--------------------------------*- C++ -*----------------------------------*\
  =========                 |
  \\      /  F ield         | OpenFOAM: The Open Source CFD Toolbox
   \\    /   O peration     | Website:  https://openfoam.org
    \\  /    A nd           | Version:  7
     \\/     M anipulation  |
\*---------------------------------------------------------------------------*/
FoamFile
{
    version     2.0;
    format      ascii;
    class       volVectorField;
    location    "1.1";
    object      U;
}
// * * * * * * * * * * * * * * * * * * * * * * * * * * * * * * * * * * * * * //

dimensions      [0 1 -1 0 0 0 0];

internalField   nonuniform List<vector> 
3700
(
(1.40376 -0.533721 0)
(1.25744 -0.62026 0)
(1.24633 -0.478938 0)
(1.29355 -0.457721 0)
(1.37638 -0.426929 0)
(1.46574 -0.376751 0)
(1.53048 -0.323929 0)
(1.57162 -0.270753 0)
(1.59569 -0.231918 0)
(1.62133 -0.190416 0)
(1.62378 -0.182785 0)
(1.61554 -0.203646 0)
(1.62177 -0.189386 0)
(1.63166 -0.205677 0)
(1.6712 -0.222791 0)
(1.72738 -0.223035 0)
(1.79416 -0.236547 0)
(1.87644 -0.238635 0)
(1.92588 -0.238057 0)
(1.9617 -0.24266 0)
(1.52613 -1.4316 0)
(1.64403 -1.50211 0)
(1.77608 -1.76928 0)
(1.86374 -1.92618 0)
(1.84944 -2.00688 0)
(1.84221 -1.92326 0)
(1.83899 -1.77209 0)
(1.84676 -1.5806 0)
(1.84851 -1.41053 0)
(1.88568 -1.27661 0)
(1.92948 -1.23683 0)
(1.96384 -1.26243 0)
(1.98625 -1.23161 0)
(1.99486 -1.25115 0)
(2.04781 -1.29132 0)
(2.10708 -1.24784 0)
(2.15529 -1.28185 0)
(2.21853 -1.24864 0)
(2.30286 -1.22351 0)
(2.38815 -1.22469 0)
(1.51374 -1.40705 0)
(1.80485 -1.45586 0)
(2.04217 -2.00425 0)
(2.00402 -2.32783 0)
(1.967 -2.44603 0)
(2.02705 -2.46598 0)
(2.05017 -2.37017 0)
(2.07628 -2.23757 0)
(2.058 -2.19308 0)
(2.11552 -2.02983 0)
(2.19403 -1.95813 0)
(2.28634 -1.95779 0)
(2.36967 -1.90927 0)
(2.39537 -1.89705 0)
(2.43648 -1.88784 0)
(2.49362 -1.77213 0)
(2.48327 -1.77577 0)
(2.50605 -1.68635 0)
(2.51694 -1.64675 0)
(2.57561 -1.57417 0)
(1.58973 -1.43429 0)
(2.003 -1.39328 0)
(2.14669 -2.03249 0)
(2.11934 -2.31455 0)
(2.11908 -2.39638 0)
(2.21371 -2.40223 0)
(2.25886 -2.30611 0)
(2.1855 -2.22094 0)
(2.09683 -2.17167 0)
(2.15494 -1.94859 0)
(2.21299 -1.82813 0)
(2.32863 -1.76192 0)
(2.41267 -1.67102 0)
(2.52831 -1.5991 0)
(2.64223 -1.5557 0)
(2.739 -1.44375 0)
(2.73692 -1.44731 0)
(2.7491 -1.40386 0)
(2.70854 -1.40971 0)
(2.64117 -1.39371 0)
(1.65337 -1.47082 0)
(2.08964 -1.42988 0)
(2.13754 -2.06477 0)
(2.07163 -2.30632 0)
(2.15425 -2.34644 0)
(2.23565 -2.38473 0)
(2.34285 -2.18325 0)
(2.28782 -2.12648 0)
(2.20526 -2.10267 0)
(2.2854 -1.85717 0)
(2.27786 -1.8324 0)
(2.34905 -1.7092 0)
(2.39985 -1.64929 0)
(2.4662 -1.59834 0)
(2.5713 -1.5267 0)
(2.63495 -1.37922 0)
(2.70795 -1.18892 0)
(2.82181 -1.08193 0)
(2.84169 -0.940073 0)
(2.77296 -0.929618 0)
(1.73832 -1.53984 0)
(2.09859 -1.53556 0)
(1.99033 -2.14974 0)
(1.91298 -2.30426 0)
(2.12056 -2.31386 0)
(2.21909 -2.35825 0)
(2.33523 -2.12839 0)
(2.30493 -2.08356 0)
(2.28623 -2.04688 0)
(2.39376 -1.72515 0)
(2.44114 -1.71518 0)
(2.53466 -1.58045 0)
(2.53595 -1.52797 0)
(2.55092 -1.47553 0)
(2.57704 -1.39511 0)
(2.60339 -1.31335 0)
(2.63902 -1.19273 0)
(2.74001 -1.11377 0)
(2.75958 -0.926499 0)
(2.81974 -0.725343 0)
(1.82529 -1.6048 0)
(1.97466 -1.66319 0)
(1.8016 -2.13496 0)
(1.77209 -2.20608 0)
(1.95256 -2.11924 0)
(2.03832 -2.10422 0)
(2.22396 -1.81846 0)
(2.27298 -1.8789 0)
(2.42086 -1.78748 0)
(2.50786 -1.65223 0)
(2.54255 -1.58397 0)
(2.67357 -1.3517 0)
(2.69344 -1.30967 0)
(2.70303 -1.25505 0)
(2.71556 -1.12959 0)
(2.70138 -1.09857 0)
(2.69286 -0.978929 0)
(2.70085 -0.961456 0)
(2.71826 -0.876236 0)
(2.74741 -0.660257 0)
(1.71094 -1.53057 0)
(1.74047 -1.66119 0)
(1.64983 -2.01971 0)
(1.68216 -2.13479 0)
(1.85038 -2.01596 0)
(1.936 -2.00603 0)
(2.10003 -1.81957 0)
(2.17453 -1.79869 0)
(2.35851 -1.49142 0)
(2.47755 -1.51974 0)
(2.60212 -1.30659 0)
(2.70425 -1.1288 0)
(2.72903 -0.932295 0)
(2.77004 -0.858134 0)
(2.79805 -0.709225 0)
(2.79831 -0.720681 0)
(2.7852 -0.629839 0)
(2.75051 -0.611787 0)
(2.73282 -0.651695 0)
(2.70647 -0.500364 0)
(1.53598 -1.39945 0)
(1.57721 -1.50831 0)
(1.55619 -1.84667 0)
(1.64211 -2.01183 0)
(1.81152 -1.97081 0)
(1.95562 -1.92395 0)
(2.05501 -1.8573 0)
(2.15552 -1.77368 0)
(2.2827 -1.47455 0)
(2.3559 -1.44137 0)
(2.4739 -1.24544 0)
(2.57675 -1.14033 0)
(2.62647 -0.861623 0)
(2.72688 -0.770022 0)
(2.73243 -0.503582 0)
(2.76274 -0.405001 0)
(2.76353 -0.275032 0)
(2.74373 -0.220208 0)
(2.71875 -0.285449 0)
(2.68231 -0.219171 0)
(1.43161 -1.24253 0)
(1.51164 -1.29367 0)
(1.55038 -1.68667 0)
(1.65963 -1.9426 0)
(1.82086 -1.93348 0)
(2.13045 -1.71408 0)
(2.24777 -1.85448 0)
(2.37881 -1.63121 0)
(2.37307 -1.41517 0)
(2.40838 -1.32822 0)
(2.48286 -1.15211 0)
(2.54596 -0.997303 0)
(2.57538 -0.811289 0)
(2.64678 -0.709256 0)
(2.65298 -0.492248 0)
(2.69267 -0.376768 0)
(2.69065 -0.19987 0)
(2.67645 -0.0634632 0)
(2.64314 -0.00189159 0)
(2.62201 0.0134984 0)
(1.39123 -1.12535 0)
(1.52681 -1.15016 0)
(1.6481 -1.57757 0)
(1.77061 -1.92872 0)
(1.96936 -1.95295 0)
(2.42833 -1.5401 0)
(2.75514 -1.5936 0)
(2.67697 -1.13103 0)
(2.64585 -1.03551 0)
(2.64068 -0.915422 0)
(2.66147 -0.771456 0)
(2.67086 -0.583366 0)
(2.66631 -0.492167 0)
(2.66972 -0.378063 0)
(2.64496 -0.25474 0)
(2.63514 -0.19566 0)
(2.61681 -0.0983953 0)
(2.59579 0.00879506 0)
(2.54629 0.154917 0)
(2.5702 0.124659 0)
(1.36562 -1.10192 0)
(1.57678 -1.18239 0)
(1.83953 -1.61673 0)
(2.0299 -2.05634 0)
(2.38461 -1.97317 0)
(2.68911 -1.44353 0)
(2.75996 -1.37937 0)
(2.76467 -0.77257 0)
(2.7437 -0.696803 0)
(2.69908 -0.410201 0)
(2.70452 -0.300772 0)
(2.68556 -0.133467 0)
(2.68099 -0.036527 0)
(2.64415 0.0898239 0)
(2.60871 0.157752 0)
(2.5749 0.179321 0)
(2.53897 0.201322 0)
(2.51943 0.203752 0)
(2.44352 0.334686 0)
(2.45957 0.306169 0)
(1.35378 -1.17197 0)
(1.70178 -1.3587 0)
(2.1055 -1.72047 0)
(2.19959 -2.11371 0)
(2.33566 -1.68267 0)
(2.43005 -1.45326 0)
(2.43464 -1.18317 0)
(2.51294 -0.81786 0)
(2.54154 -0.697831 0)
(2.57985 -0.437279 0)
(2.61868 -0.247818 0)
(2.59651 -0.0219349 0)
(2.59218 0.134536 0)
(2.54211 0.300486 0)
(2.48915 0.424542 0)
(2.45469 0.463265 0)
(2.39795 0.525951 0)
(2.37965 0.498563 0)
(2.32055 0.559024 0)
(2.32131 0.524592 0)
(1.37588 -1.3349 0)
(1.81875 -1.8796 0)
(2.46232 -1.7091 0)
(2.08532 -1.87313 0)
(2.22911 -1.39616 0)
(2.34737 -1.32939 0)
(2.43744 -0.697167 0)
(2.43946 -0.655586 0)
(2.45966 -0.384139 0)
(2.50229 -0.246752 0)
(2.51384 -0.0332719 0)
(2.48094 0.174985 0)
(2.46092 0.307858 0)
(2.41001 0.439067 0)
(2.34796 0.559383 0)
(2.31533 0.605878 0)
(2.24374 0.693445 0)
(2.20658 0.730791 0)
(2.17262 0.774036 0)
(2.14448 0.78604 0)
(1.47549 -1.53263 0)
(1.72646 -2.34776 0)
(2.22294 -1.51221 0)
(2.0264 -1.60201 0)
(2.28048 -0.97784 0)
(2.49845 -0.765763 0)
(2.49747 -0.160565 0)
(2.4837 -0.0218743 0)
(2.43726 0.154417 0)
(2.44764 0.263223 0)
(2.39486 0.43725 0)
(2.33942 0.568256 0)
(2.28643 0.660038 0)
(2.22621 0.740595 0)
(2.17614 0.777032 0)
(2.1314 0.806822 0)
(2.08133 0.861224 0)
(2.06231 0.890123 0)
(2.03376 0.933988 0)
(2.05916 0.955189 0)
(1.38523 -1.54373 0)
(1.45561 -1.94203 0)
(2.03605 -1.3864 0)
(2.28374 -0.878972 0)
(2.42347 -0.331971 0)
(2.42541 0.207305 0)
(2.48894 0.0586469 0)
(2.37798 0.391649 0)
(2.33476 0.480117 0)
(2.29322 0.632836 0)
(2.20292 0.778864 0)
(2.12501 0.883918 0)
(2.07052 0.93632 0)
(2.01599 0.988029 0)
(1.98117 0.983805 0)
(1.9551 0.99279 0)
(1.95555 1.01366 0)
(1.97188 0.992891 0)
(1.99686 0.992785 0)
(2.07169 0.976598 0)
(1.07043 -0.982722 0)
(1.55337 -1.36777 0)
(2.22325 -0.826459 0)
(2.32751 0.406203 0)
(2.37365 0.170547 0)
(2.37601 0.319403 0)
(2.27646 0.567098 0)
(2.2048 0.659761 0)
(2.14186 0.747962 0)
(2.09073 0.879659 0)
(1.98084 0.994064 0)
(1.921 1.05813 0)
(1.88282 1.08468 0)
(1.86844 1.09447 0)
(1.86963 1.06055 0)
(1.89592 1.05149 0)
(1.96248 1.0226 0)
(2.16726 0.902705 0)
(2.3871 0.788308 0)
(2.78337 0.435547 0)
(0.959108 0.0138752 0)
(1.90284 0.351393 0)
(2.21772 0.540138 0)
(2.26138 0.453209 0)
(2.193 0.690256 0)
(2.15827 0.754295 0)
(2.04547 0.887768 0)
(1.95968 0.971677 0)
(1.90837 1.03412 0)
(1.84773 1.12383 0)
(1.79038 1.15566 0)
(1.79267 1.15054 0)
(1.81011 1.13096 0)
(1.84917 1.08919 0)
(2.04033 0.953177 0)
(2.25815 0.832544 0)
(2.66275 0.508392 0)
(3.03531 0.094525 0)
(3.05458 -0.0231031 0)
(3.00392 -0.00457702 0)
(1.01752 0.0290555 0)
(1.9323 0.744176 0)
(2.12524 0.796779 0)
(1.98363 0.986585 0)
(1.9898 0.971644 0)
(1.86025 1.09516 0)
(1.78366 1.14427 0)
(1.75569 1.14818 0)
(1.75444 1.16347 0)
(1.73406 1.20274 0)
(1.71886 1.19368 0)
(1.86523 1.06637 0)
(2.09734 0.883004 0)
(2.4996 0.578315 0)
(2.98496 0.138032 0)
(3.0744 -0.0295254 0)
(3.00824 -0.0077822 0)
(3.00292 -0.00384521 0)
(3.00121 -0.00218696 0)
(3.00008 -0.000485077 0)
(1.18231 0.746593 0)
(1.83076 1.15815 0)
(1.83555 1.16183 0)
(1.74429 1.18941 0)
(1.71312 1.19792 0)
(1.66274 1.24257 0)
(1.6542 1.2146 0)
(1.72135 1.16595 0)
(1.75158 1.23123 0)
(1.78727 1.14067 0)
(2.27234 0.73752 0)
(2.86208 0.204938 0)
(3.09816 -0.0295617 0)
(3.02082 -0.012622 0)
(3.00464 -0.00554617 0)
(3.00187 -0.00306098 0)
(3.00005 -0.000593699 0)
(2.99998 -2.37537e-05 0)
(2.99999 1.42325e-05 0)
(3 5.86448e-06 0)
(1.58251 1.26073 0)
(1.58722 1.26641 0)
(1.59128 1.27039 0)
(1.59667 1.25976 0)
(1.61195 1.24112 0)
(1.58897 1.26747 0)
(1.89699 1.16031 0)
(2.94931 0.392818 0)
(3.36035 -0.614503 0)
(3 -6.05087e-11 0)
(3 -1.25947e-13 0)
(3 -4.59679e-15 0)
(3 -1.01714e-14 0)
(3 -8.67851e-15 0)
(3 -4.47839e-16 0)
(3 -4.01554e-15 0)
(3 -1.31496e-14 0)
(3 -1.82147e-15 0)
(3 3.1436e-15 0)
(3 -9.47551e-16 0)
(1.58643 1.24983 0)
(1.59618 1.25997 0)
(1.59732 1.27127 0)
(1.59395 1.26749 0)
(1.66637 1.2417 0)
(1.71348 1.23551 0)
(2.28145 0.725655 0)
(2.99879 0.0118675 0)
(3 4.56869e-08 0)
(3 1.30302e-10 0)
(3 -2.48975e-12 0)
(3 2.75166e-14 0)
(3 -6.50552e-16 0)
(3 -1.61637e-15 0)
(3 -2.18093e-15 0)
(3 -7.62313e-16 0)
(3 -1.58555e-15 0)
(3 -1.91042e-15 0)
(3 3.07307e-16 0)
(3 -5.51481e-16 0)
(1.58681 1.25146 0)
(1.60662 1.25549 0)
(1.6114 1.26113 0)
(1.58803 1.29211 0)
(1.73485 1.1998 0)
(2.27045 0.782789 0)
(3.00211 -0.00534422 0)
(3.00009 -0.000400899 0)
(3 6.72224e-07 0)
(3 2.30268e-10 0)
(3 -8.8334e-12 0)
(3 5.27671e-14 0)
(3 -5.88826e-16 0)
(3 -7.83715e-16 0)
(3 -8.33366e-16 0)
(3 -3.50167e-16 0)
(3 -6.10333e-16 0)
(3 -5.41442e-17 0)
(3 1.71191e-16 0)
(3 -7.21801e-16 0)
(1.58556 1.25242 0)
(1.60945 1.25676 0)
(1.62937 1.25976 0)
(1.62119 1.29343 0)
(1.81946 1.11786 0)
(2.7164 0.246038 0)
(3.00494 -0.000886449 0)
(2.99992 7.04413e-05 0)
(3 -8.26953e-07 0)
(3 1.88576e-09 0)
(3 -4.26962e-12 0)
(3 1.0898e-14 0)
(3 -8.52308e-16 0)
(3 3.77349e-16 0)
(3 -3.04435e-16 0)
(3 -3.12863e-16 0)
(3 -5.80065e-16 0)
(3 4.90805e-16 0)
(3 1.46906e-16 0)
(3 -1.93392e-16 0)
(1.58306 1.26644 0)
(1.59986 1.26483 0)
(1.63295 1.25177 0)
(1.75455 1.20674 0)
(2.38202 0.635168 0)
(3.01976 -0.0192981 0)
(2.99975 0.000131793 0)
(3 -4.24985e-06 0)
(3 8.41893e-08 0)
(3 -1.24126e-09 0)
(3 1.23859e-11 0)
(3 -6.63473e-14 0)
(3 -8.5188e-16 0)
(3 1.42234e-16 0)
(3 1.20869e-16 0)
(3 -1.91379e-17 0)
(3 6.07451e-17 0)
(3 2.16345e-16 0)
(3 1.55346e-16 0)
(3 1.40065e-16 0)
(1.58075 1.27887 0)
(1.57731 1.27353 0)
(1.63291 1.2554 0)
(1.81599 1.12805 0)
(2.72562 0.24066 0)
(3 -5.94551e-10 0)
(3 1.41712e-08 0)
(3 -1.27859e-08 0)
(3 5.52545e-10 0)
(3 -3.83286e-12 0)
(3 -8.49407e-14 0)
(3 2.74677e-15 0)
(3 3.84625e-16 0)
(3 5.35097e-16 0)
(3 -5.88519e-16 0)
(3 1.02069e-16 0)
(3 1.69246e-15 0)
(3 1.03924e-15 0)
(3 9.15833e-16 0)
(3 -1.68179e-16 0)
(1.5807 1.29322 0)
(1.54825 1.28827 0)
(1.64753 1.25347 0)
(2.0923 0.877131 0)
(3.00126 0.000746859 0)
(3 -4.33424e-12 0)
(3 -2.03052e-11 0)
(3 2.76524e-11 0)
(3 -3.7213e-12 0)
(3 5.07186e-14 0)
(3 2.27886e-15 0)
(3 6.04917e-16 0)
(3 7.35528e-16 0)
(3 8.78312e-16 0)
(3 1.15095e-16 0)
(3 -3.80244e-16 0)
(3 1.44554e-15 0)
(3 1.81995e-15 0)
(3 2.21962e-15 0)
(3 9.10455e-16 0)
(1.58384 1.32395 0)
(1.51258 1.32749 0)
(1.79348 1.1831 0)
(2.44154 0.538841 0)
(3 -5.5133e-06 0)
(3 2.08618e-12 0)
(3 -5.13183e-14 0)
(3 -3.66231e-14 0)
(3 1.47033e-14 0)
(3 2.56135e-16 0)
(3 1.03628e-15 0)
(3 9.16882e-16 0)
(3 9.74619e-16 0)
(3 6.46871e-16 0)
(3 3.95364e-16 0)
(3 -1.57146e-16 0)
(3 9.45374e-16 0)
(3 2.36589e-15 0)
(3 2.65564e-15 0)
(3 2.04937e-15 0)
(1.5888 1.30717 0)
(1.46152 1.35151 0)
(1.93084 1.04798 0)
(2.85513 0.135122 0)
(3 -2.28489e-08 0)
(3 -7.12351e-13 0)
(3 3.20122e-15 0)
(3 2.58457e-16 0)
(3 6.61294e-16 0)
(3 1.38114e-15 0)
(3 1.06466e-15 0)
(3 9.72464e-16 0)
(3 1.36053e-15 0)
(3 1.24438e-15 0)
(3 8.86621e-16 0)
(3 3.87815e-16 0)
(3 7.69166e-16 0)
(3 2.06958e-15 0)
(3 2.49585e-15 0)
(3 2.58095e-15 0)
(1.60594 1.29589 0)
(1.47693 1.38689 0)
(2.14255 0.83408 0)
(3.01126 -0.0094718 0)
(3 3.35396e-09 0)
(3 1.56907e-13 0)
(3 5.41077e-16 0)
(3 1.8815e-15 0)
(3 2.40516e-15 0)
(3 2.63669e-15 0)
(3 2.30191e-15 0)
(3 2.02242e-15 0)
(3 1.76774e-15 0)
(3 1.28874e-15 0)
(3 6.36334e-16 0)
(3 8.01071e-16 0)
(3 1.37309e-15 0)
(3 2.25874e-15 0)
(3 2.61138e-15 0)
(3 3.03998e-15 0)
(1.6235 1.27964 0)
(1.58025 1.30782 0)
(2.43031 0.523401 0)
(3 -1.46454e-13 0)
(3 -1.43348e-12 0)
(3 -3.70173e-15 0)
(3 4.2702e-17 0)
(3 1.81407e-15 0)
(3 2.32874e-15 0)
(3 2.92413e-15 0)
(3 2.82457e-15 0)
(3 2.31407e-15 0)
(3 1.98017e-15 0)
(3 1.37545e-15 0)
(3 8.80485e-16 0)
(3 4.96382e-16 0)
(3 9.24404e-16 0)
(3 1.96149e-15 0)
(3 2.38373e-15 0)
(3 3.44962e-15 0)
(1.63871 1.26475 0)
(1.63368 1.24443 0)
(2.65193 0.28796 0)
(3 -1.02912e-15 0)
(3 -2.98259e-15 0)
(3 -2.98472e-15 0)
(3 -1.09952e-15 0)
(3 -8.17888e-16 0)
(3 1.14008e-16 0)
(3 2.91449e-15 0)
(3 3.09069e-15 0)
(3 2.4646e-15 0)
(3 1.40765e-15 0)
(3 9.14039e-16 0)
(3 1.01221e-15 0)
(3 5.47879e-16 0)
(3 4.18185e-16 0)
(3 1.0443e-15 0)
(3 1.45657e-15 0)
(3 2.15012e-15 0)
(1.65754 1.24634 0)
(1.8396 1.09671 0)
(2.88097 0.0885419 0)
(3 -1.07998e-14 0)
(3 -3.0034e-15 0)
(3 -3.16481e-15 0)
(3 -2.08475e-15 0)
(3 -1.89895e-15 0)
(3 -1.31417e-15 0)
(3 1.7167e-15 0)
(3 3.04321e-15 0)
(3 2.81028e-15 0)
(3 1.92218e-15 0)
(3 1.5493e-15 0)
(3 1.51975e-15 0)
(3 6.61551e-16 0)
(3 2.33822e-16 0)
(3 1.67323e-16 0)
(3 4.69601e-16 0)
(3 6.93062e-16 0)
(1.6821 1.19541 0)
(1.89977 0.980294 0)
(2.99917 0.000679591 0)
(3 -3.75335e-15 0)
(3 -3.66541e-15 0)
(3 -3.94166e-15 0)
(3 -4.56624e-15 0)
(3 -4.52246e-15 0)
(3 -2.98186e-15 0)
(3 2.74551e-16 0)
(3 2.39194e-15 0)
(3 2.23969e-15 0)
(3 1.54217e-15 0)
(3 1.76534e-15 0)
(3 1.81047e-15 0)
(3 1.32969e-15 0)
(3 5.94625e-16 0)
(3 7.75696e-16 0)
(3 4.06863e-17 0)
(3 -2.22426e-16 0)
(1.70997 1.15993 0)
(2.05176 0.83107 0)
(3 -4.81747e-15 0)
(3 -4.54443e-15 0)
(3 -4.72533e-15 0)
(3 -4.42927e-15 0)
(3 -4.98294e-15 0)
(3 -5.20483e-15 0)
(3 -5.04404e-15 0)
(3 -2.06958e-15 0)
(3 -3.56146e-17 0)
(3 9.21424e-16 0)
(3 1.00445e-15 0)
(3 7.29036e-16 0)
(3 2.53554e-16 0)
(3 -3.14698e-16 0)
(3 -4.87967e-16 0)
(3 -2.90672e-16 0)
(3 -2.23702e-16 0)
(3 -2.16227e-16 0)
(1.72776 1.11037 0)
(2.19254 0.666916 0)
(3 -4.72536e-15 0)
(3 -3.43278e-15 0)
(3 -3.37977e-15 0)
(3 -3.06104e-15 0)
(3 -3.12186e-15 0)
(3 -3.86482e-15 0)
(3 -5.12569e-15 0)
(3 -5.0272e-15 0)
(3 -3.58035e-15 0)
(3 -1.43159e-15 0)
(3 -4.75845e-16 0)
(3 -1.19109e-16 0)
(3 1.2767e-16 0)
(3 -7.74262e-17 0)
(3 -4.32863e-16 0)
(3 -6.0952e-16 0)
(3 -1.15616e-15 0)
(3 -1.64698e-15 0)
(1.84362 1.02177 0)
(2.44705 0.447207 0)
(3 -3.54266e-15 0)
(3 -2.90365e-15 0)
(3 -3.29372e-15 0)
(3 -3.24507e-15 0)
(3 -4.01127e-15 0)
(3 -4.50001e-15 0)
(3 -3.78543e-15 0)
(3 -3.36679e-15 0)
(3 -1.93982e-15 0)
(3 -2.21098e-16 0)
(3 2.99104e-16 0)
(3 8.69999e-16 0)
(3 1.11904e-15 0)
(3 1.00598e-15 0)
(3 2.24597e-16 0)
(3 7.24426e-17 0)
(3 -1.77816e-16 0)
(3 -2.57375e-16 0)
(1.96097 0.86443 0)
(2.7415 0.187816 0)
(3 -4.37308e-15 0)
(3 -4.39827e-15 0)
(3 -4.57604e-15 0)
(3 -4.38548e-15 0)
(3 -4.4648e-15 0)
(3 -4.68522e-15 0)
(3 -4.70922e-15 0)
(3 -4.63107e-15 0)
(3 -4.08878e-15 0)
(3 -2.14287e-15 0)
(3 -9.02663e-16 0)
(3 1.50557e-16 0)
(3 1.19219e-15 0)
(3 1.50736e-15 0)
(3 1.96553e-15 0)
(3 1.56723e-15 0)
(3 9.13324e-16 0)
(3 1.08411e-15 0)
(2.08623 0.643478 0)
(2.99314 0.00013329 0)
(3 -6.09392e-15 0)
(3 -8.22688e-15 0)
(3 -7.95055e-15 0)
(3 -7.39606e-15 0)
(3 -6.86947e-15 0)
(3 -6.28981e-15 0)
(3 -6.00013e-15 0)
(3 -6.0089e-15 0)
(3 -6.22441e-15 0)
(3 -6.61348e-15 0)
(3 -6.5721e-15 0)
(3 -5.33538e-15 0)
(3 -2.31641e-15 0)
(3 6.19587e-16 0)
(3 1.54731e-15 0)
(3 1.97809e-15 0)
(3 1.50563e-15 0)
(3 1.38903e-15 0)
(1.99155 0.379475 0)
(2.99986 -2.83641e-05 0)
(3 -6.37548e-15 0)
(3 -7.47392e-15 0)
(3 -6.80843e-15 0)
(3 -5.96725e-15 0)
(3 -4.49479e-15 0)
(3 -2.86597e-15 0)
(3 -1.73502e-15 0)
(3 -2.25692e-15 0)
(3 -2.57362e-15 0)
(3 -2.54823e-15 0)
(3 -2.36138e-15 0)
(3 -2.01872e-15 0)
(3 -1.50314e-15 0)
(3 -2.05104e-16 0)
(3 2.93902e-16 0)
(3 3.30839e-16 0)
(3 3.85932e-16 0)
(3 4.35271e-16 0)
(1.99155 -0.379475 0)
(2.99986 2.83639e-05 0)
(3 -5.72358e-15 0)
(3 -5.56075e-15 0)
(3 -4.25909e-15 0)
(3 -2.56513e-15 0)
(3 -1.76359e-15 0)
(3 -1.21542e-15 0)
(3 -3.14619e-16 0)
(3 9.75474e-16 0)
(3 1.0298e-15 0)
(3 4.76633e-16 0)
(3 7.48777e-16 0)
(3 6.9294e-16 0)
(3 -1.27759e-16 0)
(3 -1.41076e-15 0)
(3 -2.29344e-15 0)
(3 -1.82151e-15 0)
(3 -1.44198e-15 0)
(3 -1.1412e-15 0)
(2.08623 -0.643478 0)
(2.99314 -0.00013329 0)
(3 -2.42406e-15 0)
(3 -1.65691e-15 0)
(3 -2.14913e-15 0)
(3 -8.29603e-16 0)
(3 -1.0909e-15 0)
(3 -1.26555e-15 0)
(3 -4.85409e-16 0)
(3 1.75752e-17 0)
(3 5.8684e-17 0)
(3 1.04257e-16 0)
(3 1.38088e-16 0)
(3 -4.19639e-16 0)
(3 -1.13668e-15 0)
(3 -2.05921e-15 0)
(3 -1.92561e-15 0)
(3 -1.92277e-15 0)
(3 -1.88174e-15 0)
(3 -1.69977e-15 0)
(1.96097 -0.86443 0)
(2.7415 -0.187816 0)
(3 9.134e-17 0)
(3 1.39436e-15 0)
(3 -1.23569e-15 0)
(3 -8.71215e-16 0)
(3 -3.33792e-16 0)
(3 -5.57692e-16 0)
(3 -3.62303e-16 0)
(3 -1.2161e-15 0)
(3 -1.33791e-15 0)
(3 -1.19289e-15 0)
(3 -1.29926e-15 0)
(3 -1.18278e-15 0)
(3 -1.43944e-15 0)
(3 -1.56821e-15 0)
(3 -1.67466e-15 0)
(3 -1.48861e-15 0)
(3 -1.13721e-15 0)
(3 -1.13982e-15 0)
(1.84362 -1.02177 0)
(2.44705 -0.447207 0)
(3 4.59738e-15 0)
(3 4.36752e-15 0)
(3 3.82796e-15 0)
(3 2.48926e-15 0)
(3 1.74665e-15 0)
(3 8.68729e-16 0)
(3 2.18162e-16 0)
(3 2.82564e-16 0)
(3 1.08357e-16 0)
(3 4.88466e-16 0)
(3 8.67166e-16 0)
(3 1.77142e-15 0)
(3 1.82409e-15 0)
(3 8.82426e-16 0)
(3 -5.03089e-17 0)
(3 -5.32832e-16 0)
(3 -5.40151e-16 0)
(3 -5.39756e-16 0)
(1.72776 -1.11037 0)
(2.19254 -0.666916 0)
(3 4.55507e-15 0)
(3 4.94659e-15 0)
(3 4.76403e-15 0)
(3 4.44062e-15 0)
(3 5.31076e-15 0)
(3 5.72957e-15 0)
(3 5.36479e-15 0)
(3 4.53624e-15 0)
(3 2.91644e-15 0)
(3 2.50621e-15 0)
(3 2.46111e-15 0)
(3 1.96219e-15 0)
(3 7.79462e-16 0)
(3 1.63791e-16 0)
(3 -3.37689e-16 0)
(3 -5.72271e-17 0)
(3 5.97807e-16 0)
(3 1.98834e-16 0)
(1.70997 -1.15993 0)
(2.05176 -0.83107 0)
(3 5.09155e-15 0)
(3 4.33655e-15 0)
(3 4.30946e-15 0)
(3 4.18763e-15 0)
(3 4.6332e-15 0)
(3 4.74679e-15 0)
(3 4.84206e-15 0)
(3 4.53375e-15 0)
(3 3.83024e-15 0)
(3 3.50005e-15 0)
(3 3.08355e-15 0)
(3 1.282e-15 0)
(3 -1.01803e-15 0)
(3 -1.45981e-15 0)
(3 -1.15217e-15 0)
(3 -9.10887e-16 0)
(3 -8.38645e-16 0)
(3 -1.1626e-15 0)
(1.6821 -1.19541 0)
(1.89977 -0.980294 0)
(2.99917 -0.00067955 0)
(3 5.49025e-15 0)
(3 4.03594e-15 0)
(3 2.83763e-15 0)
(3 2.23653e-15 0)
(3 1.94536e-15 0)
(3 2.06798e-15 0)
(3 2.06668e-15 0)
(3 1.93126e-15 0)
(3 1.13962e-15 0)
(3 -1.71962e-17 0)
(3 -8.5264e-16 0)
(3 -1.03291e-15 0)
(3 -3.96796e-16 0)
(3 -7.91472e-17 0)
(3 3.41128e-16 0)
(3 3.66619e-16 0)
(3 8.14334e-16 0)
(1.65754 -1.24635 0)
(1.8396 -1.09671 0)
(2.88097 -0.0885418 0)
(3 1.30875e-14 0)
(3 4.59906e-15 0)
(3 2.99178e-15 0)
(3 2.03457e-15 0)
(3 1.83591e-15 0)
(3 2.19834e-15 0)
(3 2.22885e-15 0)
(3 1.59356e-15 0)
(3 8.4014e-16 0)
(3 9.06654e-17 0)
(3 1.09856e-16 0)
(3 7.61536e-16 0)
(3 1.34553e-15 0)
(3 8.25294e-16 0)
(3 7.47591e-16 0)
(3 5.88959e-16 0)
(3 -1.86584e-16 0)
(1.63871 -1.26475 0)
(1.63368 -1.24443 0)
(2.65193 -0.28796 0)
(3 3.49029e-15 0)
(3 4.63e-15 0)
(3 4.99161e-15 0)
(3 2.49374e-15 0)
(3 2.72117e-15 0)
(3 3.3619e-15 0)
(3 3.50697e-15 0)
(3 3.68134e-15 0)
(3 1.76245e-15 0)
(3 2.21762e-16 0)
(3 7.89536e-16 0)
(3 1.44634e-15 0)
(3 1.45772e-16 0)
(3 -3.89762e-16 0)
(3 -1.18516e-16 0)
(3 -3.16604e-16 0)
(3 -1.06761e-15 0)
(1.6235 -1.27964 0)
(1.58025 -1.30782 0)
(2.43031 -0.523401 0)
(3 1.49055e-13 0)
(3 1.43727e-12 0)
(3 6.97762e-15 0)
(3 4.69013e-15 0)
(3 4.20971e-15 0)
(3 3.91992e-15 0)
(3 2.81094e-15 0)
(3 2.06177e-15 0)
(3 9.19609e-16 0)
(3 -4.38456e-16 0)
(3 4.86299e-17 0)
(3 3.19797e-16 0)
(3 -1.26176e-15 0)
(3 -1.49969e-15 0)
(3 -9.1761e-16 0)
(3 -1.2105e-15 0)
(3 -1.91922e-15 0)
(1.60594 -1.29589 0)
(1.47693 -1.38689 0)
(2.14255 -0.834079 0)
(3.01126 0.0094718 0)
(3 -3.35395e-09 0)
(3 -1.50753e-13 0)
(3 5.38701e-15 0)
(3 4.79874e-15 0)
(3 3.62223e-15 0)
(3 1.34388e-15 0)
(3 -1.15698e-16 0)
(3 -1.55932e-15 0)
(3 -1.44438e-15 0)
(3 -1.12193e-15 0)
(3 -1.51996e-15 0)
(3 -2.48719e-15 0)
(3 -2.80556e-15 0)
(3 -1.85215e-15 0)
(3 -2.45764e-15 0)
(3 -2.8275e-15 0)
(1.5888 -1.30717 0)
(1.46152 -1.35151 0)
(1.93084 -1.04798 0)
(2.85513 -0.135122 0)
(3 2.28487e-08 0)
(3 7.15152e-13 0)
(3 6.17611e-16 0)
(3 4.58622e-15 0)
(3 3.0658e-15 0)
(3 -6.05148e-17 0)
(3 -1.6277e-15 0)
(3 -4.3218e-15 0)
(3 -3.80038e-15 0)
(3 -3.57256e-15 0)
(3 -3.52936e-15 0)
(3 -4.23619e-15 0)
(3 -3.43413e-15 0)
(3 -2.45018e-15 0)
(3 -3.29126e-15 0)
(3 -3.27702e-15 0)
(1.58384 -1.32395 0)
(1.51258 -1.32749 0)
(1.79348 -1.1831 0)
(2.44154 -0.538841 0)
(3 5.51326e-06 0)
(3 -2.08381e-12 0)
(3 5.29107e-14 0)
(3 4.00026e-14 0)
(3 -1.25986e-14 0)
(3 8.62125e-16 0)
(3 -2.85887e-15 0)
(3 -4.1279e-15 0)
(3 -5.0532e-15 0)
(3 -4.8381e-15 0)
(3 -3.87005e-15 0)
(3 -3.10654e-15 0)
(3 -2.57635e-15 0)
(3 -1.89931e-15 0)
(3 -2.64106e-15 0)
(3 -2.72527e-15 0)
(1.5807 -1.29322 0)
(1.54825 -1.28827 0)
(1.64753 -1.25347 0)
(2.09231 -0.877129 0)
(3.00127 -0.000746384 0)
(3 4.33235e-12 0)
(3 2.03042e-11 0)
(3 -2.76502e-11 0)
(3 3.72426e-12 0)
(3 -4.83663e-14 0)
(3 -2.85165e-15 0)
(3 -3.32454e-15 0)
(3 -4.04846e-15 0)
(3 -4.11351e-15 0)
(3 -2.83585e-15 0)
(3 -2.33295e-15 0)
(3 -2.26862e-15 0)
(3 -1.55348e-15 0)
(3 -2.58339e-15 0)
(3 -2.45525e-15 0)
(1.58075 -1.27887 0)
(1.57731 -1.27353 0)
(1.63291 -1.2554 0)
(1.81599 -1.12805 0)
(2.72562 -0.24066 0)
(3 5.94552e-10 0)
(3 -1.41712e-08 0)
(3 1.27859e-08 0)
(3 -5.52542e-10 0)
(3 3.83459e-12 0)
(3 8.54225e-14 0)
(3 -4.784e-15 0)
(3 -2.52106e-15 0)
(3 -2.82786e-15 0)
(3 -1.22162e-15 0)
(3 -2.40332e-15 0)
(3 -2.51676e-15 0)
(3 -1.4678e-15 0)
(3 -1.99635e-15 0)
(3 -2.25231e-15 0)
(1.58306 -1.26644 0)
(1.59985 -1.26483 0)
(1.63295 -1.25177 0)
(1.75455 -1.20674 0)
(2.38202 -0.635168 0)
(3.01976 0.0192981 0)
(2.99975 -0.000131793 0)
(3 4.24986e-06 0)
(3 -8.41894e-08 0)
(3 1.24128e-09 0)
(3 -1.23528e-11 0)
(3 7.12483e-14 0)
(3 -1.56287e-15 0)
(3 -1.59468e-15 0)
(3 -1.85454e-15 0)
(3 -1.64407e-15 0)
(3 -2.62258e-15 0)
(3 -5.7628e-16 0)
(3 -1.57693e-15 0)
(3 -1.60527e-15 0)
(1.58556 -1.25242 0)
(1.60945 -1.25676 0)
(1.62937 -1.25976 0)
(1.62119 -1.29343 0)
(1.81946 -1.11786 0)
(2.7164 -0.246037 0)
(3.00494 0.000886467 0)
(2.99992 -7.04417e-05 0)
(3 8.26956e-07 0)
(3 -1.88583e-09 0)
(3 4.17954e-12 0)
(3 -1.47053e-14 0)
(3 -1.28299e-16 0)
(3 -1.33297e-15 0)
(3 -1.67763e-15 0)
(3 8.80365e-17 0)
(3 -1.81275e-15 0)
(3 -1.17826e-15 0)
(3 -1.65556e-15 0)
(3 -4.61821e-16 0)
(1.58681 -1.25146 0)
(1.60662 -1.25549 0)
(1.6114 -1.26113 0)
(1.58803 -1.29211 0)
(1.73485 -1.1998 0)
(2.27045 -0.782789 0)
(3.00211 0.00534413 0)
(3.00009 0.000400903 0)
(3 -6.72226e-07 0)
(3 -2.30231e-10 0)
(3 8.84483e-12 0)
(3 -5.93914e-14 0)
(3 9.40064e-16 0)
(3 -7.22785e-16 0)
(3 -1.14682e-15 0)
(3 -3.43186e-17 0)
(3 5.35845e-16 0)
(3 -7.50278e-16 0)
(3 -2.09156e-15 0)
(3 -5.50098e-16 0)
(1.58643 -1.24983 0)
(1.59618 -1.25997 0)
(1.59732 -1.27127 0)
(1.59395 -1.26749 0)
(1.66637 -1.2417 0)
(1.71348 -1.23551 0)
(2.28145 -0.725655 0)
(2.99879 -0.0118672 0)
(3 -4.56869e-08 0)
(3 -1.30276e-10 0)
(3 2.56421e-12 0)
(3 -3.14681e-14 0)
(3 -2.27411e-15 0)
(3 -4.92446e-16 0)
(3 -8.55456e-16 0)
(3 -6.87477e-16 0)
(3 3.82631e-16 0)
(3 4.34962e-16 0)
(3 -4.06485e-16 0)
(3 -3.42322e-16 0)
(1.58251 -1.26073 0)
(1.58722 -1.26641 0)
(1.59128 -1.27039 0)
(1.59667 -1.25976 0)
(1.61195 -1.24112 0)
(1.58897 -1.26747 0)
(1.89699 -1.16031 0)
(2.94931 -0.392819 0)
(3.36036 0.614508 0)
(3 6.05162e-11 0)
(3 1.30835e-13 0)
(3 1.6586e-15 0)
(3 5.83326e-15 0)
(3 4.44001e-15 0)
(3 -2.6493e-15 0)
(3 6.87189e-16 0)
(3 1.08451e-14 0)
(3 3.64686e-16 0)
(3 -7.07342e-15 0)
(3 -1.94226e-15 0)
(1.18221 -0.746734 0)
(1.83078 -1.15811 0)
(1.83556 -1.1618 0)
(1.74427 -1.18942 0)
(1.71314 -1.19791 0)
(1.66275 -1.24255 0)
(1.65421 -1.2146 0)
(1.72136 -1.16595 0)
(1.75157 -1.23123 0)
(1.78726 -1.14068 0)
(2.27233 -0.737527 0)
(2.86207 -0.204942 0)
(3.09816 0.0295611 0)
(3.02082 0.0126219 0)
(3.00464 0.00554619 0)
(3.00187 0.003061 0)
(3.00005 0.000593691 0)
(2.99998 2.37525e-05 0)
(2.99999 -1.42328e-05 0)
(3 -5.86452e-06 0)
(1.01749 -0.0291311 0)
(1.93236 -0.744171 0)
(2.12513 -0.797024 0)
(1.98377 -0.986387 0)
(1.98963 -0.971779 0)
(1.86036 -1.09513 0)
(1.7837 -1.14427 0)
(1.75569 -1.14819 0)
(1.75444 -1.16347 0)
(1.73406 -1.20275 0)
(1.71886 -1.19368 0)
(1.86523 -1.06637 0)
(2.09734 -0.883004 0)
(2.4996 -0.578313 0)
(2.98496 -0.138033 0)
(3.0744 0.0295247 0)
(3.00824 0.00778224 0)
(3.00292 0.00384527 0)
(3.00121 0.00218699 0)
(3.00008 0.000485084 0)
(0.9594 -0.013053 0)
(1.90252 -0.351268 0)
(2.21793 -0.539012 0)
(2.26114 -0.454088 0)
(2.19321 -0.689602 0)
(2.15817 -0.754307 0)
(2.04554 -0.887754 0)
(1.95979 -0.971605 0)
(1.90839 -1.03413 0)
(1.8477 -1.12386 0)
(1.79037 -1.15567 0)
(1.79268 -1.15055 0)
(1.81012 -1.13097 0)
(1.84917 -1.08919 0)
(2.04034 -0.95317 0)
(2.25817 -0.832534 0)
(2.66275 -0.508387 0)
(3.03531 -0.0945252 0)
(3.05458 0.0231026 0)
(3.00392 0.00457706 0)
(1.07076 0.98261 0)
(1.55291 1.36788 0)
(2.22242 0.827319 0)
(2.32705 -0.404871 0)
(2.37368 -0.172039 0)
(2.37595 -0.31996 0)
(2.27666 -0.56686 0)
(2.20472 -0.660104 0)
(2.14198 -0.74794 0)
(2.09072 -0.879642 0)
(1.98083 -0.99407 0)
(1.92104 -1.05811 0)
(1.88284 -1.08468 0)
(1.86844 -1.09447 0)
(1.86962 -1.06055 0)
(1.89592 -1.05149 0)
(1.96248 -1.0226 0)
(2.16726 -0.902708 0)
(2.38709 -0.788312 0)
(2.78337 -0.43555 0)
(1.38584 1.54293 0)
(1.45581 1.94219 0)
(2.03588 1.38593 0)
(2.28153 0.882268 0)
(2.42251 0.332803 0)
(2.42545 -0.205962 0)
(2.48865 -0.0596649 0)
(2.37828 -0.391202 0)
(2.33495 -0.480039 0)
(2.29322 -0.632905 0)
(2.20298 -0.778862 0)
(2.12501 -0.883972 0)
(2.07049 -0.936381 0)
(2.01599 -0.988036 0)
(1.98118 -0.983798 0)
(1.9551 -0.992786 0)
(1.95555 -1.01365 0)
(1.97188 -0.99289 0)
(1.99686 -0.992783 0)
(2.07169 -0.976597 0)
(1.47536 1.53122 0)
(1.72745 2.34739 0)
(2.22411 1.50979 0)
(2.02638 1.60046 0)
(2.27946 0.981472 0)
(2.49762 0.766105 0)
(2.49687 0.161654 0)
(2.48371 0.0217102 0)
(2.43738 -0.154886 0)
(2.44778 -0.263298 0)
(2.39489 -0.437311 0)
(2.33945 -0.568237 0)
(2.28652 -0.659901 0)
(2.22626 -0.740508 0)
(2.17615 -0.777018 0)
(2.13139 -0.806814 0)
(2.08133 -0.861209 0)
(2.0623 -0.890129 0)
(2.03377 -0.93398 0)
(2.05916 -0.955189 0)
(1.37555 1.33409 0)
(1.81703 1.8751 0)
(2.46158 1.70907 0)
(2.08568 1.8728 0)
(2.22898 1.39631 0)
(2.34677 1.32909 0)
(2.43685 0.698523 0)
(2.43957 0.655045 0)
(2.45981 0.384775 0)
(2.50237 0.2468 0)
(2.51388 0.0332959 0)
(2.48102 -0.174868 0)
(2.46096 -0.307866 0)
(2.41001 -0.439168 0)
(2.34798 -0.559409 0)
(2.31532 -0.605928 0)
(2.24372 -0.693502 0)
(2.20658 -0.730823 0)
(2.1726 -0.774078 0)
(2.14447 -0.786039 0)
(1.35364 1.17143 0)
(1.70135 1.35803 0)
(2.10276 1.71662 0)
(2.19842 2.11359 0)
(2.33651 1.68146 0)
(2.42977 1.45312 0)
(2.43474 1.18261 0)
(2.5126 0.818898 0)
(2.54167 0.698215 0)
(2.58007 0.437431 0)
(2.6189 0.247767 0)
(2.59663 0.0216386 0)
(2.59218 -0.134902 0)
(2.54216 -0.300621 0)
(2.48917 -0.424606 0)
(2.45468 -0.463345 0)
(2.39792 -0.526031 0)
(2.37966 -0.498558 0)
(2.32055 -0.559022 0)
(2.32132 -0.524557 0)
(1.36549 1.1018 0)
(1.5762 1.18166 0)
(1.83772 1.6132 0)
(2.02541 2.05363 0)
(2.38243 1.97166 0)
(2.68806 1.44389 0)
(2.75851 1.38169 0)
(2.76357 0.774402 0)
(2.74438 0.696093 0)
(2.69991 0.410769 0)
(2.70501 0.30093 0)
(2.68575 0.133485 0)
(2.68113 0.0367104 0)
(2.64426 -0.0896321 0)
(2.60873 -0.157741 0)
(2.57489 -0.179344 0)
(2.53894 -0.201329 0)
(2.51943 -0.203692 0)
(2.4435 -0.334667 0)
(2.45951 -0.306203 0)
(1.39087 1.12566 0)
(1.52621 1.15036 0)
(1.64657 1.57533 0)
(1.76775 1.92638 0)
(1.966 1.95055 0)
(2.4266 1.5403 0)
(2.75184 1.59337 0)
(2.67431 1.13102 0)
(2.64561 1.03606 0)
(2.64097 0.915486 0)
(2.66183 0.772026 0)
(2.67107 0.583789 0)
(2.66646 0.492588 0)
(2.66978 0.378244 0)
(2.64495 0.254768 0)
(2.63512 0.195723 0)
(2.61678 0.0984727 0)
(2.59578 -0.00871302 0)
(2.54631 -0.154845 0)
(2.57026 -0.1246 0)
(1.43114 1.24329 0)
(1.51129 1.29456 0)
(1.54903 1.68591 0)
(1.65774 1.94062 0)
(1.81905 1.93193 0)
(2.12829 1.714 0)
(2.24634 1.85319 0)
(2.37762 1.6298 0)
(2.37215 1.41609 0)
(2.40843 1.32833 0)
(2.48305 1.15261 0)
(2.54621 0.997502 0)
(2.57564 0.811443 0)
(2.64693 0.709255 0)
(2.65305 0.492219 0)
(2.69277 0.376846 0)
(2.6907 0.199812 0)
(2.67654 0.0635085 0)
(2.6432 0.001745 0)
(2.62207 -0.01361 0)
(1.53608 1.40027 0)
(1.57724 1.50908 0)
(1.55561 1.84594 0)
(1.64108 2.00984 0)
(1.81012 1.96975 0)
(1.95433 1.92369 0)
(2.05488 1.85617 0)
(2.1549 1.77276 0)
(2.28227 1.47492 0)
(2.35599 1.4414 0)
(2.47418 1.24564 0)
(2.57719 1.14056 0)
(2.6269 0.861604 0)
(2.72723 0.769924 0)
(2.73268 0.503408 0)
(2.76295 0.404838 0)
(2.7637 0.274859 0)
(2.74388 0.219883 0)
(2.71883 0.285365 0)
(2.68241 0.21905 0)
(1.71111 1.53094 0)
(1.74071 1.66186 0)
(1.64973 2.01993 0)
(1.681 2.13371 0)
(1.84927 2.01524 0)
(1.93518 2.0057 0)
(2.0995 1.81891 0)
(2.17418 1.79832 0)
(2.35811 1.4911 0)
(2.47735 1.51971 0)
(2.60219 1.30667 0)
(2.70476 1.129 0)
(2.72966 0.932098 0)
(2.77051 0.858036 0)
(2.79838 0.709064 0)
(2.79854 0.720575 0)
(2.78537 0.629724 0)
(2.75069 0.611751 0)
(2.73282 0.651483 0)
(2.70642 0.500656 0)
(1.82474 1.60453 0)
(1.97488 1.66244 0)
(1.80179 2.13487 0)
(1.77208 2.20561 0)
(1.95155 2.11916 0)
(2.03669 2.10448 0)
(2.22253 1.8194 0)
(2.27195 1.88001 0)
(2.41958 1.78631 0)
(2.50661 1.65292 0)
(2.54243 1.58407 0)