/*--------------------------------*- C++ -*----------------------------------*\
  =========                 |
  \\      /  F ield         | OpenFOAM: The Open Source CFD Toolbox
   \\    /   O peration     | Website:  https://openfoam.org
    \\  /    A nd           | Version:  7
     \\/     M anipulation  |
\*---------------------------------------------------------------------------*/
FoamFile
{
    version     2.0;
    format      ascii;
    class       volScalarField;
    location    "5.5";
    object      p;
}
// * * * * * * * * * * * * * * * * * * * * * * * * * * * * * * * * * * * * * //

dimensions      [1 -1 -2 0 0 0 0];

internalField   nonuniform List<scalar> 
3700
(
0.0993173
0.188065
0.220087
0.278902
0.313882
0.337093
0.370257
0.425622
0.45385
0.447769
0.457845
0.472829
0.476447
0.492966
0.504347
0.494344
0.507522
0.521675
0.528097
0.528235
0.0780166
0.087437
0.10754
0.135898
0.134411
0.137902
0.152135
0.176991
0.183497
0.165313
0.135015
0.135295
0.155877
0.18479
0.196898
0.199433
0.206747
0.21831
0.235531
0.226402
0.0848748
0.0849264
0.0886821
0.0813568
0.06819
0.0606969
0.0536478
0.053229
0.0540728
0.0572482
0.0602436
0.066655
0.0755555
0.087425
0.0994997
0.110224
0.118801
0.12284
0.125672
0.126304
0.0927451
0.084257
0.0748145
0.0651786
0.0611145
0.0613313
0.0656248
0.072588
0.0776276
0.0875251
0.0816309
0.0850618
0.089419
0.0995892
0.112429
0.127476
0.144872
0.16151
0.176764
0.186368
0.101654
0.0745489
0.0584123
0.0531632
0.0559018
0.0598581
0.0690163
0.0866874
0.102693
0.115301
0.121986
0.130992
0.125537
0.125686
0.126616
0.135649
0.155022
0.181967
0.208237
0.242368
0.111385
0.0663099
0.0480921
0.0462846
0.0492762
0.0537124
0.0658325
0.0863394
0.10853
0.128637
0.15019
0.165316
0.179276
0.190162
0.190403
0.189664
0.19403
0.207704
0.237589
0.301106
0.111084
0.0582656
0.0433646
0.0450386
0.0482893
0.0525207
0.0629825
0.0817422
0.104519
0.130306
0.163838
0.185677
0.215612
0.240906
0.262306
0.278154
0.29167
0.301766
0.31683
0.379192
0.104938
0.0533565
0.0431427
0.0483191
0.0527876
0.0600574
0.0757023
0.0929409
0.108712
0.129013
0.163948
0.194776
0.239963
0.279403
0.318307
0.360207
0.395323
0.431366
0.453037
0.529269
0.094603
0.049412
0.0439548
0.0536805
0.0616413
0.083492
0.117527
0.142004
0.161106
0.179184
0.194024
0.220622
0.264919
0.317033
0.371737
0.43529
0.501285
0.571489
0.620315
0.736445
0.0753592
0.0424031
0.039012
0.0493542
0.0635957
0.0938325
0.144622
0.183226
0.224548
0.272018
0.308971
0.349678
0.388848
0.436045
0.481036
0.542981
0.630458
0.731648
0.836613
0.970897
0.0554402
0.0340416
0.0313166
0.0403327
0.0605709
0.0932589
0.146888
0.191231
0.257629
0.345049
0.417929
0.489669
0.564931
0.635422
0.696122
0.766727
0.850212
0.94763
1.1538
1.14591
0.0409152
0.0266016
0.0245802
0.0376601
0.0605215
0.0908029
0.137114
0.181061
0.267875
0.396076
0.515889
0.631266
0.752835
0.852915
0.965683
1.08518
1.2054
1.32155
1.5369
1.50024
0.0310324
0.0201147
0.0190872
0.0352774
0.0628152
0.128511
0.194694
0.284764
0.430676
0.579277
0.733799
0.872135
1.01493
1.14308
1.3081
1.49653
1.68267
1.85099
2.09528
2.07849
0.0243786
0.0157642
0.0156191
0.0350097
0.100514
0.266207
0.407203
0.588544
0.808401
1.02076
1.19676
1.34961
1.50289
1.65226
1.84872
2.08399
2.33427
2.59145
2.80095
2.99555
0.0171314
0.0141059
0.0151137
0.0755028
0.232874
0.439487
0.650114
0.909359
1.21466
1.52397
1.75607
1.97137
2.18508
2.41625
2.70729
2.99481
3.27845
3.52476
3.66188
3.77865
0.00762249
0.0170726
0.0480079
0.200591
0.442774
0.68569
1.01279
1.41049
1.87116
2.26537
2.55837
2.83392
3.10848
3.41115
3.73708
3.95961
4.09872
4.14293
4.04987
3.92053
0.0064672
0.0426236
0.172493
0.415913
0.855877
1.42026
1.97694
2.55422
3.16351
3.56203
3.78486
4.00612
4.20652
4.36875
4.47049
4.39829
4.18444
3.65595
2.80019
1.89614
0.0401365
0.173558
0.53874
1.17981
2.05334
2.87461
3.56771
4.27277
4.80188
4.84466
4.75568
4.72756
4.68278
4.52107
4.0199
3.06825
2.09689
1.33648
1.0192
0.992862
0.303442
0.85648
1.92755
3.14416
4.25237
4.89962
5.43699
5.87787
5.73944
5.29524
4.86455
4.32335
3.40153
2.32836
1.42576
1.0292
0.989328
0.994891
0.9973
0.999434
2.31043
3.63005
4.8791
5.72345
6.29274
6.44458
6.56668
6.22906
4.52824
3.20013
2.36748
1.56466
1.08221
0.987516
0.99296
0.996354
0.999183
0.999975
1.00002
1.00001
6.93864
6.89353
6.83939
6.92654
7.06774
6.80064
5.98933
2.28798
0.654886
1
1
1
1
1
1
1
1
1
1
1
6.93478
6.87168
6.76287
6.71397
6.79143
5.80691
2.68013
1.02597
1
1
1
1
1
1
1
1
1
1
1
1
6.81204
6.85264
6.82592
6.67117
6.23389
3.41331
1.05219
0.998869
1
1
1
1
1
1
1
1
1
1
1
1
6.65205
6.79704
6.82201
6.67148
4.70158
1.41373
0.993335
1.00013
0.999999
1
1
1
1
1
1
1
1
1
1
1
6.52828
6.75289
6.78353
6.11404
2.64105
0.976475
1.00035
0.999994
1
1
1
1
1
1
1
1
1
1
1
1
6.46468
6.75719
6.7316
4.92125
1.49539
1
1
1
1
1
1
1
1
1
1
1
1
1
1
1
6.42836
6.80006
6.7401
3.57816
0.974902
1
1
1
1
1
1
1
1
1
1
1
1
1
1
1
6.50945
6.66919
6.04462
2.02163
0.999995
1
1
1
1
1
1
1
1
1
1
1
1
1
1
1
6.95844
6.60485
4.8648
1.22659
1
1
1
1
1
1
1
1
1
1
1
1
1
1
1
1
7.28366
6.41808
3.42749
0.987708
1
1
1
1
1
1
1
1
1
1
1
1
1
1
1
1
7.45065
5.97656
2.28868
1
1
1
1
1
1
1
1
1
1
1
1
1
1
1
1
1
7.5131
5.36556
1.60225
1
1
1
1
1
1
1
1
1
1
1
1
1
1
1
1
1
7.54498
4.7554
1.16552
1
1
1
1
1
1
1
1
1
1
1
1
1
1
1
1
1
7.34977
4.02619
1.01343
1
1
1
1
1
1
1
1
1
1
1
1
1
1
1
1
1
7.17574
3.25683
1
1
1
1
1
1
1
1
1
1
1
1
1
1
1
1
1
1
7.03759
2.47335
1
1
1
1
1
1
1
1
1
1
1
1
1
1
1
1
1
1
6.60646
1.85429
1
1
1
1
1
1
1
1
1
1
1
1
1
1
1
1
1
1
6.31813
1.37171
1
1
1
1
1
1
1
1
1
1
1
1
1
1
1
1
1
1
5.76148
1.00615
1
1
1
1
1
1
1
1
1
1
1
1
1
1
1
1
1
1
4.63313
1.00008
1
1
1
1
1
1
1
1
1
1
1
1
1
1
1
1
1
1
4.63222
1.00008
1
1
1
1
1
1
1
1
1
1
1
1
1
1
1
1
1
1
5.75313
1.00625
1
1
1
1
1
1
1
1
1
1
1
1
1
1
1
1
1
1
6.32806
1.37479
1
1
1
1
1
1
1
1
1
1
1
1
1
1
1
1
1
1
6.60416
1.86102
1
1
1
1
1
1
1
1
1
1
1
1
1
1
1
1
1
1
7.02402
2.47013
1
1
1
1
1
1
1
1
1
1
1
1
1
1
1
1
1
1
7.18828
3.24465
1
1
1
1
1
1
1
1
1
1
1
1
1
1
1
1
1
1
7.3471
4.03078
1.01661
1
1
1
1
1
1
1
1
1
1
1
1
1
1
1
1
1
7.53995
4.75962
1.16917
1
1
1
1
1
1
1
1
1
1
1
1
1
1
1
1
1
7.51077
5.37122
1.60303
1
1
1
1
1
1
1
1
1
1
1
1
1
1
1
1
1
7.44812
5.9672
2.29313
1
1
1
1
1
1
1
1
1
1
1
1
1
1
1
1
1
7.28869
6.4263
3.41904
0.987753
1
1
1
1
1
1
1
1
1
1
1
1
1
1
1
1
6.95979
6.6054
4.86385
1.22733
1
1
1
1
1
1
1
1
1
1
1
1
1
1
1
1
6.50307
6.65545
6.03193
2.02191
0.999991
1
1
1
1
1
1
1
1
1
1
1
1
1
1
1
6.43091
6.79924
6.74471
3.57005
0.974243
1
1
1
1
1
1
1
1
1
1
1
1
1
1
1
6.47114
6.77358
6.74424
4.92339
1.50058
1
1
1
1
1
1
1
1
1
1
1
1
1
1
1
6.53548
6.75761
6.78881
6.09649
2.65176
0.976374
1.00035
0.999994
1
1
1
1
1
1
1
1
1
1
1
1
6.65083
6.79089
6.82046
6.67496
4.70059
1.40664
0.993499
1.00013
0.999999
1
1
1
1
1
1
1
1
1
1
1
6.80429
6.84973
6.82641
6.68427
6.24057
3.40858
1.04861
0.99892
1
1
1
1
1
1
1
1
1
1
1
1
6.93921
6.87071
6.77225
6.72456
6.77914
5.79467
2.68937
1.02798
1
1
1
1
1
1
1
1
1
1
1
1
6.94025
6.89306
6.84368
6.92756
7.06121
6.79232
5.99308
2.29633
0.654449
1
1
1
1
1
1
1
1
1
1
1
2.31051
3.62674
4.87291
5.72038
6.29123
6.43771
6.56584
6.23007
4.53174
3.2017
2.36667
1.56264
1.08115
0.987478
0.992925
0.996329
0.99918
0.999975
1.00002
1.00001
0.306729
0.862713
1.94146
3.14564
4.25173
4.89647
5.43166
5.87306
5.736
5.29513
4.8665
4.32506
3.40205
2.32787
1.42499
1.02897
0.989337
0.994898
0.997302
0.999434
0.0385027
0.169998
0.520605
1.18481
2.0656
2.87753
3.56725
4.27063
4.79466
4.84456
4.76013
4.73198
4.68538
4.52193
4.0201
3.06776
2.09592
1.33584
1.01906
0.992858
0.00578385
0.0412776
0.176555
0.392107
0.836848
1.42658
1.98426
2.56089
3.16832
3.56811
3.79216
4.01154
4.21033
4.37262
4.47312
4.40006
4.1847
3.65472
2.79853
1.89533
0.00621872
0.0153982
0.0613741
0.202296
0.436583
0.670852
1.00802
1.4075
1.87076
2.2647
2.55757
2.83142
3.10533
3.41008
3.73788
3.95847
4.09593
4.14119
4.04834
3.91983
0.0125172
0.0118578
0.0187062
0.0927423
0.243254
0.434687
0.643594
0.902113
1.20601
1.51674
1.74916
1.96597
2.18081
2.4151
2.70888
2.99663
3.27832
3.52633
3.66334
3.77884
0.0187273
0.0139467
0.0149909
0.0406105
0.110156
0.275091
0.412013
0.594498
0.813428
1.02708
1.20173
1.35442
1.50751
1.65745
1.85199
2.0846
2.33331
2.5904
2.80232
2.99481
0.0250991
0.0170941
0.0170087
0.0353019
0.0618383
0.137664
0.201646
0.299481
0.447252
0.59017
0.739029
0.872663
1.01183
1.13829
1.30149
1.49271
1.68224
1.85365
2.09675
2.07833
0.0343212
0.0220936
0.0207643
0.037637
0.0587225
0.0924387
0.136088
0.177076
0.262002
0.386118
0.506422
0.622136
0.745976
0.847592
0.964187
1.08689
1.20928
1.32401
1.53691
1.49817
0.0481871
0.0305575
0.0280267
0.040679
0.0599764
0.0944031
0.146214
0.185218
0.25154
0.340287
0.414936
0.487881
0.565924
0.637196
0.700888
0.772853
0.853808
0.946782
1.15096
1.14412
0.0659897
0.0406184
0.0392771
0.0483483
0.0646498
0.0951795
0.145209
0.181061
0.224514
0.275403
0.314293
0.356111
0.396385
0.443556
0.485529
0.542989
0.626007
0.727271
0.834839
0.972191
0.0843536
0.0500411
0.0439036
0.0531142
0.0628818
0.0851385
0.120562
0.146018
0.165949
0.185617
0.199615
0.22401
0.262868
0.312796
0.366568
0.429797
0.497867
0.570473
0.622571
0.740018
0.0965745
0.0544805
0.0420896
0.0478239
0.0542051
0.0613918
0.0779224
0.0962814
0.110466
0.128777
0.160164
0.189992
0.234589
0.274831
0.314642
0.358495
0.395851
0.435184
0.457196
0.529451
0.105655
0.0575259
0.0415128
0.04372
0.0468377
0.0514642
0.0619536
0.0818474
0.103424
0.128035
0.16045
0.182202
0.213109
0.239933
0.263128
0.281642
0.295906
0.306728
0.319872
0.376783
0.113628
0.0641187
0.0443306
0.044536
0.047028
0.0522291
0.0643262
0.0862815
0.108313
0.127432
0.148932
0.163899
0.18029
0.193364
0.196603
0.194858
0.198014
0.207681
0.233276
0.295878
0.116285
0.0753213
0.0539904
0.0503496
0.0530423
0.0587805
0.0686113
0.0875378
0.104245
0.114806
0.123108
0.133324
0.129783
0.130199
0.130384
0.135429
0.151227
0.177577
0.204788
0.241579
0.108309
0.0859615
0.0699168
0.0599092
0.0589948
0.0612903
0.0656404
0.0744556
0.0815763
0.0901493
0.0848071
0.0885174
0.0918985
0.0998412
0.111213
0.125011
0.14184
0.159421
0.176155
0.188063
0.0986275
0.0877717
0.0826112
0.073876
0.063347
0.0595
0.0539044
0.0538106
0.055603
0.0585109
0.0609785
0.0663663
0.0743506
0.0855141
0.0974153
0.108473
0.118333
0.123721
0.127387
0.128142
0.0894747
0.0939964
0.110309
0.119951
0.131479
0.140167
0.125331
0.105323
0.114995
0.133496
0.159847
0.165427
0.150181
0.147902
0.159501
0.185316
0.212975
0.206667
0.200039
0.188307
0.121526
0.196768
0.229223
0.264635
0.305166
0.348402
0.36503
0.389228
0.432463
0.441066
0.46932
0.482947
0.468557
0.468312
0.490043
0.494716
0.505369
0.503566
0.502555
0.512558
0.560083
0.633895
0.71819
0.820427
0.825929
0.836251
0.831666
0.860935
0.899004
0.913996
0.916155
0.920136
0.930436
0.953067
0.963248
0.963125
0.959151
0.956174
0.952441
0.956473
0.284106
0.41301
0.554797
0.691059
0.764493
0.824883
0.832742
0.851903
0.895795
0.925296
0.930945
0.933125
0.931403
0.93963
0.952865
0.963705
0.971807
0.972278
0.964834
0.954272
0.134747
0.162537
0.244101
0.337369
0.524318
0.696202
0.76057
0.824469
0.888665
0.926435
0.930163
0.932456
0.930108
0.930338
0.936568
0.952338
0.970026
0.974497
0.970745
0.958505
0.187434
0.211864
0.234347
0.243087
0.261011
0.345535
0.545493
0.721024
0.820902
0.88957
0.93322
0.930985
0.930813
0.927668
0.928982
0.942053
0.965651
0.972314
0.9684
0.960454
0.240377
0.255355
0.269598
0.293199
0.304018
0.29575
0.314224
0.401115
0.582775
0.766445
0.889645
0.921462
0.938304
0.934757
0.925866
0.936752
0.960352
0.9656
0.959255
0.961322
0.314723
0.31737
0.330594
0.344201
0.345117
0.340905
0.338298
0.328758
0.350174
0.467447
0.687943
0.873819
0.931619
0.946332
0.933889
0.932607
0.939631
0.940975
0.949923
0.961651
0.400342
0.397222
0.379402
0.379456
0.387367
0.389023
0.379971
0.368913
0.358413
0.361298
0.438976
0.653402
0.870524
0.948252
0.940107
0.93714
0.92945
0.925385
0.940539
0.963989
0.526417
0.496999
0.442755
0.420169
0.425652
0.436054
0.431923
0.416097
0.401873
0.379675
0.381223
0.437116
0.630974
0.867842
0.936307
0.943504
0.927329
0.926173
0.946399
0.965522
0.685854
0.61823
0.525958
0.462093
0.468147
0.482093
0.484703
0.468617
0.445724
0.419481
0.40205
0.403819
0.443584
0.628522
0.843469
0.938981
0.919545
0.927309
0.96126
0.966073
0.86853
0.775597
0.650391
0.542036
0.521313
0.524247
0.530463
0.510495
0.486683
0.452869
0.437453
0.424014
0.427829
0.462972
0.622834
0.850939
0.886913
0.934096
0.971558
0.961175
1.24301
0.978497
0.845521
0.693365
0.583678
0.569253
0.587368
0.583932
0.558049
0.526909
0.493205
0.474726
0.460992
0.461212
0.484411
0.577734
0.753507
0.890806
0.936999
0.949214
2.04032
1.44849
1.19533
1.03527
0.839135
0.702008
0.692529
0.672189
0.620874
0.580628
0.555099
0.539325
0.523858
0.504362
0.489775
0.492045
0.529523
0.645674
0.788533
0.907875
2.50967
2.17207
1.69745
1.35835
1.13954
0.913478
0.803772
0.751528
0.712608
0.678744
0.66451
0.647247
0.618656
0.574279
0.54282
0.520748
0.524086
0.535646
0.576256
0.743501
2.36838
2.35105
2.23457
1.90743
1.57002
1.28741
1.07105
0.934614
0.887052
0.834813
0.76282
0.715966
0.670022
0.615327
0.593025
0.586459
0.569031
0.549883
0.544098
0.580261
1.68647
2.13901
2.21891
2.19288
2.05478
1.80168
1.49547
1.24016
1.0705
0.960849
0.846521
0.782184
0.750335
0.711541
0.691526
0.680358
0.657821
0.621161
0.573621
0.574717
1.10847
1.43722
1.84606
2.11464
2.11456
2.08042
1.93087
1.69472
1.43041
1.23344
1.08031
0.966817
0.917858
0.858392
0.794397
0.746303
0.701617
0.657902
0.629393
0.607513
1.00448
1.04469
1.20525
1.54884
1.85844
2.02229
2.01629
1.97484
1.83534
1.61469
1.4104
1.21207
1.07527
0.980925
0.882648
0.815015
0.774811
0.733859
0.724198
0.697866
1.00009
1.00113
1.01056
1.07717
1.26775
1.57048
1.82672
1.93558
1.92803
1.88372
1.76983
1.58408
1.37791
1.22613
1.09462
0.99293
0.937552
0.887268
0.833834
0.758412
1
1.00001
1.00015
1.00239
1.01913
1.09972
1.28996
1.55654
1.76794
1.85737
1.85217
1.81808
1.71525
1.55423
1.3851
1.21966
1.09595
1.00455
0.928287
0.832935
1
1
1
1.00003
1.00033
1.00387
1.02437
1.10889
1.28647
1.52229
1.7043
1.78872
1.78438
1.75566
1.67866
1.54076
1.37929
1.22755
1.12549
1.00028
1
1
1
1
1
1.00005
1.00049
1.00471
1.02687
1.10518
1.26449
1.47529
1.63797
1.72589
1.72337
1.70362
1.64369
1.52721
1.39583
1.1962
1
1
1
1
1
1
1
1.00006
1.00059
1.00477
1.02504
1.09527
1.23277
1.42566
1.57024
1.66719
1.66584
1.65319
1.6163
1.4643
1
1
1
1
1
1
1
1
1.00001
1.00006
1.00057
1.00432
1.02194
1.07958
1.19813
1.37236
1.50982
1.60089
1.61432
1.59161
1
1
1
1
1
1
1
1
1
1
1.00001
1.00006
1.00051
1.00329
1.01831
1.0627
1.16475
1.31421
1.44435
1.54925
1
1
1
1
1
1
1
1
1
1
1
1
1.00001
1.00004
1.00042
1.00251
1.01417
1.05154
1.13642
1.38785
1.62691
2.46202
2.58445
2.0854
1.3096
1.03694
1.00188
1.00005
1
1
1
1
1
1
1
2.34145
2.81484
2.5275
1.5415
1.04832
1.00081
1
1
1
1
1
1
1
1
1
2.93028
2.87037
1.98179
1.15282
1.00524
1.00005
1
1
1
1
1
1
1
1
1
3.25013
2.55433
1.36432
1.01921
1.00018
1
1
1
1
1
1
1
1
1
1
3.31617
1.68239
1.04736
1.00053
1
1
1
1
1
1
1
1
1
1
1
2.0682
1.07282
1.00047
0.999999
1
1
1
1
1
1
1
1
1
1
1
1.10286
1.00057
0.999997
1
1
1
1
1
1
1
1
1
1
1
1
0.998139
0.999865
0.999996
1
1
1
1
1
1
1
1
1
1
1
1
0.999966
1
1
1
1
1
1
1
1
1
1
1
1
1
1
1
1
1
1
1
1
1
1
1
1
1
1
1
1
1
1
1
1
1
1
1
1
1
1
1
1
1
1
1
1
1
1
1
1
1
1
1
1
1
1
1
1
1
1
1
1
1
1
1
1
1
1
1
1
1
1
1
1
1
1
1
1
1
1
1
1
1
1
1
1
1
1
1
1
1
1
1
1
1
1
1
1
1
1
1
1
1
1
1
1
1
1
1
1
1
1
1
1
1
1
1
1
1
1
1
1
1
1
1
1
1
1
1
1
1
1
1
1
1
1
1
1
1
1
1
1
1
1
1
1
1
1
1
1
1
1
1
1
1
1
1
1
1
1
1
1
1
1
1
1
1
1
1
1
1
1
1
1
1
1
1
1
1
1
1
1
1
1
1
1
1
1
1
1
1
1
1
1
1
1
1
1
1
1
1
1
1
1
1
1
1
1
1
1
1
1
1
1
1
1
1
1
1
1
1
1
1
1
1
1
1
1
1
1
1
1
1
1
1
1
1
1
1
1
1
1
1
1
1
1
1
1
1
1
1
1
1
1
1
1
1
1
1
1
1
1
1
1
1
1
1
1
1
1
1
1
1
1
1
1
1
1
1
1
1
1
1
1
1
1
1
1
1
1
1
1
1
1
1
1
1
1
1
1
1
1
1
1
1
1
1
1
1
1
1
1
1
1
1
1
1
1
1
1
1
1
1
1
1
1
1
1
1
1
1
1
1
1
1
1
1
1
1
1
1
1
1
1
1
1
1
1
1
1
1
1
1
1
1
1
1
1
1
1
1
1
1
1
1
1
1
1
1
1
1
1
1
1
1
1
1
1
1
1
1
1
1
1
1
1
1
1
1
1
1
1
1
1
1
1
1
1
1
1
1
1
1
1
1
1
1
1
1
1
1
1
1
1
1
1
1
1
1
1
1
1
1
1
1
1
1
1
1
1
1
1
1
1
1
1
1
1
1
1
1
1
1
1
1
1
1
1
1
1
1
1
1
1
1
1
1
1
1
1
1
1
1
1
1
1
1
1
1
1
1
1
1
1
1
1
1
1
1
1
1
1
1
1
1
1
1
1
1
1
1
1
1
1
1
1
1
1
1
1
1
1
1
1
1
1
1
1
1
1
1
1
1
1
1
1
1
1
1
1
1
1
1
1
1
1
1
1
1
1
1
1
1
1
1
1
1
1
1
1
1
1
1
1
1
1
1
1
1
1
1
1
1
1
1
1
1
1
1
1
1
1
1
1
1
1
1
1
1
1
1
1
1
1
1
1
1
1
1
1
1
1
1
1
1
1
1
1
1
1
1
1
1
1
1
1
1
1
1
1
1
1
1
1
1
1
1
1
1
1
1
1
1
1
1
1
1
1
1
1
1
1
1
1
1
1
1
1
1
1
1
1
1
1
1
1
1
1
1
1
1
1
1
1
1
1
1
1
1
1
1
1
1
1
1
1
1
1
1
1
1
1
1
1
1
1
1
1
1
1
1
1
1
1
1
1
1
1
1
1
1
1
1
1
1
1
1
1
1
1
1
1
1
1
1
1
1
1
1
1
1
1
1
1
1
1
1
1
1
1
1
1
1
1
1
1
1
1
1
1
1
1
1
1
1
1
1
1
1
1
1
1
1
1
1
1
1
1
1
1
1
1
1
1
1
1
1
1
1
1
1
1
1
1
1
1
1
1
1
1
1
1
1
1
1
1
1
1
1
1
1
1
1
1
1
1
1
1
1
1
1
1
1
1
1
1
1
1
1
1
1
1
1
1
1
1
1
1
1
1
1
1
1
1
1
1
1
1
1
1
1
1
1
1
1
1
1
1
1
1
1
1
1
1
1
1
1
1
1
1
1
1
1
1
1
1
1
1
1
1
1
1
1
1
1
1
0.999966
1
1
1
1
1
1
1
1
1
1
1
1
1
1
0.998136
0.999865
0.999996
1
1
1
1
1
1
1
1
1
1
1
1
1.10286
1.00058
0.999997
1
1
1
1
1
1
1
1
1
1
1
1
2.06859
1.0729
1.00046
0.999999
1
1
1
1
1
1
1
1
1
1
1
3.31626
1.68254
1.0474
1.00053
1
1
1
1
1
1
1
1
1
1
1
3.24949
2.55397
1.3642
1.0192
1.00018
1
1
1
1
1
1
1
1
1
1
2.93002
2.86993
1.98198
1.15281
1.00523
1.00005
1
1
1
1
1
1
1
1
1
2.34037
2.81466
2.52742
1.54176
1.04837
1.00081
1
1
1
1
1
1
1
1
1
1.62691
2.46141
2.5842
2.08548
1.30972
1.03694
1.00188
1.00005
1
1
1
1
1
1
1
1.24267
2.04445
2.50979
2.36785
1.68552
1.1083
1.00448
1.00009
1
1
1
1
1
1
1
0.974206
1.44263
2.17229
2.35082
2.13964
1.43711
1.04466
1.00113
1.00001
1
1
1
1
1
1
0.847465
1.18514
1.69167
2.23492
2.21809
1.84589
1.20535
1.01058
1.00015
1
1
1
1
1
1
0.703961
1.04378
1.3643
1.90377
2.19088
2.11445
1.54956
1.07737
1.00239
1.00003
1
1
1
1
1
0.58464
0.847544
1.13976
1.57294
2.0572
2.11449
1.8588
1.26807
1.01914
1.00033
1
1
1
1
1
0.564944
0.705806
0.911346
1.28283
1.8031
2.08083
2.02272
1.57061
1.0997
1.00387
1.00005
1
1
1
1
0.58082
0.690717
0.811992
1.06968
1.48289
1.93359
2.01651
1.8268
1.28981
1.02434
1.00049
1
1
1
1
0.577564
0.66503
0.755299
0.958018
1.24026
1.68844
1.97401
1.93498
1.55619
1.1088
1.00471
1.00006
1
1
1
0.553923
0.615336
0.697679
0.8912
1.08476
1.42174
1.83453
1.92754
1.76756
1.28641
1.02688
1.00059
1.00001
1
1
0.535235
0.582705
0.658706
0.816981
0.970695
1.24015
1.61456
1.88352
1.85721
1.52234
1.10524
1.00477
1.00006
1
1
0.505262
0.560233
0.655991
0.74846
0.846182
1.0905
1.41051
1.76961
1.85201
1.70428
1.26457
1.02506
1.00057
1.00001
1
0.478582
0.550348
0.646912
0.708192
0.776705
0.967267
1.21126
1.58361
1.81793
1.7886
1.47526
1.09528
1.00432
1.00006
1
0.462854
0.536416
0.621235
0.665197
0.742055
0.914236
1.07576
1.37649
1.71493
1.78429
1.63792
1.23276
1.02194
1.00051
1.00001
0.460713
0.513913
0.580575
0.61753
0.704244
0.853683
0.981795
1.22495
1.55385
1.75566
1.72594
1.42574
1.07962
1.0033
1.00004
0.4797
0.48549
0.554061
0.59713
0.69029
0.792741
0.884019
1.09422
1.38575
1.6789
1.72352
1.57047
1.19826
1.01833
1.00042
0.569478
0.48821
0.530395
0.589282
0.681666
0.745062
0.815047
0.99664
1.22145
1.54108
1.70389
1.66752
1.37262
1.06276
1.00251
0.746695
0.525911
0.52965
0.57294
0.661288
0.701046
0.774099
0.940536
1.09608
1.37966
1.64424
1.66619
1.51015
1.16486
1.01417
0.888462
0.638287
0.534194
0.550257
0.625572
0.656382
0.735572
0.887659
1.00245
1.22841
1.52803
1.65356
1.60115
1.31437
1.05157
0.941946
0.788593
0.572809
0.545132
0.578289
0.62697
0.726187
0.832453
0.925678
1.12683
1.39644
1.6166
1.61456
1.44448
1.13646
0.952894
0.909228
0.742733
0.581815
0.579157
0.604627
0.69882
0.757207
0.83058
1.00085
1.1962
1.46444
1.59177
1.54934
1.38786
0.865343
0.776517
0.660349
0.546618
0.517519
0.516188
0.523412
0.503791
0.486094
0.463349
0.439554
0.41895
0.422699
0.460373
0.620304
0.835712
0.875542
0.934928
0.973119
0.963348
0.684447
0.621651
0.534798
0.460932
0.462385
0.476211
0.480664
0.465842
0.450661
0.426449
0.401872
0.401482
0.438264
0.624032
0.855798
0.941722
0.913878
0.92778
0.964257
0.965856
0.527752
0.503917
0.444961
0.41165
0.415548
0.431447
0.4313
0.420152
0.40966
0.390566
0.386766
0.433644
0.623042
0.836108
0.919889
0.953343
0.942415
0.937359
0.95534
0.964493
0.401214
0.401665
0.378891
0.373603
0.383271
0.389436
0.38174
0.373327
0.367413
0.367428
0.440448
0.646988
0.855647
0.934694
0.932345
0.948243
0.954448
0.94586
0.949677
0.9604
0.314882
0.319991
0.328382
0.337519
0.342556
0.3425
0.340775
0.331258
0.357846
0.476426
0.687616
0.869114
0.919998
0.937239
0.934758
0.949644
0.962865
0.959042
0.952647
0.958842
0.241027
0.25601
0.268621
0.290359
0.305947
0.298491
0.319638
0.408241
0.596627
0.77422
0.885234
0.922798
0.929329
0.934112
0.937409
0.949822
0.96127
0.959612
0.956888
0.959106
0.188126
0.211856
0.236689
0.243297
0.266587
0.352182
0.552974
0.728992
0.817087
0.88194
0.930267
0.933423
0.931262
0.933024
0.93973
0.949082
0.956632
0.958286
0.959658
0.961678
0.134892
0.161991
0.223281
0.32569
0.537606
0.690797
0.758234
0.833736
0.885664
0.912845
0.930603
0.937065
0.936928
0.938545
0.943737
0.952756
0.954262
0.955436
0.955623
0.958737
0.283793
0.419155
0.533451
0.69569
0.763137
0.821448
0.829852
0.859436
0.893244
0.91411
0.93114
0.937273
0.933467
0.938908
0.949977
0.953516
0.949884
0.950091
0.951391
0.959133
0.563891
0.636282
0.711273
0.824639
0.818597
0.824442
0.830921
0.865806
0.906139
0.925976
0.933506
0.934939
0.934069
0.949678
0.962177
0.952061
0.941216
0.942535
0.95133
0.959717
)
;

boundaryField
{
    inlet
    {
        type            fixedValue;
        value           uniform 1;
    }
    outlet
    {
        type            zeroGradient;
    }
    airfoil
    {
        type            zeroGradient;
    }
    top
    {
        type            symmetryPlane;
    }
    bottom
    {
        type            symmetryPlane;
    }
    defaultFaces
    {
        type            empty;
    }
}


// ************************************************************************* //
