/*--------------------------------*- C++ -*----------------------------------*\
  =========                 |
  \\      /  F ield         | OpenFOAM: The Open Source CFD Toolbox
   \\    /   O peration     | Website:  https://openfoam.org
    \\  /    A nd           | Version:  7
     \\/     M anipulation  |
\*---------------------------------------------------------------------------*/
FoamFile
{
    version     2.0;
    format      ascii;
    class       volScalarField;
    location    "5.5";
    object      rho;
}
// * * * * * * * * * * * * * * * * * * * * * * * * * * * * * * * * * * * * * //

dimensions      [1 -3 0 0 0 0 0];

internalField   nonuniform List<scalar> 
3700
(
0.138453
0.261515
0.305909
0.387319
0.435756
0.467772
0.513239
0.589371
0.628381
0.620047
0.634213
0.655054
0.659773
0.682347
0.698129
0.684461
0.702805
0.722434
0.73138
0.731654
0.109141
0.122258
0.150199
0.189566
0.187502
0.192303
0.21174
0.245881
0.254911
0.229841
0.18814
0.188633
0.217086
0.25716
0.274065
0.277804
0.288044
0.304095
0.32794
0.315305
0.118745
0.118789
0.124003
0.113769
0.0954079
0.0849813
0.0751626
0.0745969
0.0757886
0.0802369
0.0844243
0.0933843
0.105818
0.122398
0.139268
0.15426
0.166255
0.171911
0.175886
0.17679
0.129722
0.117834
0.104622
0.0911709
0.0855157
0.0858334
0.0918489
0.101602
0.108678
0.122542
0.114339
0.11915
0.125243
0.139437
0.15736
0.178383
0.202692
0.225931
0.247248
0.260675
0.142097
0.104245
0.0817114
0.0743901
0.0782242
0.083767
0.0965676
0.12125
0.143622
0.161261
0.170627
0.18324
0.175662
0.175906
0.177215
0.189835
0.216895
0.254513
0.291191
0.338816
0.155567
0.0927241
0.0673301
0.0648213
0.0690077
0.0752108
0.0921339
0.12076
0.151748
0.179838
0.209939
0.23109
0.25061
0.265848
0.266226
0.26524
0.271379
0.290497
0.332207
0.420773
0.155093
0.0815114
0.0607554
0.0631048
0.0676546
0.0735708
0.0881837
0.11438
0.146187
0.18217
0.228979
0.259484
0.301262
0.33659
0.366476
0.388612
0.407514
0.421648
0.442701
0.529682
0.146517
0.0746851
0.0604608
0.0677103
0.0739692
0.0841364
0.105997
0.130065
0.152084
0.180407
0.229175
0.27221
0.335252
0.390275
0.444537
0.502955
0.551944
0.602231
0.632464
0.738671
0.132146
0.0691946
0.0616076
0.0752142
0.0863525
0.116884
0.164426
0.198601
0.225285
0.2505
0.271217
0.308334
0.370137
0.442808
0.519052
0.607603
0.699532
0.797349
0.86539
1.02702
0.105349
0.0594141
0.0547033
0.0691601
0.0890715
0.131282
0.202173
0.256048
0.313687
0.379877
0.431428
0.488192
0.542809
0.608623
0.671348
0.757651
0.879427
1.02026
1.16634
1.35311
0.0775628
0.047726
0.0439401
0.0565463
0.0848378
0.130445
0.205272
0.26716
0.359736
0.481536
0.58309
0.683062
0.787909
0.886135
0.970664
1.06897
1.18514
1.32068
1.6073
1.59637
0.0572729
0.037313
0.0345049
0.0528015
0.0847453
0.126945
0.191572
0.252927
0.373973
0.552566
0.719414
0.880069
1.04931
1.18867
1.34558
1.51177
1.67884
1.84021
2.13936
2.08851
0.0434611
0.0282286
0.026802
0.0494554
0.0878592
0.179392
0.271723
0.397261
0.600503
0.807448
1.02254
1.21509
1.4138
1.59212
1.82153
2.08331
2.3417
2.57526
2.91423
2.89101
0.0341676
0.0221405
0.0219351
0.0490475
0.140376
0.371176
0.567613
0.819982
1.1258
1.42111
1.66588
1.87844
2.09162
2.29927
2.57218
2.89875
3.24587
3.60242
3.89302
4.16318
0.0240458
0.0198253
0.0212184
0.105569
0.32476
0.612363
0.905446
1.26594
1.69027
2.12009
2.44264
2.74168
3.03839
3.35914
3.76281
4.16148
4.55471
4.89627
5.08694
5.24947
0.0107335
0.0239974
0.0672259
0.279929
0.616867
0.954783
1.40952
1.96206
2.60181
3.1493
3.55604
3.93824
4.31877
4.73804
5.18974
5.4982
5.69143
5.75318
5.62531
5.44807
0.00911794
0.0598007
0.240991
0.579606
1.19107
1.97484
2.7477
3.54878
4.3942
4.94701
5.25587
5.56225
5.83948
6.06436
6.20565
6.10612
5.81221
5.08382
3.90003
2.64716
0.0564338
0.242631
0.750557
1.64083
2.85295
3.99211
4.95318
5.93065
6.66433
6.72331
6.59982
6.56075
6.49866
6.27568
5.58477
4.269
2.92512
1.86916
1.42681
1.39004
0.424294
1.19278
2.67905
4.3655
5.90078
6.79765
7.54222
8.15393
7.96229
7.34677
6.7501
6.00229
4.72781
3.24444
1.99314
1.44074
1.38511
1.39287
1.39624
1.39921
3.21229
5.03999
6.76906
7.93745
8.72567
8.9369
9.10649
8.6405
6.28669
4.44639
3.29554
2.18543
1.51464
1.38259
1.39018
1.39492
1.39886
1.39997
1.40003
1.40002
9.61831
9.556
9.48131
9.60212
9.79834
9.43092
8.31198
3.18896
0.918216
1.40001
1.40001
1.40001
1.40001
1.40001
1.40001
1.40001
1.40001
1.40001
1.40001
1.40001
9.6132
9.52599
9.37579
9.30897
9.4177
8.05933
3.73307
1.4361
1.40001
1.40001
1.40001
1.40001
1.40001
1.40001
1.40001
1.40001
1.40001
1.40001
1.40001
1.40001
9.44348
9.49971
9.46314
9.25047
8.6487
4.74853
1.47246
1.39843
1.40001
1.40001
1.40001
1.40001
1.40001
1.40001
1.40001
1.40001
1.40001
1.40001
1.40001
1.40001
9.22211
9.42271
9.45782
9.25193
6.53124
1.97475
1.39072
1.40018
1.4
1.40001
1.40001
1.40001
1.40001
1.40001
1.40001
1.40001
1.40001
1.40001
1.40001
1.40001
9.05082
9.36156
9.4045
8.48163
3.6771
1.36717
1.40049
1.4
1.40001
1.40001
1.40001
1.40001
1.40001
1.40001
1.40001
1.40001
1.40001
1.40001
1.40001
1.40001
8.9628
9.36742
9.33262
6.8327
2.08753
1.40001
1.40001
1.40001
1.40001
1.40001
1.40001
1.40001
1.40001
1.40001
1.40001
1.40001
1.40001
1.40001
1.40001
1.40001
8.91257
9.42673
9.34467
4.97455
1.36496
1.40001
1.40001
1.40001
1.40001
1.40001
1.40001
1.40001
1.40001
1.40001
1.40001
1.40001
1.40001
1.40001
1.40001
1.40001
9.02476
9.24662
8.38545
2.81729
1.4
1.40001
1.40001
1.40001
1.40001
1.40001
1.40001
1.40001
1.40001
1.40001
1.40001
1.40001
1.40001
1.40001
1.40001
1.40001
9.64538
9.1586
6.75549
1.71448
1.4
1.40001
1.40001
1.40001
1.40001
1.40001
1.40001
1.40001
1.40001
1.40001
1.40001
1.40001
1.40001
1.40001
1.40001
1.40001
10.0948
8.90145
4.76639
1.38285
1.40001
1.40001
1.40001
1.40001
1.40001
1.40001
1.40001
1.40001
1.40001
1.40001
1.40001
1.40001
1.40001
1.40001
1.40001
1.40001
10.3253
8.29246
3.18819
1.40001
1.40001
1.40001
1.40001
1.40001
1.40001
1.40001
1.40001
1.40001
1.40001
1.40001
1.40001
1.40001
1.40001
1.40001
1.40001
1.40001
10.4111
7.44847
2.23607
1.40001
1.40001
1.40001
1.40001
1.40001
1.40001
1.40001
1.40001
1.40001
1.40001
1.40001
1.40001
1.40001
1.40001
1.40001
1.40001
1.40001
10.4549
6.60482
1.62986
1.40001
1.40001
1.40001
1.40001
1.40001
1.40001
1.40001
1.40001
1.40001
1.40001
1.40001
1.40001
1.40001
1.40001
1.40001
1.40001
1.40001
10.1846
5.59517
1.41866
1.40001
1.40001
1.40001
1.40001
1.40001
1.40001
1.40001
1.40001
1.40001
1.40001
1.40001
1.40001
1.40001
1.40001
1.40001
1.40001
1.40001
9.94582
4.52892
1.40001
1.40001
1.40001
1.40001
1.40001
1.40001
1.40001
1.40001
1.40001
1.40001
1.40001
1.40001
1.40001
1.40001
1.40001
1.40001
1.40001
1.40001
9.75658
3.44344
1.40001
1.40001
1.40001
1.40001
1.40001
1.40001
1.40001
1.40001
1.40001
1.40001
1.40001
1.40001
1.40001
1.40001
1.40001
1.40001
1.40001
1.40001
9.16238
2.58513
1.40001
1.40001
1.40001
1.40001
1.40001
1.40001
1.40001
1.40001
1.40001
1.40001
1.40001
1.40001
1.40001
1.40001
1.40001
1.40001
1.40001
1.40001
8.76528
1.91578
1.40001
1.40001
1.40001
1.40001
1.40001
1.40001
1.40001
1.40001
1.40001
1.40001
1.40001
1.40001
1.40001
1.40001
1.40001
1.40001
1.40001
1.40001
7.99671
1.40854
1.40001
1.40001
1.40001
1.40001
1.40001
1.40001
1.40001
1.40001
1.40001
1.40001
1.40001
1.40001
1.40001
1.40001
1.40001
1.40001
1.40001
1.40001
6.4344
1.40012
1.40001
1.40001
1.40001
1.40001
1.40001
1.40001
1.40001
1.40001
1.40001
1.40001
1.40001
1.40001
1.40001
1.40001
1.40001
1.40001
1.40001
1.40001
6.43316
1.40012
1.40001
1.40001
1.40001
1.40001
1.40001
1.40001
1.40001
1.40001
1.40001
1.40001
1.40001
1.40001
1.40001
1.40001
1.40001
1.40001
1.40001
1.40001
7.98522
1.40868
1.40001
1.40001
1.40001
1.40001
1.40001
1.40001
1.40001
1.40001
1.40001
1.40001
1.40001
1.40001
1.40001
1.40001
1.40001
1.40001
1.40001
1.40001
8.77894
1.92006
1.40001
1.40001
1.40001
1.40001
1.40001
1.40001
1.40001
1.40001
1.40001
1.40001
1.40001
1.40001
1.40001
1.40001
1.40001
1.40001
1.40001
1.40001
9.1591
2.59444
1.40001
1.40001
1.40001
1.40001
1.40001
1.40001
1.40001
1.40001
1.40001
1.40001
1.40001
1.40001
1.40001
1.40001
1.40001
1.40001
1.40001
1.40001
9.73783
3.43899
1.40001
1.40001
1.40001
1.40001
1.40001
1.40001
1.40001
1.40001
1.40001
1.40001
1.40001
1.40001
1.40001
1.40001
1.40001
1.40001
1.40001
1.40001
9.96324
4.51211
1.40001
1.40001
1.40001
1.40001
1.40001
1.40001
1.40001
1.40001
1.40001
1.40001
1.40001
1.40001
1.40001
1.40001
1.40001
1.40001
1.40001
1.40001
10.181
5.60148
1.42308
1.40001
1.40001
1.40001
1.40001
1.40001
1.40001
1.40001
1.40001
1.40001
1.40001
1.40001
1.40001
1.40001
1.40001
1.40001
1.40001
1.40001
10.4478
6.61059
1.63494
1.40001
1.40001
1.40001
1.40001
1.40001
1.40001
1.40001
1.40001
1.40001
1.40001
1.40001
1.40001
1.40001
1.40001
1.40001
1.40001
1.40001
10.4079
7.45624
2.23714
1.40001
1.40001
1.40001
1.40001
1.40001
1.40001
1.40001
1.40001
1.40001
1.40001
1.40001
1.40001
1.40001
1.40001
1.40001
1.40001
1.40001
10.3217
8.2795
3.19436
1.40001
1.40001
1.40001
1.40001
1.40001
1.40001
1.40001
1.40001
1.40001
1.40001
1.40001
1.40001
1.40001
1.40001
1.40001
1.40001
1.40001
10.1017
8.91283
4.75469
1.38291
1.40001
1.40001
1.40001
1.40001
1.40001
1.40001
1.40001
1.40001
1.40001
1.40001
1.40001
1.40001
1.40001
1.40001
1.40001
1.40001
9.64725
9.15936
6.75417
1.71551
1.4
1.40001
1.40001
1.40001
1.40001
1.40001
1.40001
1.40001
1.40001
1.40001
1.40001
1.40001
1.40001
1.40001
1.40001
1.40001
9.016
9.22772
8.36798
2.81767
1.4
1.40001
1.40001
1.40001
1.40001
1.40001
1.40001
1.40001
1.40001
1.40001
1.40001
1.40001
1.40001
1.40001
1.40001
1.40001
8.91614
9.42564
9.35115
4.96338
1.36405
1.40001
1.40001
1.40001
1.40001
1.40001
1.40001
1.40001
1.40001
1.40001
1.40001
1.40001
1.40001
1.40001
1.40001
1.40001
8.97176
9.39007
9.35008
6.83568
2.09475
1.40001
1.40001
1.40001
1.40001
1.40001
1.40001
1.40001
1.40001
1.40001
1.40001
1.40001
1.40001
1.40001
1.40001
1.40001
9.06076
9.36806
9.41172
8.4572
3.69192
1.36703
1.40049
1.4
1.40001
1.40001
1.40001
1.40001
1.40001
1.40001
1.40001
1.40001
1.40001
1.40001
1.40001
1.40001
9.22036
9.41415
9.45559
9.25666
6.52986
1.96489
1.39095
1.40018
1.4
1.40001
1.40001
1.40001
1.40001
1.40001
1.40001
1.40001
1.40001
1.40001
1.40001
1.40001
9.43271
9.49565
9.46378
9.26858
8.65808
4.74208
1.46747
1.3985
1.40001
1.40001
1.40001
1.40001
1.40001
1.40001
1.40001
1.40001
1.40001
1.40001
1.40001
1.40001
9.61932
9.52464
9.38876
9.32364
9.40082
8.04254
3.7459
1.43889
1.40001
1.40001
1.40001
1.40001
1.40001
1.40001
1.40001
1.40001
1.40001
1.40001
1.40001
1.40001
9.62054
9.55538
9.48727
9.60359
9.78934
9.41936
8.31701
3.20052
0.917614
1.40001
1.40001
1.40001
1.40001
1.40001
1.40001
1.40001
1.40001
1.40001
1.40001
1.40001
3.2124
5.03542
6.76051
7.93325
8.72361
8.9274
9.10532
8.64186
6.29153
4.44858
3.29443
2.18262
1.51316
1.38253
1.39013
1.39488
1.39886
1.39997
1.40003
1.40002
0.428892
1.20147
2.69832
4.36755
5.89992
6.7933
7.53482
8.14723
7.95752
7.34661
6.75281
6.00466
4.72851
3.24374
1.99205
1.44042
1.38512
1.39288
1.39624
1.39921
0.0541405
0.23766
0.72541
1.6478
2.86993
3.99613
4.95251
5.92767
6.65431
6.72318
6.60599
6.56687
6.50227
6.27686
5.58505
4.26832
2.92378
1.86828
1.42661
1.39004
0.00815687
0.0578914
0.246668
0.546528
1.16466
1.98358
2.75782
3.558
4.40085
4.95543
5.26599
5.56976
5.84476
6.06972
6.2093
6.10857
5.81258
5.08213
3.89775
2.64605
0.00876446
0.0216455
0.0859203
0.282316
0.608288
0.934189
1.40292
1.95792
2.60125
3.14837
3.55496
3.93481
4.31443
4.73656
5.19086
5.49664
5.68758
5.75078
5.6232
5.44709
0.0175926
0.0166726
0.0262357
0.129644
0.339259
0.605725
0.896391
1.25587
1.67825
2.11007
2.43306
2.73419
3.03248
3.35754
3.765
4.16399
4.55454
4.89845
5.08897
5.24972
0.0262826
0.0195986
0.0210526
0.0568818
0.153823
0.383575
0.574315
0.828261
1.13279
1.42989
1.67281
1.88512
2.098
2.30644
2.57669
2.8996
3.24456
3.60099
3.89493
4.16215
0.0351937
0.024007
0.0238871
0.0494925
0.086476
0.192152
0.281416
0.417749
0.623559
0.82258
1.02981
1.21581
1.40949
1.58546
1.81236
2.07802
2.34112
2.57896
2.91626
2.89077
0.0480869
0.0310114
0.0291577
0.0527645
0.0822164
0.129201
0.190129
0.24735
0.365774
0.538705
0.706244
0.86737
1.03977
1.18127
1.3435
1.51415
1.68425
1.84363
2.13934
2.08563
0.0674598
0.0428571
0.0393322
0.0570224
0.0839959
0.132026
0.204318
0.258766
0.351243
0.474897
0.578914
0.680566
0.789285
0.888605
0.977299
1.07749
1.19014
1.31949
1.60335
1.59387
0.0923028
0.0569193
0.0550657
0.0677471
0.09054
0.133154
0.202981
0.253022
0.313629
0.384579
0.43883
0.497149
0.5533
0.619078
0.6776
0.757668
0.873244
1.01417
1.16387
1.3549
0.117884
0.0700745
0.0615336
0.0744206
0.0880838
0.119182
0.168657
0.204194
0.232034
0.259473
0.279025
0.313068
0.367287
0.436917
0.511865
0.599963
0.694775
0.795927
0.868523
1.03199
0.134859
0.0762556
0.0589919
0.0670262
0.0759606
0.0860127
0.109108
0.13474
0.154546
0.180086
0.2239
0.26554
0.327762
0.383904
0.439431
0.500569
0.552672
0.607543
0.638254
0.738918
0.147478
0.080484
0.0581755
0.0612694
0.0656318
0.0721009
0.0867511
0.114533
0.144668
0.179009
0.224256
0.254636
0.297769
0.335228
0.367616
0.393468
0.413412
0.428558
0.446932
0.526323
0.158611
0.0896566
0.0620928
0.0623928
0.0658794
0.0731496
0.0900397
0.120685
0.151448
0.178155
0.208181
0.229106
0.252015
0.270307
0.274867
0.272477
0.276932
0.290458
0.326195
0.413492
0.162385
0.105291
0.0755502
0.070476
0.0742408
0.0822657
0.0960034
0.122437
0.145784
0.160561
0.172183
0.186485
0.181579
0.182203
0.18248
0.189532
0.211601
0.248387
0.286379
0.337718
0.151363
0.120176
0.0977795
0.0838193
0.0825559
0.0857747
0.0918645
0.1042
0.114182
0.126198
0.118772
0.123979
0.128712
0.139799
0.155665
0.17494
0.198459
0.223014
0.246395
0.263037
0.137906
0.122737
0.115518
0.103328
0.0886467
0.0833002
0.07551
0.075402
0.0779231
0.0820012
0.0854531
0.0929814
0.104136
0.11973
0.136355
0.151811
0.165599
0.173138
0.178278
0.179357
0.125107
0.131378
0.154043
0.167452
0.183352
0.19522
0.174645
0.146937
0.160341
0.185799
0.222257
0.230074
0.209183
0.206305
0.222457
0.258265
0.296597
0.287869
0.278802
0.262629
0.169292
0.273532
0.318544
0.367696
0.423721
0.483283
0.506135
0.539594
0.599258
0.610786
0.649654
0.668566
0.64889
0.648839
0.678885
0.685119
0.699817
0.697394
0.696174
0.710288
0.776057
0.8785
0.995361
1.13722
1.14522
1.15987
1.15387
1.19464
1.24756
1.2685
1.27167
1.27731
1.29171
1.32314
1.33729
1.33719
1.33179
1.32778
1.32271
1.32839
0.395499
0.574567
0.771142
0.960368
1.06216
1.14575
1.15657
1.18321
1.24416
1.28513
1.29298
1.29601
1.29365
1.30508
1.32344
1.33848
1.34975
1.35046
1.34021
1.32563
0.188604
0.227392
0.341098
0.471012
0.731
0.969647
1.05863
1.14718
1.23627
1.28855
1.29348
1.29658
1.29326
1.29351
1.30208
1.32387
1.34836
1.35456
1.34935
1.33234
0.262213
0.29636
0.327764
0.339994
0.364988
0.482707
0.760878
1.00494
1.14375
1.23891
1.2992
1.29602
1.29571
1.29126
1.29297
1.31098
1.34365
1.35287
1.34737
1.33622
0.336085
0.357024
0.376959
0.409922
0.425042
0.413497
0.439203
0.560205
0.813078
1.06848
1.23958
1.28364
1.307
1.30205
1.28964
1.30466
1.33737
1.34462
1.33574
1.33849
0.439775
0.443544
0.462028
0.481031
0.482309
0.476431
0.472793
0.459505
0.489354
0.652699
0.959517
1.21782
1.29811
1.31857
1.30128
1.29948
1.30921
1.31105
1.32344
1.33965
0.559141
0.554847
0.530079
0.530162
0.541188
0.543487
0.530858
0.515453
0.500888
0.504936
0.613165
0.911575
1.2134
1.32148
1.31017
1.30608
1.29538
1.28972
1.31077
1.34332
0.734755
0.693845
0.618326
0.586873
0.594512
0.609008
0.603251
0.581207
0.561435
0.530602
0.532781
0.610668
0.880519
1.20989
1.30511
1.31513
1.29265
1.29105
1.31915
1.34571
0.956666
0.862577
0.734141
0.645229
0.653694
0.673151
0.676799
0.654405
0.622549
0.586062
0.561868
0.564348
0.619783
0.877274
1.17629
1.30906
1.28204
1.29282
1.33999
1.34669
1.21071
1.08144
0.907277
0.756498
0.727751
0.731887
0.740566
0.712775
0.679646
0.632606
0.611213
0.59256
0.597887
0.646921
0.869528
1.18687
1.23688
1.30244
1.35453
1.34011
1.73107
1.36364
1.1788
0.967179
0.814629
0.794639
0.819885
0.815135
0.779137
0.735821
0.688946
0.663272
0.644184
0.644554
0.676942
0.806964
1.05162
1.2426
1.30693
1.3239
2.83887
2.0171
1.66543
1.44296
1.17019
0.979496
0.966431
0.938207
0.866804
0.81078
0.775279
0.753387
0.731915
0.704823
0.684552
0.687803
0.740074
0.901917
1.10091
1.267
3.49228
3.02315
2.36381
1.89264
1.58843
1.27402
1.1215
1.0489
0.994732
0.947595
0.927868
0.903934
0.864196
0.802431
0.75866
0.72796
0.732697
0.748928
0.805604
1.03863
3.29962
3.27357
3.11158
2.65679
2.18772
1.79476
1.49384
1.30409
1.23795
1.16528
1.06512
0.999961
0.936031
0.859847
0.828841
0.81979
0.79559
0.76897
0.760987
0.811508
2.35516
2.98338
3.0927
3.05531
2.86315
2.51106
2.08511
1.72994
1.49387
1.34128
1.18212
1.09256
1.04826
0.994241
0.96643
0.950962
0.919641
0.86861
0.802332
0.804022
1.5512
2.00919
2.57794
2.95057
2.94895
2.90053
2.69231
2.3636
1.99575
1.72157
1.50835
1.35031
1.28217
1.19938
1.11026
1.0433
0.98106
0.92014
0.88042
0.850001
1.40626
1.46235
1.68625
2.16503
2.59579
2.82303
2.81356
2.75517
2.5608
2.25348
1.96897
1.69273
1.50216
1.37072
1.23377
1.13952
1.0835
1.02641
1.01299
0.976357
1.40013
1.40159
1.41474
1.50768
1.77348
2.19541
2.55208
2.70307
2.69174
2.62959
2.4708
2.21196
1.92471
1.7132
1.52989
1.38813
1.31093
1.24084
1.16635
1.06119
1.40001
1.40002
1.40021
1.40333
1.4267
1.53915
1.8045
2.17612
2.4705
2.59472
2.58681
2.53912
2.39572
2.17125
1.93551
1.70486
1.53237
1.40491
1.29855
1.16554
1.40001
1.40001
1.40001
1.40004
1.40047
1.40541
1.43401
1.55194
1.79966
2.12848
2.382
2.49942
2.4929
2.45281
2.3454
2.15311
1.92801
1.71643
1.5741
1.39942
1.40001
1.40001
1.40001
1.40001
1.40001
1.40007
1.40069
1.40658
1.43751
1.54677
1.769
2.06299
2.28964
2.41207
2.40824
2.38069
2.2971
2.13468
1.9515
1.67306
1.40001
1.40001
1.40001
1.40001
1.40001
1.40001
1.40001
1.40009
1.40083
1.40666
1.43496
1.53295
1.72477
1.99379
2.19528
2.33036
2.32826
2.31063
2.25917
2.0472
1.40001
1.40001
1.40001
1.40001
1.40001
1.40001
1.40001
1.40001
1.40001
1.40009
1.4008
1.40603
1.43062
1.51105
1.67644
1.91946
2.11107
2.238
2.25658
2.2249
1.40001
1.40001
1.40001
1.40001
1.40001
1.40001
1.40001
1.40001
1.40001
1.40001
1.40001
1.40008
1.40072
1.4046
1.42556
1.48751
1.62987
1.83834
2.01982
2.16598
1.40001
1.40001
1.40001
1.40001
1.40001
1.40001
1.40001
1.40001
1.40001
1.40001
1.40001
1.40001
1.40001
1.40007
1.40059
1.40351
1.41977
1.47193
1.59035
1.94096
2.26417
3.42448
3.5963
2.90749
1.83084
1.45146
1.40262
1.40007
1.40001
1.40001
1.40001
1.40001
1.40001
1.40001
1.40001
3.25625
3.91487
3.52026
2.15342
1.46733
1.40113
1.40001
1.4
1.40001
1.40001
1.40001
1.40001
1.40001
1.40001
1.40001
4.07376
3.99316
2.76417
1.61276
1.4073
1.40008
1.40001
1.40001
1.40001
1.40001
1.40001
1.40001
1.40001
1.40001
1.40001
4.51773
3.55767
1.90687
1.42677
1.40026
1.40001
1.40001
1.40001
1.40001
1.40001
1.40001
1.40001
1.40001
1.40001
1.40001
4.61271
2.34871
1.46594
1.40074
1.40001
1.40001
1.40001
1.40001
1.40001
1.40001
1.40001
1.40001
1.40001
1.40001
1.40001
2.88411
1.50139
1.40066
1.4
1.4
1.40001
1.40001
1.40001
1.40001
1.40001
1.40001
1.40001
1.40001
1.40001
1.40001
1.54335
1.4008
1.4
1.4
1.40001
1.40001
1.40001
1.40001
1.40001
1.40001
1.40001
1.40001
1.40001
1.40001
1.40001
1.39741
1.39982
1.4
1.40001
1.40001
1.40001
1.40001
1.40001
1.40001
1.40001
1.40001
1.40001
1.40001
1.40001
1.40001
1.39996
1.40001
1.40001
1.40001
1.40001
1.40001
1.40001
1.40001
1.40001
1.40001
1.40001
1.40001
1.40001
1.40001
1.40001
1.40001
1.40001
1.40001
1.40001
1.40001
1.40001
1.40001
1.40001
1.40001
1.40001
1.40001
1.40001
1.40001
1.40001
1.40001
1.40001
1.40001
1.40001
1.40001
1.40001
1.40001
1.40001
1.40001
1.40001
1.40001
1.40001
1.40001
1.40001
1.40001
1.40001
1.40001
1.40001
1.40001
1.40001
1.40001
1.40001
1.40001
1.40001
1.40001
1.40001
1.40001
1.40001
1.40001
1.40001
1.40001
1.40001
1.40001
1.40001
1.40001
1.40001
1.40001
1.40001
1.40001
1.40001
1.40001
1.40001
1.40001
1.40001
1.40001
1.40001
1.40001
1.40001
1.40001
1.40001
1.40001
1.40001
1.40001
1.40001
1.40001
1.40001
1.40001
1.40001
1.40001
1.40001
1.40001
1.40001
1.40001
1.40001
1.40001
1.40001
1.40001
1.40001
1.40001
1.40001
1.40001
1.40001
1.40001
1.40001
1.40001
1.40001
1.40001
1.40001
1.40001
1.40001
1.40001
1.40001
1.40001
1.40001
1.40001
1.40001
1.40001
1.40001
1.40001
1.40001
1.40001
1.40001
1.40001
1.40001
1.40001
1.40001
1.40001
1.40001
1.40001
1.40001
1.40001
1.40001
1.40001
1.40001
1.40001
1.40001
1.40001
1.40001
1.40001
1.40001
1.40001
1.40001
1.40001
1.40001
1.40001
1.40001
1.40001
1.40001
1.40001
1.40001
1.40001
1.40001
1.40001
1.40001
1.40001
1.40001
1.40001
1.40001
1.40001
1.40001
1.40001
1.40001
1.40001
1.40001
1.40001
1.40001
1.40001
1.40001
1.40001
1.40001
1.40001
1.40001
1.40001
1.40001
1.40001
1.40001
1.40001
1.40001
1.40001
1.40001
1.40001
1.40001
1.40001
1.40001
1.40001
1.40001
1.40001
1.40001
1.40001
1.40001
1.40001
1.40001
1.40001
1.40001
1.40001
1.40001
1.40001
1.40001
1.40001
1.40001
1.40001
1.40001
1.40001
1.40001
1.40001
1.40001
1.40001
1.40001
1.40001
1.40001
1.40001
1.40001
1.40001
1.40001
1.40001
1.40001
1.40001
1.40001
1.40001
1.40001
1.40001
1.40001
1.40001
1.40001
1.40001
1.40001
1.40001
1.40001
1.40001
1.40001
1.40001
1.40001
1.40001
1.40001
1.40001
1.40001
1.40001
1.40001
1.40001
1.40001
1.40001
1.40001
1.40001
1.40001
1.40001
1.40001
1.40001
1.40001
1.40001
1.40001
1.40001
1.40001
1.40001
1.40001
1.40001
1.40001
1.40001
1.40001
1.40001
1.40001
1.40001
1.40001
1.40001
1.40001
1.40001
1.40001
1.40001
1.40001
1.40001
1.40001
1.40001
1.40001
1.40001
1.40001
1.40001
1.40001
1.40001
1.40001
1.40001
1.40001
1.40001
1.40001
1.40001
1.40001
1.40001
1.40001
1.40001
1.40001
1.40001
1.40001
1.40001
1.40001
1.40001
1.40001
1.40001
1.40001
1.40001
1.40001
1.40001
1.40001
1.40001
1.40001
1.40001
1.40001
1.40001
1.40001
1.40001
1.40001
1.40001
1.40001
1.40001
1.40001
1.40001
1.40001
1.40001
1.40001
1.40001
1.40001
1.40001
1.40001
1.40001
1.40001
1.40001
1.40001
1.40001
1.40001
1.40001
1.40001
1.40001
1.40001
1.40001
1.40001
1.40001
1.40001
1.40001
1.40001
1.40001
1.40001
1.40001
1.40001
1.40001
1.40001
1.40001
1.40001
1.40001
1.40001
1.40001
1.40001
1.40001
1.40001
1.40001
1.40001
1.40001
1.40001
1.40001
1.40001
1.40001
1.40001
1.40001
1.40001
1.40001
1.40001
1.40001
1.40001
1.40001
1.40001
1.40001
1.40001
1.40001
1.40001
1.40001
1.40001
1.40001
1.40001
1.40001
1.40001
1.40001
1.40001
1.40001
1.40001
1.40001
1.40001
1.40001
1.40001
1.40001
1.40001
1.40001
1.40001
1.40001
1.40001
1.40001
1.40001
1.40001
1.40001
1.40001
1.40001
1.40001
1.40001
1.40001
1.40001
1.40001
1.40001
1.40001
1.40001
1.40001
1.40001
1.40001
1.40001
1.40001
1.40001
1.40001
1.40001
1.40001
1.40001
1.40001
1.40001
1.40001
1.40001
1.40001
1.40001
1.40001
1.40001
1.40001
1.40001
1.40001
1.40001
1.40001
1.40001
1.40001
1.40001
1.40001
1.40001
1.40001
1.40001
1.40001
1.40001
1.40001
1.40001
1.40001
1.40001
1.40001
1.40001
1.40001
1.40001
1.40001
1.40001
1.40001
1.40001
1.40001
1.40001
1.40001
1.40001
1.40001
1.40001
1.40001
1.40001
1.40001
1.40001
1.40001
1.40001
1.40001
1.40001
1.40001
1.40001
1.40001
1.40001
1.40001
1.40001
1.40001
1.40001
1.40001
1.40001
1.40001
1.40001
1.40001
1.40001
1.40001
1.40001
1.40001
1.40001
1.40001
1.40001
1.40001
1.40001
1.40001
1.40001
1.40001
1.40001
1.40001
1.40001
1.40001
1.40001
1.40001
1.40001
1.40001
1.40001
1.40001
1.40001
1.40001
1.40001
1.40001
1.40001
1.40001
1.40001
1.40001
1.40001
1.40001
1.40001
1.40001
1.40001
1.40001
1.40001
1.40001
1.40001
1.40001
1.40001
1.40001
1.40001
1.40001
1.40001
1.40001
1.40001
1.40001
1.40001
1.40001
1.40001
1.40001
1.40001
1.40001
1.40001
1.40001
1.40001
1.40001
1.40001
1.40001
1.40001
1.40001
1.40001
1.40001
1.40001
1.40001
1.40001
1.40001
1.40001
1.40001
1.40001
1.40001
1.40001
1.40001
1.40001
1.40001
1.40001
1.40001
1.40001
1.40001
1.40001
1.40001
1.40001
1.40001
1.40001
1.40001
1.40001
1.40001
1.40001
1.40001
1.40001
1.40001
1.40001
1.40001
1.40001
1.40001
1.40001
1.40001
1.40001
1.40001
1.40001
1.40001
1.40001
1.40001
1.40001
1.40001
1.40001
1.40001
1.40001
1.40001
1.40001
1.40001
1.40001
1.40001
1.40001
1.40001
1.40001
1.40001
1.40001
1.40001
1.40001
1.40001
1.40001
1.40001
1.40001
1.40001
1.40001
1.40001
1.40001
1.40001
1.40001
1.40001
1.40001
1.40001
1.40001
1.40001
1.40001
1.40001
1.40001
1.40001
1.40001
1.40001
1.40001
1.40001
1.40001
1.40001
1.40001
1.40001
1.40001
1.40001
1.40001
1.40001
1.40001
1.40001
1.40001
1.40001
1.40001
1.40001
1.40001
1.40001
1.40001
1.40001
1.40001
1.40001
1.40001
1.40001
1.40001
1.40001
1.40001
1.40001
1.40001
1.40001
1.40001
1.40001
1.40001
1.40001
1.40001
1.40001
1.40001
1.40001
1.40001
1.40001
1.40001
1.40001
1.40001
1.40001
1.40001
1.40001
1.40001
1.40001
1.40001
1.40001
1.40001
1.40001
1.40001
1.40001
1.40001
1.40001
1.40001
1.40001
1.40001
1.40001
1.40001
1.40001
1.40001
1.40001
1.40001
1.40001
1.40001
1.40001
1.40001
1.40001
1.40001
1.40001
1.40001
1.40001
1.40001
1.40001
1.40001
1.40001
1.40001
1.40001
1.40001
1.40001
1.40001
1.40001
1.40001
1.40001
1.40001
1.40001
1.40001
1.40001
1.40001
1.40001
1.40001
1.40001
1.40001
1.40001
1.40001
1.40001
1.40001
1.40001
1.40001
1.40001
1.40001
1.40001
1.40001
1.40001
1.40001
1.40001
1.40001
1.40001
1.40001
1.40001
1.40001
1.40001
1.40001
1.40001
1.40001
1.40001
1.40001
1.40001
1.40001
1.40001
1.40001
1.40001
1.40001
1.40001
1.40001
1.40001
1.40001
1.40001
1.40001
1.40001
1.40001
1.40001
1.40001
1.40001
1.40001
1.40001
1.40001
1.40001
1.40001
1.40001
1.40001
1.40001
1.40001
1.40001
1.40001
1.40001
1.40001
1.40001
1.40001
1.40001
1.40001
1.40001
1.40001
1.40001
1.40001
1.40001
1.40001
1.40001
1.40001
1.40001
1.40001
1.40001
1.40001
1.40001
1.40001
1.40001
1.40001
1.40001
1.40001
1.40001
1.40001
1.40001
1.40001
1.40001
1.40001
1.40001
1.40001
1.40001
1.40001
1.40001
1.40001
1.40001
1.40001
1.40001
1.40001
1.40001
1.40001
1.40001
1.40001
1.40001
1.40001
1.40001
1.40001
1.40001
1.40001
1.40001
1.40001
1.40001
1.40001
1.40001
1.40001
1.40001
1.40001
1.40001
1.40001
1.40001
1.40001
1.40001
1.40001
1.40001
1.40001
1.40001
1.40001
1.40001
1.40001
1.40001
1.40001
1.40001
1.40001
1.40001
1.40001
1.40001
1.40001
1.40001
1.40001
1.40001
1.40001
1.39996
1.40001
1.40001
1.40001
1.40001
1.40001
1.40001
1.40001
1.40001
1.40001
1.40001
1.40001
1.40001
1.40001
1.40001
1.3974
1.39982
1.4
1.40001
1.40001
1.40001
1.40001
1.40001
1.40001
1.40001
1.40001
1.40001
1.40001
1.40001
1.40001
1.54334
1.40081
1.4
1.4
1.40001
1.40001
1.40001
1.40001
1.40001
1.40001
1.40001
1.40001
1.40001
1.40001
1.40001
2.88464
1.5015
1.40065
1.4
1.4
1.4
1.40001
1.40001
1.40001
1.40001
1.40001
1.40001
1.40001
1.40001
1.40001
4.61282
2.34893
1.46601
1.40075
1.40001
1.40001
1.40001
1.40001
1.40001
1.40001
1.40001
1.40001
1.40001
1.40001
1.40001
4.51684
3.55718
1.9067
1.42675
1.40026
1.40001
1.40001
1.40001
1.40001
1.40001
1.40001
1.40001
1.40001
1.40001
1.40001
4.0734
3.99255
2.76443
1.61275
1.40729
1.40008
1.40001
1.40001
1.40001
1.40001
1.40001
1.40001
1.40001
1.40001
1.40001
3.25474
3.91463
3.52014
2.15378
1.4674
1.40113
1.40001
1.4
1.40001
1.40001
1.40001
1.40001
1.40001
1.40001
1.40001
2.26417
3.42364
3.59596
2.90759
1.83101
1.45147
1.40262
1.40007
1.40001
1.40001
1.40001
1.40001
1.40001
1.40001
1.40001
1.73061
2.84459
3.49244
3.29889
2.35385
1.55096
1.40625
1.40013
1.40001
1.40001
1.40001
1.40001
1.40001
1.40001
1.40001
1.35768
2.00896
3.02346
3.27325
2.98427
2.00904
1.46231
1.40159
1.40002
1.40001
1.40001
1.40001
1.40001
1.40001
1.40001
1.18151
1.65126
2.35578
3.11206
3.09157
2.57772
1.6864
1.41476
1.40021
1.40001
1.40001
1.40001
1.40001
1.40001
1.40001
0.981915
1.4548
1.90092
2.6517
3.05253
2.95031
2.16603
1.50796
1.40334
1.40004
1.40001
1.40001
1.40001
1.40001
1.40001
0.815948
1.18189
1.58873
2.19178
2.86651
2.94885
2.59629
1.77392
1.42672
1.40047
1.40001
1.40001
1.40001
1.40001
1.40001
0.788639
0.984776
1.27105
1.7884
2.51303
2.90111
2.82363
2.1956
1.53911
1.4054
1.40007
1.40001
1.40001
1.40001
1.40001
0.810773
0.963911
1.13293
1.49193
2.0676
2.6961
2.81386
2.5522
1.80429
1.43397
1.40069
1.40001
1.40001
1.40001
1.40001
0.806276
0.928245
1.05413
1.33665
1.7301
2.35487
2.75401
2.70223
2.17564
1.55182
1.40658
1.40009
1.40001
1.40001
1.40001
0.773395
0.859096
0.973952
1.24372
1.51374
1.98369
2.55967
2.69106
2.46998
1.79957
1.43752
1.40083
1.40001
1.40001
1.40001
0.747419
0.813688
0.919703
1.14045
1.35498
1.73092
2.25331
2.62931
2.59449
2.12856
1.54686
1.40666
1.40009
1.40001
1.40001
0.705741
0.782439
0.916016
1.04511
1.18162
1.52254
1.96914
2.4705
2.58659
2.38197
1.76911
1.43498
1.4008
1.40001
1.40001
0.668635
0.768746
0.903473
0.989132
1.08492
1.35093
1.6916
2.21131
2.53891
2.49926
2.06294
1.53296
1.40603
1.40008
1.40001
0.646773
0.749411
0.867792
0.929315
1.03672
1.27712
1.50286
1.92273
2.39527
2.49278
2.28957
1.72475
1.43062
1.40072
1.40001
0.643841
0.71813
0.811207
0.862926
0.984075
1.19281
1.37194
1.71155
2.17072
2.45281
2.41213
1.9939
1.51111
1.40461
1.40007
0.670366
0.678567
0.774326
0.834568
0.964714
1.10795
1.23568
1.52932
1.93642
2.34573
2.40844
2.1956
1.67662
1.42558
1.40059
0.795476
0.682426
0.741397
0.823731
0.95279
1.04157
1.13956
1.3933
1.70735
2.15356
2.38106
2.33082
1.91981
1.48758
1.40351
1.04215
0.735023
0.740451
0.801046
0.924476
0.980263
1.0825
1.31509
1.53255
1.92852
2.29787
2.32876
2.11153
1.63002
1.41978
1.23935
0.891632
0.746905
0.769492
0.874762
0.918013
1.0288
1.24139
1.40199
1.71763
2.13582
2.31113
2.23836
1.83857
1.47196
1.3138
1.10099
0.800796
0.762427
0.808839
0.877032
1.01576
1.16443
1.29491
1.57598
1.95236
2.2596
2.25691
2.01999
1.5904
1.32901
1.26888
1.03756
0.813672
0.810219
0.84597
0.977685
1.05951
1.16225
1.40022
1.67305
2.04739
2.22513
2.16611
1.94097
1.20628
1.08273
0.921134
0.762866
0.722454
0.720668
0.730753
0.703444
0.678825
0.6472
0.614133
0.585495
0.590732
0.643289
0.866006
1.16575
1.22109
1.3036
1.35669
1.34312
0.95471
0.867338
0.746446
0.643598
0.645666
0.664958
0.671178
0.650542
0.629424
0.59576
0.561615
0.561094
0.612368
0.871044
1.19343
1.31288
1.27416
1.29347
1.34417
1.34639
0.736612
0.703475
0.621398
0.575001
0.580436
0.602591
0.602386
0.586854
0.572274
0.54576
0.540516
0.605838
0.869475
1.16585
1.28232
1.32879
1.31361
1.30659
1.33158
1.34429
0.560359
0.561034
0.529367
0.522008
0.535478
0.544061
0.533321
0.521594
0.513414
0.513475
0.615215
0.902668
1.19273
1.30266
1.29941
1.3215
1.33011
1.31817
1.32346
1.33834
0.439999
0.447192
0.458948