/*--------------------------------*- C++ -*----------------------------------*\
  =========                 |
  \\      /  F ield         | OpenFOAM: The Open Source CFD Toolbox
   \\    /   O peration     | Website:  https://openfoam.org
    \\  /    A nd           | Version:  7
     \\/     M anipulation  |
\*---------------------------------------------------------------------------*/
FoamFile
{
    version     2.0;
    format      ascii;
    class       volScalarField;
    location    "5.5";
    object      T;
}
// * * * * * * * * * * * * * * * * * * * * * * * * * * * * * * * * * * * * * //

dimensions      [0 0 0 1 0 0 0];

internalField   nonuniform List<scalar> 
3700
(
100.428
100.68
100.724
100.812
100.845
100.889
100.998
101.103
101.116
101.102
101.068
101.055
101.1
101.144
101.14
101.114
101.1
101.095
101.088
101.077
100.075
100.126
100.238
100.365
100.36
100.396
100.59
100.776
100.779
100.695
100.468
100.414
100.526
100.602
100.581
100.505
100.487
100.506
100.55
100.526
100.067
100.091
100.123
100.115
100.061
99.9937
99.9264
99.8981
99.886
99.8889
99.9017
99.9283
99.9624
99.998
100.023
100.035
100.04
100.038
100.031
100.021
100.094
100.107
100.114
100.087
100.053
100.036
100.028
100.022
100.001
99.9952
99.9514
99.9467
99.9555
99.9918
100.026
100.047
100.064
100.082
100.09
100.092
100.154
100.119
100.081
100.052
100.049
100.041
100.058
100.093
100.103
100.1
100.09
100.082
100.052
100.031
100.027
100.039
100.063
100.095
100.118
100.148
100.24
100.119
99.9987
99.9652
99.9699
99.9825
100.035
100.096
100.128
100.142
100.156
100.153
100.151
100.143
100.128
100.109
100.097
100.1
100.126
100.185
100.274
100.075
99.9265
99.92
99.927
99.9434
99.991
100.052
100.096
100.142
100.172
100.179
100.198
100.202
100.206
100.207
100.202
100.196
100.195
100.224
100.271
100.019
99.8995
99.9066
99.9103
99.9338
99.9874
100.041
100.074
100.117
100.154
100.175
100.208
100.228
100.246
100.266
100.274
100.28
100.283
100.312
100.226
99.9746
99.8855
99.9187
99.937
100.004
100.068
100.104
100.117
100.143
100.154
100.174
100.203
100.235
100.266
100.297
100.324
100.343
100.353
100.39
100.146
99.9167
99.8423
99.9075
99.9583
100.064
100.148
100.183
100.217
100.25
100.263
100.278
100.291
100.303
100.313
100.333
100.366
100.397
100.422
100.455
100.069
99.8586
99.7797
99.858
99.955
100.09
100.181
100.211
100.263
100.319
100.345
100.363
100.38
100.39
100.403
100.417
100.435
100.455
100.499
100.496
100.015
99.8106
99.7322
99.854
99.9824
100.142
100.203
100.221
100.282
100.352
100.394
100.421
100.444
100.455
100.474
100.495
100.52
100.542
100.575
100.566
99.9642
99.7595
99.702
99.8649
100.094
100.292
100.313
100.355
100.407
100.439
100.467
100.486
100.503
100.515
100.539
100.569
100.6
100.627
100.658
100.653
99.8905
99.6815
99.6886
99.9313
100.245
100.408
100.436
100.486
100.53
100.561
100.575
100.586
100.595
100.605
100.624
100.65
100.681
100.712
100.728
100.735
99.7431
99.6117
99.7214
100.128
100.389
100.477
100.521
100.566
100.607
100.636
100.65
100.666
100.682
100.703
100.728
100.751
100.771
100.785
100.781
100.775
99.4222
99.6013
99.9783
100.322
100.49
100.543
100.595
100.644
100.685
100.706
100.722
100.743
100.767
100.793
100.813
100.823
100.822
100.816
100.792
100.747
99.3001
99.787
100.207
100.461
100.602
100.685
100.729
100.765
100.79
100.805
100.817
100.833
100.85
100.856
100.855
100.844
100.792
100.679
100.519
100.281
99.5704
100.144
100.491
100.665
100.762
100.811
100.841
100.864
100.875
100.881
100.881
100.882
100.881
100.858
100.772
100.622
100.36
100.102
100.006
99.9978
100.124
100.528
100.729
100.833
100.891
100.91
100.923
100.921
100.916
100.907
100.893
100.84
100.727
100.471
100.148
100.01
99.9966
99.9985
99.9992
99.9998
100.695
100.835
100.912
100.95
100.965
100.957
100.954
100.928
100.841
100.76
100.575
100.234
100.03
99.9958
99.9978
99.9989
99.9998
100
100
100
100.996
100.994
100.99
100.99
100.985
100.955
100.88
100.446
99.8505
100
100
100
100
100
100
100
100
100
100
100
100.994
100.991
100.984
100.974
100.959
100.873
100.512
100.019
100
100
100
100
100
100
100
100
100
100
100
100
100.989
100.99
100.985
100.964
100.911
100.634
100.042
99.9992
100
100
100
100
100
100
100
100
100
100
100
100
100.985
100.989
100.984
100.953
100.781
100.227
99.9964
100
100
100
100
100
100
100
100
100
100
100
100
100
100.981
100.988
100.983
100.92
100.554
99.9923
100
100
100
100
100
100
100
100
100
100
100
100
100
100
100.979
100.989
100.982
100.835
100.288
100
100
100
100
100
100
100
100
100
100
100
100
100
100
100
100.978
100.991
100.979
100.701
99.9929
100
100
100
100
100
100
100
100
100
100
100
100
100
100
100
100.981
100.976
100.919
100.462
99.9996
100
100
100
100
100
100
100
100
100
100
100
100
100
100
100
101
100.963
100.818
100.16
100
100
100
100
100
100
100
100
100
100
100
100
100
100
100
100
101.014
100.942
100.674
99.9964
100
100
100
100
100
100
100
100
100
100
100
100
100
100
100
100
101.024
100.901
100.501
100
100
100
100
100
100
100
100
100
100
100
100
100
100
100
100
100
101.03
100.85
100.317
100
100
100
100
100
100
100
100
100
100
100
100
100
100
100
100
100
101.034
100.799
100.114
100
100
100
100
100
100
100
100
100
100
100
100
100
100
100
100
100
101.032
100.742
100.011
100
100
100
100
100
100
100
100
100
100
100
100
100
100
100
100
100
101.008
100.677
100
100
100
100
100
100
100
100
100
100
100
100
100
100
100
100
100
100
100.985
100.559
100
100
100
100
100
100
100
100
100
100
100
100
100
100
100
100
100
100
100.946
100.421
100
100
100
100
100
100
100
100
100
100
100
100
100
100
100
100
100
100
100.914
100.241
100
100
100
100
100
100
100
100
100
100
100
100
100
100
100
100
100
100
100.868
100.005
100
100
100
100
100
100
100
100
100
100
100
100
100
100
100
100
100
100
100.808
100
100
100
100
100
100
100
100
100
100
100
100
100
100
100
100
100
100
100
100.808
100
100
100
100
100
100
100
100
100
100
100
100
100
100
100
100
100
100
100
100.867
100.005
100
100
100
100
100
100
100
100
100
100
100
100
100
100
100
100
100
100
100.916
100.243
100
100
100
100
100
100
100
100
100
100
100
100
100
100
100
100
100
100
100.947
100.424
100
100
100
100
100
100
100
100
100
100
100
100
100
100
100
100
100
100
100.984
100.558
100
100
100
100
100
100
100
100
100
100
100
100
100
100
100
100
100
100
101.008
100.674
100
100
100
100
100
100
100
100
100
100
100
100
100
100
100
100
100
100
101.031
100.743
100.012
100
100
100
100
100
100
100
100
100
100
100
100
100
100
100
100
100
101.035
100.8
100.116
100
100
100
100
100
100
100
100
100
100
100
100
100
100
100
100
100
101.031
100.852
100.317
100
100
100
100
100
100
100
100
100
100
100
100
100
100
100
100
100
101.024
100.901
100.502
100
100
100
100
100
100
100
100
100
100
100
100
100
100
100
100
100
101.015
100.943
100.673
99.9964
100
100
100
100
100
100
100
100
100
100
100
100
100
100
100
100
101
100.963
100.818
100.16
100
100
100
100
100
100
100
100
100
100
100
100
100
100
100
100
100.98
100.975
100.917
100.462
99.9997
100
100
100
100
100
100
100
100
100
100
100
100
100
100
100
100.978
100.99
100.978
100.699
99.9927
100
100
100
100
100
100
100
100
100
100
100
100
100
100
100
100.98
100.99
100.983
100.835
100.29
100
100
100
100
100
100
100
100
100
100
100
100
100
100
100
100.982
100.989
100.984
100.921
100.557
99.9923
100
100
100
100
100
100
100
100
100
100
100
100
100
100
100.985
100.989
100.984
100.954
100.781
100.225
99.9965
100
100
100
100
100
100
100
100
100
100
100
100
100
100.989
100.99
100.985
100.965
100.91
100.632
100.04
99.9992
100
100
100
100
100
100
100
100
100
100
100
100
100.994
100.991
100.984
100.974
100.957
100.871
100.513
100.02
100
100
100
100
100
100
100
100
100
100
100
100
100.996
100.994
100.99
100.99
100.985
100.955
100.882
100.449
99.8494
100
100
100
100
100
100
100
100
100
100
100
100.695
100.835
100.911
100.949
100.965
100.957
100.954
100.929
100.841
100.76
100.574
100.233
100.03
99.9958
99.9978
99.9989
99.9998
100
100
100
100.123
100.527
100.731
100.832
100.89
100.91
100.923
100.921
100.916
100.907
100.893
100.84
100.727
100.471
100.147
100.01
99.9966
99.9985
99.9992
99.9998
99.5631
100.142
100.474
100.664
100.764
100.811
100.841
100.864
100.875
100.881
100.881
100.882
100.881
100.858
100.772
100.622
100.36
100.102
100.006
99.9978
99.2711
99.823
100.207
100.443
100.596
100.688
100.731
100.766
100.791
100.806
100.818
100.833
100.851
100.856
100.855
100.844
100.792
100.679
100.519
100.281
99.3358
99.5939
100.004
100.319
100.482
100.536
100.593
100.643
100.685
100.706
100.722
100.742
100.766
100.793
100.813
100.823
100.822
100.816
100.791
100.747
99.6111
99.5708
99.8212
100.151
100.383
100.469
100.518
100.565
100.606
100.634
100.648
100.665
100.682
100.703
100.729
100.752
100.771
100.785
100.781
100.775
99.7554
99.6266
99.6898
99.9528
100.258
100.405
100.436
100.488
100.531
100.561
100.575
100.588
100.597
100.607
100.625
100.65
100.681
100.711
100.728
100.735
99.844
99.6867
99.6868
99.8594
100.113
100.301
100.316
100.365
100.416
100.445
100.47
100.487
100.502
100.514
100.537
100.567
100.599
100.626
100.658
100.654
99.9231
99.7412
99.6996
99.8626
99.9943
100.165
100.207
100.225
100.282
100.346
100.389
100.418
100.442
100.454
100.473
100.495
100.52
100.542
100.576
100.567
100.003
99.8216
99.7595
99.8744
99.966
100.105
100.187
100.208
100.26
100.317
100.345
100.363
100.382
100.391
100.404
100.418
100.437
100.456
100.499
100.496
100.09
99.9062
99.8593
99.9125
99.967
100.073
100.154
100.184
100.221
100.256
100.269
100.283
100.297
100.307
100.316
100.333
100.363
100.395
100.422
100.455
100.179
99.976
99.8889
99.9188
99.9444
100.011
100.078
100.113
100.127
100.151
100.157
100.175
100.199
100.229
100.26
100.292
100.323
100.344
100.355
100.391
100.256
100.023
99.8877
99.8918
99.9038
99.9258
99.9854
100.04
100.069
100.112
100.148
100.17
100.203
100.224
100.243
100.265
100.275
100.283
100.286
100.313
100.298
100.065
99.9014
99.9
99.9104
99.9296
99.9819
100.047
100.087
100.135
100.167
100.176
100.196
100.203
100.208
100.211
100.208
100.201
100.199
100.223
100.296
100.123
99.9519
99.9324
99.9393
99.9608
100.019
100.091
100.125
100.141
100.156
100.154
100.155
100.149
100.138
100.119
100.104
100.102
100.12
100.179
100.255
100.151
100.049
100.019
100.025
100.033
100.055
100.095
100.109
100.105
100.098
100.091
100.065
100.042
100.032
100.037
100.056
100.089
100.114
100.146
100.178
100.142
100.107
100.064
100.045
100.037
100.035
100.037
100.022
100.009
99.9648
99.9567
99.958
99.9853
100.022
100.044
100.059
100.079
100.09
100.096
100.126
100.117
100.12
100.096
100.044
100
99.9423
99.9114
99.8992
99.8956
99.9031
99.9266
99.9574
99.9921
100.02
100.034
100.041
100.042
100.036
100.024
100.126
100.165
100.254
100.286
100.392
100.52
100.469
100.352
100.407
100.59
100.688
100.662
100.512
100.368
100.38
100.456
100.529
100.509
100.45
100.381
100.499
100.711
100.744
100.76
100.829
100.927
100.97
100.987
101.033
101.098
101.138
101.131
101.093
101.048
101.057
101.093
101.101
101.09
101.064
101.027
101.039
101.02
101.016
101.001
100.968
100.938
100.907
100.893
100.886
100.875
100.861
100.852
100.845
100.843
100.842
100.837
100.828
100.818
100.81
100.804
100.569
100.635
100.723
100.741
100.766
100.794
100.802
100.799
100.8
100.801
100.801
100.8
100.797
100.797
100.799
100.801
100.799
100.795
100.788
100.781
100.022
100.071
100.189
100.277
100.417
100.52
100.583
100.617
100.636
100.657
100.677
100.684
100.688
100.693
100.7
100.711
100.718
100.719
100.719
100.719
100.074
100.085
100.099
100.097
100.118
100.216
100.37
100.447
100.482
100.524
100.563
100.568
100.574
100.579
100.589
100.603
100.615
100.619
100.623
100.63
100.132
100.133
100.127
100.136
100.138
100.134
100.162
100.243
100.346
100.426
100.479
100.5
100.508
100.508
100.51
100.521
100.533
100.537
100.541
100.55
100.191
100.175
100.174
100.177
100.178
100.176
100.175
100.165
100.182
100.265
100.376
100.454
100.474
100.478
100.474
100.475
100.48
100.482
100.488
100.497
100.24
100.228
100.205
100.203
100.208
100.211
100.208
100.199
100.178
100.175
100.229
100.35
100.44
100.46
100.457
100.454
100.452
100.451
100.457
100.467
100.304
100.282
100.248
100.233
100.236
100.241
100.239
100.229
100.212
100.178
100.175
100.212
100.323
100.421
100.438
100.439
100.434
100.434
100.441
100.448
100.369
100.342
100.3
100.264
100.262
100.265
100.264
100.254
100.236
100.207
100.179
100.177
100.2
100.303
100.389
100.421
100.416
100.419
100.431
100.432
100.433
100.406
100.361
100.311
100.287
100.282
100.281
100.269
100.252
100.223
100.2
100.179
100.18
100.192
100.281
100.375
100.388
100.407
100.418
100.413
100.528
100.459
100.419
100.366
100.31
100.292
100.297
100.291
100.274
100.252
100.224
100.203
100.187
100.178
100.182
100.231
100.313
100.364
100.373
100.378
100.62
100.535
100.483
100.445
100.393
100.339
100.322
100.305
100.279
100.259
100.24
100.222
100.203
100.183
100.166
100.154
100.17
100.225
100.276
100.318
100.609
100.587
100.534
100.478
100.437
100.381
100.338
100.309
100.294
100.28
100.264
100.245
100.223
100.195
100.17
100.15
100.14
100.131
100.144
100.219
100.488
100.547
100.541
100.513
100.471
100.424
100.377
100.335
100.317
100.297
100.266
100.239
100.214
100.188
100.169
100.153
100.133
100.113
100.099
100.106
100.251
100.377
100.446
100.482
100.473
100.45
100.411
100.364
100.324
100.292
100.255
100.229
100.211
100.193
100.177
100.162
100.143
100.117
100.092
100.073
100.043
100.146
100.254
100.336
100.388
100.416
100.405
100.381
100.342
100.305
100.271
100.24
100.221
100.198
100.171
100.147
100.123
100.101
100.083
100.061
100.002
100.015
100.065
100.155
100.232
100.29
100.329
100.349
100.339
100.314
100.284
100.246
100.214
100.188
100.158
100.132
100.114
100.097
100.087
100.068
100
100
100.003
100.024
100.078
100.149
100.209
100.25
100.279
100.29
100.282
100.26
100.227
100.198
100.169
100.143
100.126
100.108
100.087
100.056
100
100
100
100.001
100.006
100.03
100.08
100.139
100.187
100.216
100.241
100.244
100.235
100.215
100.188
100.157
100.128
100.104
100.081
100.049
100
100
100
100
100
100.001
100.008
100.033
100.078
100.128
100.169
100.192
100.21
100.209
100.202
100.184
100.156
100.125
100.101
100.069
100
100
100
100
100
100
100
100.001
100.008
100.031
100.073
100.118
100.154
100.174
100.186
100.184
100.177
100.16
100.137
100.097
100
100
100
100
100
100
100
100
100
100.001
100.008
100.029
100.065
100.108
100.139
100.159
100.168
100.167
100.162
100.139
100
100
100
100
100
100
100
100
100
100
100
100.001
100.007
100.024
100.057
100.097
100.127
100.146
100.154
100.151
100
100
100
100
100
100
100
100
100
100
100
100
100
100.001
100.006
100.019
100.048
100.085
100.113
100.137
100
100
100
100
100
100
100
100
100
100
100
100
100
100
100
100.001
100.004
100.016
100.04
100.105
100.597
100.653
100.61
100.416
100.142
100.017
100.001
100
100
100
100
100
100
100
100
100.669
100.662
100.519
100.218
100.022
100
100
100
100
100
100
100
100
100
100
100.703
100.635
100.374
100.074
100.002
100
100
100
100
100
100
100
100
100
100
100.719
100.517
100.167
100.009
100
100
100
100
100
100
100
100
100
100
100
100.649
100.283
100.025
100
100
100
100
100
100
100
100
100
100
100
100
100.395
100.038
100
100
100
100
100
100
100
100
100
100
100
100
100
100.043
100
100
100
100
100
100
100
100
100
100
100
100
100
100
99.9995
100
100
100
100
100
100
100
100
100
100
100
100
100
100
100
100
100
100
100
100
100
100
100
100
100
100
100
100
100
100
100
100
100
100
100
100
100
100
100
100
100
100
100
100
100
100
100
100
100
100
100
100
100
100
100
100
100
100
100
100
100
100
100
100
100
100
100
100
100
100
100
100
100
100
100
100
100
100
100
100
100
100
100
100
100
100
100
100
100
100
100
100
100
100
100
100
100
100
100
100
100
100
100
100
100
100
100
100
100
100
100
100
100
100
100
100
100
100
100
100
100
100
100
100
100
100
100
100
100
100
100
100
100
100
100
100
100
100
100
100
100
100
100
100
100
100
100
100
100
100
100
100
100
100
100
100
100
100
100
100
100
100
100
100
100
100
100
100
100
100
100
100
100
100
100
100
100
100
100
100
100
100
100
100
100
100
100
100
100
100
100
100
100
100
100
100
100
100
100
100
100
100
100
100
100
100
100
100
100
100
100
100
100
100
100
100
100
100
100
100
100
100
100
100
100
100
100
100
100
100
100
100
100
100
100
100
100
100
100
100
100
100
100
100
100
100
100
100
100
100
100
100
100
100
100
100
100
100
100
100
100
100
100
100
100
100
100
100
100
100
100
100
100
100
100
100
100
100
100
100
100
100
100
100
100
100
100
100
100
100
100
100
100
100
100
100
100
100
100
100
100
100
100
100
100
100
100
100
100
100
100
100
100
100
100
100
100
100
100
100
100
100
100
100
100
100
100
100
100
100
100
100
100
100
100
100
100
100
100
100
100
100
100
100
100
100
100
100
100
100
100
100
100
100
100
100
100
100
100
100
100
100
100
100
100
100
100
100
100
100
100
100
100
100
100
100
100
100
100
100
100
100
100
100
100
100
100
100
100
100
100
100
100
100
100
100
100
100
100
100
100
100
100
100
100
100
100
100
100
100
100
100
100
100
100
100
100
100
100
100
100
100
100
100
100
100
100
100
100
100
100
100
100
100
100
100
100
100
100
100
100
100
100
100
100
100
100
100
100
100
100
100
100
100
100
100
100
100
100
100
100
100
100
100
100
100
100
100
100
100
100
100
100
100
100
100
100
100
100
100
100
100
100
100
100
100
100
100
100
100
100
100
100
100
100
100
100
100
100
100
100
100
100
100
100
100
100
100
100
100
100
100
100
100
100
100
100
100
100
100
100
100
100
100
100
100
100
100
100
100
100
100
100
100
100
100
100
100
100
100
100
100
100
100
100
100
100
100
100
100
100
100
100
100
100
100
100
100
100
100
100
100
100
100
100
100
100
100
100
100
100
100
100
100
100
100
100
100
100
100
100
100
100
100
100
100
100
100
100
100
100
100
100
100
100
100
100
100
100
100
100
100
100
100
100
100
100
100
100
100
100
100
100
100
100
100
100
100
100
100
100
100
100
100
100
100
100
100
100
100
100
100
100
100
100
100
100
100
100
100
100
100
100
100
100
100
100
100
100
100
100
100
100
100
100
100
100
100
100
100
100
100
100
100
100
100
100
100
100
100
100
100
100
100
100
100
100
100
100
100
100
100
100
100
100
100
100
100
100
100
100
100
100
100
100
100
100
100
100
100
100
100
100
100
100
100
100
100
100
100
100
100
100
100
100
100
100
100
100
100
100
100
100
100
100
100
100
100
100
100
100
100
100
100
100
100
100
100
100
100
100
100
100
100
100
100
100
100
100
100
100
100
100
100
100
100
100
100
100
100
100
100
100
100
100
100
100
100
100
100
100
100
100
100
100
100
100
100
100
100
100
100
100
100
100
100
100
100
100
100
100
100
100
100
100
100
100
100
100
100
100
100
100
100
100
100
100
100
100
100
100
100
100
100
100
100
100
100
100
100
100
100
100
100
100
100
100
100
100
100
100
100
100
100
100
100
100
100
100
100
100
100
100
100
100
100
100
100
100
100
100
100
100
100
100
100
100
100
100
100
100
100
100
100
100
100
100
100
100
100
100
100
100
100
99.9995
100
100
100
100
100
100
100
100
100
100
100
100
100
100
100.043
100
100
100
100
100
100
100
100
100
100
100
100
100
100
100.395
100.038
100
100
100
100
100
100
100
100
100
100
100
100
100
100.649
100.283
100.025
100
100
100
100
100
100
100
100
100
100
100
100
100.719
100.517
100.167
100.009
100
100
100
100
100
100
100
100
100
100
100
100.703
100.635
100.374
100.074
100.002
100
100
100
100
100
100
100
100
100
100
100.669
100.662
100.519
100.218
100.022
100
100
100
100
100
100
100
100
100
100
100.597
100.653
100.61
100.416
100.142
100.017
100.001
100
100
100
100
100
100
100
100
100.528
100.62
100.609
100.488
100.25
100.043
100.002
100
100
100
100
100
100
100
100
100.458
100.534
100.588
100.547
100.377
100.145
100.015
100
100
100
100
100
100
100
100
100.419
100.481
100.533
100.541
100.445
100.254
100.065
100.003
100
100
100
100
100
100
100
100.37
100.447
100.479
100.512
100.482
100.337
100.155
100.024
100.001
100
100
100
100
100
100
100.313
100.396
100.437
100.472
100.473
100.388
100.232
100.078
100.006
100
100
100
100
100
100
100.29
100.341
100.381
100.423
100.451
100.416
100.29
100.149
100.03
100.001
100
100
100
100
100
100.293
100.321
100.341
100.377
100.409
100.405
100.33
100.209
100.08
100.008
100
100
100
100
100
100.287
100.302
100.312
100.342
100.362
100.38
100.349
100.25
100.139
100.033
100.001
100
100
100
100
100.272
100.277
100.288
100.319
100.326
100.34
100.339
100.279
100.187
100.078
100.008
100
100
100
100
100.256
100.258
100.271
100.292
100.295
100.306
100.314
100.29
100.216
100.128
100.031
100.001
100
100
100
100.231
100.242
100.259
100.262
100.257
100.274
100.284
100.282
100.241
100.169
100.073
100.008
100
100
100
100.207
100.227
100.244
100.237
100.228
100.241
100.246
100.26
100.244
100.192
100.118
100.029
100.001
100
100
100.189
100.21
100.223
100.211
100.208
100.22
100.214
100.227
100.235
100.21
100.154
100.065
100.007
100
100
100.18
100.188
100.197
100.188
100.19
100.197
100.188
100.198
100.215
100.209
100.174
100.108
100.024
100.001
100
100.181
100.165
100.176
100.17
100.176
100.17
100.158
100.169
100.188
100.202
100.186
100.14
100.057
100.006
100
100.226
100.157
100.156
100.154
100.162
100.146
100.132
100.144
100.157
100.184
100.185
100.159
100.097
100.019
100.001
100.31
100.171
100.143
100.134
100.144
100.123
100.114
100.127
100.128
100.156
100.178
100.168
100.128
100.048
100.004
100.364
100.221
100.13
100.113
100.119
100.101
100.098
100.108
100.103
100.125
100.161
100.167
100.146
100.085
100.016
100.376
100.276
100.142
100.1
100.095
100.083
100.089
100.087
100.08
100.101
100.137
100.162
100.154
100.113
100.041
100.379
100.318
100.219
100.107
100.075
100.06
100.068
100.055
100.048
100.069
100.098
100.139
100.151
100.137
100.105
100.431
100.407
100.365
100.315
100.287
100.277
100.277
100.265
100.252
100.23
100.203
100.177
100.177
100.192
100.28
100.364
100.383
100.407
100.419
100.415
100.369
100.343
100.305
100.265
100.259
100.262
100.261
100.252
100.239
100.213
100.179
100.175
100.196
100.299
100.393
100.422
100.414
100.419
100.431
100.432
100.305
100.286
100.249
100.228
100.23
100.239
100.239
100.232
100.219
100.19
100.177
100.209
100.321
100.403
100.431
100.443
100.44
100.437
100.443
100.447
100.24
100.232
100.204
100.199
100.206
100.212
100.209
100.204
100.188
100.18
100.23
100.346
100.434
100.454
100.453
100.458
100.46
100.458
100.46
100.465
100.19
100.178
100.172
100.172
100.175
100.178
100.177
100.169
100.192
100.271
100.373
100.449
100.47
100.475
100.474
100.48
100.488
100.489
100.49
100.496
100.133
100.133
100.128
100.135
100.137
100.136
100.169
100.249
100.356
100.43
100.473
100.497
100.503
100.507
100.513
100.522
100.533
100.538
100.543
100.551
100.075
100.089
100.095
100.095
100.126
100.222
100.374
100.447
100.485
100.527
100.561
100.566
100.571
100.579
100.589
100.599
100.609
100.617
100.624
100.632
100.022
100.072
100.154
100.26
100.437
100.527
100.581
100.615
100.639
100.665
100.68
100.682
100.687
100.695
100.7
100.704
100.708
100.712
100.715
100.719
100.578
100.662
100.679
100.711
100.773
100.808
100.803
100.799
100.804
100.809
100.807
100.802
100.797
100.798
100.799
100.795
100.788
100.785
100.782
100.781
101.036
101.029
101.002
100.986
100.965
100.941
100.909
100.894
100.891
100.884
100.871
100.858
100.846
100.844
100.843
100.833
100.821
100.813
100.809
100.804
)
;

boundaryField
{
    inlet
    {
        type            fixedValue;
        value           uniform 100;
    }
    outlet
    {
        type            inletOutlet;
        inletValue      uniform 100;
        value           nonuniform List<scalar> 
50
(
100.378
100.318
100.219
100.106
100.073
100.061
100.068
100.056
100.049
100.069
100.097
100.139
100.151
100.137
100.105
100.804
100.781
100.718
100.63
100.55
100.497
100.467
100.448
100.432
100.413
100.415
100.432
100.447
100.465
100.496
100.551
100.632
100.719
100.781
100.804
100.379
100.318
100.219
100.107
100.075
100.06
100.068
100.055
100.048
100.069
100.098
100.139
100.151
100.137
100.105
)
;
    }
    airfoil
    {
        type            zeroGradient;
    }
    top
    {
        type            symmetryPlane;
    }
    bottom
    {
        type            symmetryPlane;
    }
    defaultFaces
    {
        type            empty;
    }
}


// ************************************************************************* //
