/*--------------------------------*- C++ -*----------------------------------*\
  =========                 |
  \\      /  F ield         | OpenFOAM: The Open Source CFD Toolbox
   \\    /   O peration     | Website:  https://openfoam.org
    \\  /    A nd           | Version:  7
     \\/     M anipulation  |
\*---------------------------------------------------------------------------*/
FoamFile
{
    version     2.0;
    format      ascii;
    class       volScalarField;
    location    "7.3";
    object      T;
}
// * * * * * * * * * * * * * * * * * * * * * * * * * * * * * * * * * * * * * //

dimensions      [0 0 0 1 0 0 0];

internalField   nonuniform List<scalar> 
3700
(
100.691
100.836
100.987
101.012
100.999
101.02
101.015
101.002
101.015
101.089
101.162
101.166
101.147
101.123
101.124
101.123
101.116
101.094
101.073
101.065
100.338
100.332
100.436
100.421
100.435
100.56
100.575
100.486
100.424
100.495
100.616
100.628
100.561
100.481
100.501
100.566
100.563
100.491
100.441
100.437
100.304
100.237
100.146
100.03
99.9067
99.9
99.9393
99.9994
100.026
100.043
100.057
100.043
100.024
100.004
99.9858
99.9842
99.9968
100.017
100.033
100.043
100.249
100.203
100.118
99.9818
99.8547
99.8688
99.9141
99.968
100.002
100.044
100.08
100.088
100.096
100.095
100.079
100.058
100.026
100.017
100.032
100.076
100.15
100.11
100.036
99.8885
99.8352
99.858
99.9045
99.9472
99.976
100.016
100.056
100.085
100.11
100.128
100.134
100.136
100.122
100.1
100.076
100.087
100.066
100.008
99.9176
99.8558
99.8486
99.9032
99.943
99.951
99.9761
100.015
100.039
100.061
100.093
100.127
100.149
100.167
100.18
100.184
100.178
100.181
99.9808
99.9198
99.8815
99.8939
99.9303
100.003
100.039
100.05
100.065
100.085
100.066
100.073
100.087
100.111
100.139
100.172
100.205
100.231
100.241
100.267
99.9087
99.8761
99.9076
99.9361
100.001
100.069
100.087
100.115
100.163
100.175
100.177
100.177
100.172
100.172
100.17
100.184
100.217
100.262
100.288
100.33
99.8504
99.8763
99.9439
99.9859
100.068
100.132
100.107
100.14
100.206
100.23
100.249
100.255
100.273
100.277
100.28
100.284
100.289
100.309
100.335
100.39
99.8033
99.8899
99.9804
100.023
100.107
100.175
100.144
100.168
100.214
100.253
100.28
100.298
100.331
100.34
100.352
100.363
100.375
100.391
100.415
100.452
99.7739
99.9038
99.999
100.021
100.122
100.188
100.182
100.231
100.268
100.289
100.307
100.331
100.364
100.383
100.404
100.425
100.446
100.465
100.505
100.495
99.7836
99.9008
99.956
100.018
100.151
100.221
100.258
100.318
100.356
100.395
100.412
100.429
100.441
100.449
100.46
100.481
100.511
100.537
100.58
100.572
99.8444
99.7888
99.9246
100.079
100.176
100.254
100.32
100.378
100.43
100.473
100.489
100.508
100.523
100.536
100.551
100.568
100.59
100.614
100.653
100.656
99.8497
99.733
99.9154
100.109
100.181
100.247
100.356
100.415
100.478
100.527
100.549
100.571
100.59
100.611
100.638
100.663
100.686
100.708
100.725
100.735
99.8237
99.7279
99.8782
100.068
100.194
100.346
100.445
100.517
100.584
100.613
100.629
100.645
100.665
100.693
100.726
100.752
100.771
100.783
100.779
100.775
99.7272
99.7453
99.9054
100.115
100.348
100.564
100.63
100.675
100.71
100.724
100.733
100.749
100.769
100.794
100.815
100.823
100.821
100.813
100.788
100.745
99.4888
99.7158
100.098
100.432
100.622
100.7
100.743
100.777
100.799
100.808
100.817
100.834
100.851
100.857
100.856
100.844
100.792
100.678
100.516
100.278
99.4692
100.071
100.468
100.667
100.774
100.811
100.839
100.862
100.878
100.881
100.88
100.882
100.881
100.859
100.773
100.622
100.357
100.101
100.006
99.9978
100.12
100.524
100.744
100.837
100.881
100.902
100.923
100.927
100.921
100.908
100.892
100.836
100.724
100.473
100.15
100.011
99.9967
99.9985
99.9992
99.9998
100.694
100.834
100.911
100.944
100.958
100.952
100.955
100.935
100.844
100.759
100.569
100.229
100.028
99.9956
99.9977
99.9989
99.9998
100
100
100
100.996
100.994
100.99
100.984
100.974
100.951
100.892
100.48
99.832
100
100
100
100
100
100
100
100
100
100
100
100.997
100.994
100.988
100.974
100.948
100.852
100.494
100.018
100
100
100
100
100
100
100
100
100
100
100
100
100.993
100.994
100.989
100.97
100.919
100.616
100.024
99.9996
100
100
100
100
100
100
100
100
100
100
100
100
100.988
100.993
100.989
100.956
100.79
100.224
99.9969
100
100
100
100
100
100
100
100
100
100
100
100
100
100.982
100.993
100.987
100.918
100.585
99.9918
100
100
100
100
100
100
100
100
100
100
100
100
100
100
100.975
100.989
100.984
100.839
100.261
100
100
100
100
100
100
100
100
100
100
100
100
100
100
100
100.971
100.977
100.967
100.695
99.9927
100
100
100
100
100
100
100
100
100
100
100
100
100
100
100
100.978
100.971
100.912
100.472
100
100
100
100
100
100
100
100
100
100
100
100
100
100
100
100
101.005
100.972
100.817
100.124
100
100
100
100
100
100
100
100
100
100
100
100
100
100
100
100
101.017
100.943
100.685
99.9965
100
100
100
100
100
100
100
100
100
100
100
100
100
100
100
100
101.026
100.907
100.512
100
100
100
100
100
100
100
100
100
100
100
100
100
100
100
100
100
101.03
100.859
100.318
100
100
100
100
100
100
100
100
100
100
100
100
100
100
100
100
100
101.032
100.8
100.121
100
100
100
100
100
100
100
100
100
100
100
100
100
100
100
100
100
101.021
100.734
100.006
100
100
100
100
100
100
100
100
100
100
100
100
100
100
100
100
100
101.01
100.655
100
100
100
100
100
100
100
100
100
100
100
100
100
100
100
100
100
100
100.988
100.57
100
100
100
100
100
100
100
100
100
100
100
100
100
100
100
100
100
100
100.963
100.456
100
100
100
100
100
100
100
100
100
100
100
100
100
100
100
100
100
100
100.912
100.239
100
100
100
100
100
100
100
100
100
100
100
100
100
100
100
100
100
100
100.851
100.005
100
100
100
100
100
100
100
100
100
100
100
100
100
100
100
100
100
100
100.811
100
100
100
100
100
100
100
100
100
100
100
100
100
100
100
100
100
100
100
100.812
100
100
100
100
100
100
100
100
100
100
100
100
100
100
100
100
100
100
100
100.851
100.005
100
100
100
100
100
100
100
100
100
100
100
100
100
100
100
100
100
100
100.909
100.234
100
100
100
100
100
100
100
100
100
100
100
100
100
100
100
100
100
100
100.964
100.455
100
100
100
100
100
100
100
100
100
100
100
100
100
100
100
100
100
100
100.989
100.575
100
100
100
100
100
100
100
100
100
100
100
100
100
100
100
100
100
100
101.011
100.655
100
100
100
100
100
100
100
100
100
100
100
100
100
100
100
100
100
100
101.021
100.732
100.003
100
100
100
100
100
100
100
100
100
100
100
100
100
100
100
100
100
101.031
100.798
100.119
100
100
100
100
100
100
100
100
100
100
100
100
100
100
100
100
100
101.029
100.858
100.315
100
100
100
100
100
100
100
100
100
100
100
100
100
100
100
100
100
101.025
100.908
100.511
100
100
100
100
100
100
100
100
100
100
100
100
100
100
100
100
100
101.017
100.943
100.689
99.9965
100
100
100
100
100
100
100
100
100
100
100
100
100
100
100
100
101.005
100.974
100.82
100.123
100
100
100
100
100
100
100
100
100
100
100
100
100
100
100
100
100.98
100.972
100.913
100.473
100
100
100
100
100
100
100
100
100
100
100
100
100
100
100
100
100.97
100.977
100.965
100.692
99.9927
100
100
100
100
100
100
100
100
100
100
100
100
100
100
100
100.974
100.987
100.983
100.839
100.253
100
100
100
100
100
100
100
100
100
100
100
100
100
100
100
100.98
100.992
100.987
100.919
100.587
99.9917
100
100
100
100
100
100
100
100
100
100
100
100
100
100
100.988
100.993
100.989
100.954
100.792
100.231
99.9968
100
100
100
100
100
100
100
100
100
100
100
100
100
100.993
100.994
100.99
100.971
100.921
100.618
100.025
99.9996
100
100
100
100
100
100
100
100
100
100
100
100
100.998
100.995
100.989
100.976
100.95
100.851
100.488
100.017
100
100
100
100
100
100
100
100
100
100
100
100
100.997
100.995
100.991
100.984
100.974
100.95
100.89
100.478
99.8331
100
100
100
100
100
100
100
100
100
100
100
100.694
100.835
100.912
100.944
100.956
100.951
100.954
100.935
100.845
100.761
100.572
100.231
100.029
99.9956
99.9977
99.9989
99.9998
100
100
100
100.122
100.52
100.74
100.836
100.881
100.901
100.921
100.927
100.921
100.909
100.893
100.837
100.724
100.473
100.15
100.011
99.9967
99.9985
99.9992
99.9998
99.5276
100.109
100.484
100.671
100.774
100.81
100.838
100.862
100.878
100.881
100.88
100.882
100.881
100.859
100.773
100.622
100.358
100.101
100.006
99.9978
99.3996
99.78
100.074
100.429
100.622
100.7
100.742
100.776
100.799
100.809
100.818
100.833
100.851
100.857
100.856
100.845
100.792
100.678
100.516
100.278
99.726
99.8358
99.9264
100.11
100.348
100.563
100.629
100.675
100.71
100.724
100.733
100.748
100.769
100.794
100.815
100.824
100.821
100.813
100.788
100.745
99.9237
99.8699
99.9201
100.052
100.187
100.345
100.447
100.516
100.582
100.611
100.627
100.644
100.665
100.692
100.726
100.752
100.771
100.782
100.779
100.775
99.9249
99.8466
99.9276
100.098
100.191
100.251
100.354
100.413
100.475
100.525
100.548
100.57
100.59
100.611
100.639
100.664
100.687
100.708
100.724
100.735
99.8946
99.8632
99.9061
100.074
100.184
100.246
100.314
100.375
100.428
100.472
100.489
100.508
100.523
100.536
100.552
100.569
100.59
100.613
100.653
100.656
99.7807
99.9001
99.9118
100.01
100.154
100.207
100.249
100.314
100.354
100.394
100.412
100.428
100.44
100.449
100.461
100.483
100.512
100.537
100.58
100.572
99.7104
99.8788
99.9437
100.01
100.13
100.174
100.175
100.227
100.269
100.29
100.306
100.33
100.365
100.385
100.406
100.426
100.446
100.464
100.504
100.495
99.7189
99.8758
99.9544
100.016
100.123
100.172
100.143
100.168
100.216
100.254
100.281
100.299
100.333
100.342
100.353
100.363
100.375
100.39
100.414
100.452
99.7662
99.873
99.9283
99.9729
100.087
100.139
100.103
100.139
100.209
100.233
100.251
100.258
100.275
100.279
100.281
100.284
100.288
100.307
100.335
100.39
99.8522
99.8757
99.8775
99.9112
100.016
100.077
100.084
100.119
100.167
100.18
100.18
100.18
100.174
100.174
100.172
100.184
100.216
100.261
100.288
100.33
99.9482
99.9058
99.8457
99.8587
99.9404
100.011
100.04
100.057
100.071
100.089
100.07
100.076
100.091
100.115
100.141
100.171
100.205
100.231
100.242
100.268
100.037
99.9768
99.8642
99.8291
99.8505
99.9112
99.9467
99.9618
99.9834
100.019
100.043
100.066
100.099
100.13
100.15
100.166
100.179
100.184
100.178
100.183
100.092
100.064
99.9829
99.8534
99.8382
99.8592
99.9085
99.9582
99.9835
100.021
100.063
100.091
100.114
100.13
100.133
100.135
100.121
100.1
100.076
100.088
100.169
100.162
100.115
99.9816
99.8576
99.8695
99.9173
99.9799
100.011
100.051
100.085
100.092
100.097
100.094
100.077
100.058
100.028
100.018
100.033
100.077
100.276
100.227
100.156
100.048
99.9214
99.9002
99.9412
100.01
100.035
100.049
100.059
100.042
100.023
100.002
99.9849
99.984
99.9971
100.019
100.035
100.044
100.329
100.334
100.337
100.398
100.442
100.331
100.333
100.471
100.565
100.55
100.55
100.607
100.684
100.693
100.649
100.504
100.412
100.441
100.468
100.436
100.679
100.847
100.909
100.992
101.005
100.975
100.95
100.976
101.063
101.106
101.135
101.168
101.169
101.165
101.15
101.1
101.064
101.067
101.066
101.059
101.056
101.02
100.992
100.978
100.963
100.946
100.925
100.91
100.892
100.875
100.864
100.858
100.856
100.852
100.837
100.821
100.817
100.816
100.815
100.806
100.61
100.612
100.653
100.722
100.787
100.808
100.803
100.803
100.805
100.805
100.803
100.8
100.8
100.799
100.795
100.79
100.79
100.788
100.786
100.78
100.033
100.037
100.141
100.294
100.461
100.531
100.569
100.604
100.642
100.671
100.679
100.68
100.682
100.689
100.699
100.709
100.716
100.716
100.714
100.714
100.085
100.093
100.102
100.097
100.133
100.216
100.347
100.425
100.49
100.543
100.566
100.563
100.564
100.573
100.591
100.608
100.619
100.621
100.621
100.626
100.124
100.136
100.138
100.14
100.122
100.118
100.142
100.218
100.352
100.452
100.485
100.492
100.49
100.495
100.514
100.533
100.541
100.541
100.54
100.546
100.176
100.177
100.187
100.183
100.166
100.162
100.162
100.159
100.184
100.291
100.4
100.457
100.459
100.458
100.472
100.489
100.494
100.491
100.489
100.494
100.235
100.221
100.226
100.226
100.211
100.204
100.2
100.19
100.177
100.186
100.245
100.362
100.435
100.44
100.446
100.462
100.464
100.46
100.46
100.465
100.307
100.266
100.262
100.265
100.251
100.238
100.227
100.211
100.196
100.182
100.184
100.216
100.329
100.413
100.421
100.439
100.437
100.436
100.443
100.447
100.371
100.325
100.297
100.3
100.289
100.271
100.258
100.242
100.216
100.2
100.184
100.184
100.205
100.308
100.384
100.419
100.411
100.417
100.431
100.432
100.438
100.394
100.34
100.33
100.318
100.298
100.282
100.262
100.227
100.205
100.195
100.185
100.186
100.194
100.282
100.367
100.382
100.405
100.418
100.414
100.538
100.464
100.385
100.343
100.323
100.321
100.317
100.3
100.265
100.235
100.218
100.205
100.195
100.182
100.181
100.222
100.308
100.361
100.374
100.379
100.616
100.55
100.486
100.427
100.37
100.343
100.336
100.315
100.281
100.253
100.232
100.221
100.209
100.19
100.165
100.155
100.171
100.223
100.275
100.319
100.608
100.587
100.54
100.484
100.432
100.372
100.338
100.314
100.287
100.277
100.262
100.24
100.223
100.199
100.171
100.151
100.144
100.133
100.143
100.218
100.488
100.547
100.542
100.515
100.475
100.42
100.37
100.344
100.315
100.292
100.267
100.236
100.209
100.191
100.173
100.154
100.135
100.117
100.098
100.105
100.251
100.376
100.446
100.482
100.474
100.451
100.407
100.365
100.326
100.29
100.262
100.229
100.201
100.191
100.181
100.164
100.143
100.118
100.092
100.071
100.043
100.146
100.254
100.335
100.387
100.416
100.406
100.379
100.343
100.301
100.272
100.246
100.217
100.195
100.171
100.146
100.123
100.101
100.084
100.06
100.002
100.015
100.065
100.154
100.232
100.291
100.331
100.348
100.339
100.315
100.28
100.249
100.217
100.187
100.159
100.129
100.112
100.099
100.089
100.068
100
100
100.003
100.025
100.077
100.15
100.209
100.25
100.279
100.291
100.281
100.26
100.229
100.198
100.172
100.145
100.122
100.106
100.088
100.057
100
100
100
100.001
100.006
100.031
100.082
100.14
100.187
100.216
100.24
100.245
100.236
100.216
100.188
100.158
100.128
100.101
100.079
100.049
100
100
100
100
100
100.001
100.008
100.032
100.078
100.128
100.169
100.192
100.21
100.209
100.201
100.183
100.157
100.126
100.1
100.068
100
100
100
100
100
100
100
100.001
100.008
100.031
100.073
100.117
100.155
100.174
100.186
100.184
100.178
100.161
100.136
100.097
100
100
100
100
100
100
100
100
100
100.001
100.008
100.029
100.065
100.107
100.139
100.16
100.168
100.167
100.162
100.139
100
100
100
100
100
100
100
100
100
100
100
100.001
100.006
100.025
100.057
100.097
100.127
100.145
100.154
100.152
100
100
100
100
100
100
100
100
100
100
100
100
100
100.001
100.006
100.019
100.048
100.085
100.113
100.137
100
100
100
100
100
100
100
100
100
100
100
100
100
100
100
100.001
100.004
100.016
100.041
100.105
100.596
100.653
100.609
100.416
100.142
100.017
100.001
100
100
100
100
100
100
100
100
100.673
100.663
100.518
100.217
100.022
100
100
100
100
100
100
100
100
100
100
100.705
100.635
100.373
100.074
100.002
100
100
100
100
100
100
100
100
100
100
100.719
100.518
100.166
100.009
100
100
100
100
100
100
100
100
100
100
100
100.653
100.285
100.024
100
100
100
100
100
100
100
100
100
100
100
100
100.395
100.038
100
100
100
100
100
100
100
100
100
100
100
100
100
100.043
100
100
100
100
100
100
100
100
100
100
100
100
100
100
99.9995
100
100
100
100
100
100
100
100
100
100
100
100
100
100
100
100
100
100
100
100
100
100
100
100
100
100
100
100
100
100
100
100
100
100
100
100
100
100
100
100
100
100
100
100
100
100
100
100
100
100
100
100
100
100
100
100
100
100
100
100
100
100
100
100
100
100
100
100
100
100
100
100
100
100
100
100
100
100
100
100
100
100
100
100
100
100
100
100
100
100
100
100
100
100
100
100
100
100
100
100
100
100
100
100
100
100
100
100
100
100
100
100
100
100
100
100
100
100
100
100
100
100
100
100
100
100
100
100
100
100
100
100
100
100
100
100
100
100
100
100
100
100
100
100
100
100
100
100
100
100
100
100
100
100
100
100
100
100
100
100
100
100
100
100
100
100
100
100
100
100
100
100
100
100
100
100
100
100
100
100
100
100
100
100
100
100
100
100
100
100
100
100
100
100
100
100
100
100
100
100
100
100
100
100
100
100
100
100
100
100
100
100
100
100
100
100
100
100
100
100
100
100
100
100
100
100
100
100
100
100
100
100
100
100
100
100
100
100
100
100
100
100
100
100
100
100
100
100
100
100
100
100
100
100
100
100
100
100
100
100
100
100
100
100
100
100
100
100
100
100
100
100
100
100
100
100
100
100
100
100
100
100
100
100
100
100
100
100
100
100
100
100
100
100
100
100
100
100
100
100
100
100
100
100
100
100
100
100
100
100
100
100
100
100
100
100
100
100
100
100
100
100
100
100
100
100
100
100
100
100
100
100
100
100
100
100
100
100
100
100
100
100
100
100
100
100
100
100
100
100
100
100
100
100
100
100
100
100
100
100
100
100
100
100
100
100
100
100
100
100
100
100
100
100
100
100
100
100
100
100
100
100
100
100
100
100
100
100
100
100
100
100
100
100
100
100
100
100
100
100
100
100
100
100
100
100
100
100
100
100
100
100
100
100
100
100
100
100
100
100
100
100
100
100
100
100
100
100
100
100
100
100
100
100
100
100
100
100
100
100
100
100
100
100
100
100
100
100
100
100
100
100
100
100
100
100
100
100
100
100
100
100
100
100
100
100
100
100
100
100
100
100
100
100
100
100
100
100
100
100
100
100
100
100
100
100
100
100
100
100
100
100
100
100
100
100
100
100
100
100
100
100
100
100
100
100
100
100
100
100
100
100
100
100
100
100
100
100
100
100
100
100
100
100
100
100
100
100
100
100
100
100
100
100
100
100
100
100
100
100
100
100
100
100
100
100
100
100
100
100
100
100
100
100
100
100
100
100
100
100
100
100
100
100
100
100
100
100
100
100
100
100
100
100
100
100
100
100
100
100
100
100
100
100
100
100
100
100
100
100
100
100
100
100
100
100
100
100
100
100
100
100
100
100
100
100
100
100
100
100
100
100
100
100
100
100
100
100
100
100
100
100
100
100
100
100
100
100
100
100
100
100
100
100
100
100
100
100
100
100
100
100
100
100
100
100
100
100
100
100
100
100
100
100
100
100
100
100
100
100
100
100
100
100
100
100
100
100
100
100
100
100
100
100
100
100
100
100
100
100
100
100
100
100
100
100
100
100
100
100
100
100
100
100
100
100
100
100
100
100
100
100
100
100
100
100
100
100
100
100
100
100
100
100
100
100
100
100
100
100
100
100
100
100
100
100
100
100
100
100
100
100
100
100
100
100
100
100
100
100
100
100
100
100
100
100
100
100
100
100
100
100
100
100
100
100
100
100
100
100
100
100
100
100
100
100
100
100
100
100
100
100
100
100
100
100
100
100
100
100
100
100
100
100
100
100
100
100
100
100
100
100
100
100
100
100
100
100
100
100
100
100
100
100
100
100
100
100
100
100
100
100
100
100
100
100
100
100
100
100
100
100
100
100
100
100
100
100
100
100
100
100
100
100
100
100
100
100
100
100
100
100
100
100
100
100
100
100
100
100
100
100
100
100
100
100
100
100
100
100
100
100
100
100
100
100
100
100
100
100
100
100
100
100
99.9995
100
100
100
100
100
100
100
100
100
100
100
100
100
100
100.042
100
100
100
100
100
100
100
100
100
100
100
100
100
100
100.395
100.038
100
100
100
100
100
100
100
100
100
100
100
100
100
100.653
100.285
100.024
100
100
100
100
100
100
100
100
100
100
100
100
100.719
100.518
100.166
100.009
100
100
100
100
100
100
100
100
100
100
100
100.705
100.635
100.373
100.074
100.002
100
100
100
100
100
100
100
100
100
100
100.673
100.663
100.518
100.217
100.022
100
100
100
100
100
100
100
100
100
100
100.596
100.653
100.609
100.416
100.142
100.017
100.001
100
100
100
100
100
100
100
100
100.538
100.616
100.608
100.488
100.251
100.043
100.002
100
100
100
100
100
100
100
100
100.464
100.551
100.587
100.547
100.376
100.145
100.015
100
100
100
100
100
100
100
100
100.382
100.483
100.541
100.542
100.446
100.254
100.065
100.003
100
100
100
100
100
100
100
100.343
100.426
100.483
100.516
100.482
100.335
100.154
100.025
100.001
100
100
100
100
100
100
100.328
100.372
100.431
100.475
100.474
100.388
100.233
100.078
100.006
100
100
100
100
100
100
100.322
100.346
100.373
100.421
100.451
100.416
100.291
100.15
100.031
100.001
100
100
100
100
100
100.318
100.337
100.336
100.369
100.408
100.406
100.331
100.209
100.082
100.008
100
100
100
100
100
100.299
100.315
100.315
100.342
100.363
100.38
100.348
100.25
100.14
100.032
100.001
100
100
100
100
100.261
100.28
100.296
100.32
100.324
100.342
100.339
100.279
100.187
100.078
100.008
100
100
100
100
100.231
100.25
100.281
100.297
100.291
100.301
100.314
100.291
100.216
100.128
100.031
100.001
100
100
100
100.217
100.227
100.26
100.268
100.263
100.273
100.281
100.281
100.24
100.169
100.073
100.008
100
100
100
100.204
100.219
100.239
100.235
100.226
100.245
100.249
100.26
100.245
100.192
100.117
100.029
100.001
100
100
100.194
100.207
100.221
100.21
100.203
100.216
100.216
100.229
100.236
100.21
100.154
100.065
100.007
100
100
100.182
100.188
100.196
100.189
100.193
100.195
100.186
100.198
100.215
100.209
100.174
100.107
100.025
100.001
100
100.183
100.167
100.171
100.17
100.181
100.172
100.158
100.17
100.187
100.201
100.186
100.139
100.056
100.006
100
100.225
100.155
100.15
100.154
100.164
100.147
100.131
100.144
100.157
100.183
100.184
100.16
100.097
100.019
100.001
100.309
100.17
100.142
100.136
100.143
100.123
100.113
100.123
100.128
100.156
100.177
100.168
100.127
100.049
100.004
100.361
100.224
100.134
100.118
100.116
100.101
100.099
100.106
100.102
100.126
100.161
100.167
100.145
100.085
100.016
100.374
100.277
100.145
100.098
100.09
100.084
100.089
100.088
100.08
100.1
100.137
100.162
100.154
100.113
100.041
100.379
100.32
100.22
100.105
100.072
100.062
100.066
100.056
100.049
100.069
100.097
100.139
100.152
100.137
100.105
100.439
100.392
100.34
100.33
100.319
100.299
100.284
100.265
100.23
100.209
100.199
100.186
100.187
100.195
100.281
100.366
100.383
100.405
100.417
100.414
100.37
100.324
100.297
100.299
100.286
100.27
100.26
100.241
100.215
100.2
100.184
100.184
100.208
100.304
100.39
100.419
100.413
100.418
100.431
100.431
100.303
100.264
100.268
100.269
100.249
100.235
100.226
100.212
100.194
100.18
100.185
100.219
100.337
100.418
100.426
100.439
100.437
100.436
100.443
100.447
100.233
100.225
100.226
100.224
100.204
100.199
100.198
100.19
100.178
100.185
100.249
100.367
100.434
100.447
100.445
100.456
100.459
100.456
100.459
100.465
100.174
100.176
100.191
100.185
100.162
100.158
100.16
100.159
100.185
100.295
100.401
100.455
100.455
100.459
100.468
100.483
100.488
100.487
100.488
100.496
100.124
100.137
100.139
100.142
100.126
100.119
100.14
100.222
100.352
100.454
100.484
100.491
100.488
100.494
100.512
100.528
100.535
100.536
100.539
100.549
100.084
100.09
100.106
100.095
100.109
100.184
100.341
100.432
100.493
100.542
100.565
100.563
100.564
100.573
100.591
100.606
100.614
100.617
100.62
100.629
100.028
100.068
100.188
100.302
100.416
100.492
100.562
100.618
100.654
100.673
100.68
100.684
100.688
100.694
100.703
100.712
100.715
100.716
100.715
100.718
100.558
100.656
100.726
100.746
100.754
100.767
100.789
100.814
100.817
100.81
100.806
100.806
100.805
100.805
100.801
100.796
100.793
100.79
100.787
100.782
101.046
101.033
101.014
100.987
100.952
100.932
100.919
100.908
100.891
100.87
100.861
100.86
100.86
100.856
100.842
100.824
100.818
100.817
100.816
100.808
)
;

boundaryField
{
    inlet
    {
        type            fixedValue;
        value           uniform 100;
    }
    outlet
    {
        type            inletOutlet;
        inletValue      uniform 100;
        value           nonuniform List<scalar> 
50
(
100.379
100.319
100.218
100.105
100.071
100.06
100.068
100.057
100.049
100.068
100.097
100.139
100.152
100.137
100.105
100.806
100.78
100.714
100.626
100.546
100.494
100.465
100.447
100.432
100.414
100.414
100.431
100.447
100.465
100.496
100.549
100.629
100.718
100.782
100.808
100.379
100.32
100.22
100.105
100.072
100.062
100.066
100.056
100.049
100.069
100.097
100.139
100.152
100.137
100.105
)
;
    }
    airfoil
    {
        type            zeroGradient;
    }
    top
    {
        type            symmetryPlane;
    }
    bottom
    {
        type            symmetryPlane;
    }
    defaultFaces
    {
        type            empty;
    }
}


// ************************************************************************* //
