/*--------------------------------*- C++ -*----------------------------------*\
  =========                 |
  \\      /  F ield         | OpenFOAM: The Open Source CFD Toolbox
   \\    /   O peration     | Website:  https://openfoam.org
    \\  /    A nd           | Version:  7
     \\/     M anipulation  |
\*---------------------------------------------------------------------------*/
FoamFile
{
    version     2.0;
    format      ascii;
    class       volVectorField;
    location    "6.1";
    object      U;
}
// * * * * * * * * * * * * * * * * * * * * * * * * * * * * * * * * * * * * * //

dimensions      [0 1 -1 0 0 0 0];

internalField   nonuniform List<vector> 
3700
(
(1.40406 -0.644083 0)
(1.29902 -0.666544 0)
(1.22526 -0.478503 0)
(1.27265 -0.371534 0)
(1.48302 -0.461226 0)
(1.58408 -0.488327 0)
(1.45615 -0.342054 0)
(1.42273 -0.0864684 0)
(1.50827 0.00172286 0)
(1.60381 -0.0841567 0)
(1.60985 -0.252638 0)
(1.55304 -0.294987 0)
(1.51034 -0.226691 0)
(1.52529 -0.0991152 0)
(1.6131 -0.0893731 0)
(1.69612 -0.18524 0)
(1.79006 -0.237236 0)
(1.80198 -0.219857 0)
(1.8162 -0.152206 0)
(1.85969 -0.102948 0)
(1.48884 -1.56846 0)
(1.57652 -1.63316 0)
(1.69296 -1.787 0)
(1.79449 -1.78269 0)
(1.89092 -1.96496 0)
(1.8186 -1.95323 0)
(1.65012 -1.56393 0)
(1.54948 -1.04379 0)
(1.72621 -0.921953 0)
(1.88726 -1.02075 0)
(1.99879 -1.34548 0)
(1.93083 -1.43047 0)
(1.83905 -1.2436 0)
(1.82825 -1.05343 0)
(1.94737 -1.06381 0)
(2.0719 -1.1796 0)
(2.16897 -1.2254 0)
(2.22788 -1.1748 0)
(2.27216 -1.00549 0)
(2.33345 -0.937995 0)
(1.51277 -1.56874 0)
(1.70962 -1.64429 0)
(1.85377 -1.98306 0)
(1.93215 -2.13912 0)
(1.97782 -2.1974 0)
(1.97781 -2.24603 0)
(1.98909 -2.21278 0)
(1.9706 -2.2052 0)
(2.01327 -2.13773 0)
(2.10615 -2.09012 0)
(2.23372 -2.02379 0)
(2.29183 -1.99855 0)
(2.37532 -1.92322 0)
(2.38915 -1.9188 0)
(2.40301 -1.86441 0)
(2.40985 -1.81449 0)
(2.43129 -1.78504 0)
(2.47291 -1.66842 0)
(2.54607 -1.63922 0)
(2.66316 -1.52737 0)
(1.5797 -1.62491 0)
(1.882 -1.6742 0)
(1.95744 -2.05559 0)
(1.99156 -2.20128 0)
(2.05832 -2.2101 0)
(2.08443 -2.24598 0)
(2.06399 -2.20223 0)
(2.0136 -2.17962 0)
(2.05586 -2.0905 0)
(2.14806 -1.96746 0)
(2.26243 -1.8396 0)
(2.41293 -1.77487 0)
(2.53414 -1.61046 0)
(2.63505 -1.56589 0)
(2.69068 -1.54552 0)
(2.68437 -1.56232 0)
(2.61334 -1.62594 0)
(2.59508 -1.50654 0)
(2.57398 -1.5164 0)
(2.632 -1.34416 0)
(1.67677 -1.68103 0)
(2.02346 -1.68867 0)
(2.01378 -2.11142 0)
(2.04139 -2.1641 0)
(2.13445 -2.15837 0)
(2.17053 -2.21837 0)
(2.20965 -2.11784 0)
(2.14741 -2.08203 0)
(2.15782 -2.05273 0)
(2.20175 -1.96415 0)
(2.24305 -1.86681 0)
(2.3665 -1.75539 0)
(2.44505 -1.63919 0)
(2.58807 -1.53266 0)
(2.71091 -1.35328 0)
(2.79252 -1.16303 0)
(2.79572 -1.14521 0)
(2.80069 -1.09884 0)
(2.71313 -1.21083 0)
(2.65545 -1.1943 0)
(1.80426 -1.74888 0)
(2.09713 -1.72737 0)
(1.91164 -2.1823 0)
(1.93913 -2.15697 0)
(2.09509 -2.16212 0)
(2.16232 -2.20138 0)
(2.23698 -2.08425 0)
(2.2394 -1.99235 0)
(2.3043 -1.90997 0)
(2.43379 -1.78528 0)
(2.40353 -1.81312 0)
(2.46376 -1.65597 0)
(2.49044 -1.55141 0)
(2.54511 -1.47608 0)
(2.62896 -1.36755 0)
(2.68733 -1.2065 0)
(2.78905 -1.04331 0)
(2.86816 -0.838126 0)
(2.85754 -0.738417 0)
(2.75132 -0.766337 0)
(1.83352 -1.75759 0)
(1.92608 -1.83301 0)
(1.75861 -2.19877 0)
(1.85179 -2.12722 0)
(1.9483 -2.0549 0)
(2.06272 -2.06261 0)
(2.23255 -1.96288 0)
(2.36735 -1.81225 0)
(2.43525 -1.81441 0)
(2.54921 -1.58809 0)
(2.58611 -1.60681 0)
(2.64976 -1.45279 0)
(2.62365 -1.39873 0)
(2.62332 -1.30944 0)
(2.64009 -1.21252 0)
(2.65718 -1.09553 0)
(2.70412 -1.00289 0)
(2.79759 -0.878491 0)
(2.80921 -0.625163 0)
(2.80519 -0.469657 0)
(1.73881 -1.69085 0)
(1.75849 -1.82702 0)
(1.66966 -2.07543 0)
(1.7309 -2.07731 0)
(1.81173 -1.94526 0)
(1.89727 -1.97165 0)
(2.07941 -1.86617 0)
(2.26335 -1.66014 0)
(2.43257 -1.58851 0)
(2.58248 -1.37789 0)
(2.65573 -1.28666 0)
(2.73917 -1.10527 0)
(2.7456 -1.06811 0)
(2.74431 -1.01346 0)
(2.73896 -0.921697 0)
(2.71594 -0.854078 0)
(2.70086 -0.770621 0)
(2.7439 -0.765633 0)
(2.73469 -0.596247 0)
(2.74249 -0.380246 0)
(1.63384 -1.56181 0)
(1.71192 -1.69131 0)
(1.70154 -1.8657 0)
(1.6216 -1.91189 0)
(1.74125 -1.86922 0)
(1.83438 -1.90156 0)
(2.0309 -1.79412 0)
(2.1858 -1.6439 0)
(2.28438 -1.51499 0)
(2.42264 -1.41023 0)
(2.55565 -1.14412 0)
(2.67578 -0.954612 0)
(2.71108 -0.707036 0)
(2.75326 -0.603035 0)
(2.76219 -0.472409 0)
(2.75588 -0.462594 0)
(2.73975 -0.381526 0)
(2.7172 -0.449428 0)
(2.703 -0.42929 0)
(2.66845 -0.2403 0)
(1.56881 -1.43827 0)
(1.75691 -1.55372 0)
(1.84811 -1.71905 0)
(1.7011 -1.72259 0)
(1.72465 -1.80911 0)
(1.92305 -1.8023 0)
(2.15411 -1.66519 0)
(2.27329 -1.57898 0)
(2.33503 -1.42685 0)
(2.38552 -1.34959 0)
(2.48499 -1.13774 0)
(2.58262 -0.982801 0)
(2.63023 -0.727949 0)
(2.73214 -0.598754 0)
(2.71008 -0.320266 0)
(2.72225 -0.203258 0)
(2.70248 -0.0447031 0)
(2.66723 -0.0507951 0)
(2.64131 -0.116407 0)
(2.61756 -0.0612834 0)
(1.5551 -1.35643 0)
(1.85012 -1.42643 0)
(2.00431 -1.63365 0)
(1.78426 -1.70051 0)
(1.77683 -1.80089 0)
(2.0349 -1.74234 0)
(2.29632 -1.45893 0)
(2.47863 -1.23433 0)
(2.5799 -1.09457 0)
(2.57503 -1.07236 0)
(2.59812 -0.890206 0)
(2.62562 -0.730558 0)
(2.62388 -0.56103 0)
(2.66764 -0.464911 0)
(2.6444 -0.268039 0)
(2.66744 -0.162658 0)
(2.63986 0.0340993 0)
(2.59989 0.165315 0)
(2.53119 0.230981 0)
(2.57235 0.109349 0)
(1.53403 -1.35226 0)
(1.83249 -1.4209 0)
(2.05215 -1.5504 0)
(1.84811 -1.74504 0)
(2.11738 -1.82775 0)
(2.46081 -1.61585 0)
(2.66588 -1.2328 0)
(2.74847 -0.799894 0)
(2.77351 -0.626152 0)
(2.72041 -0.451556 0)
(2.71089 -0.339746 0)
(2.68722 -0.195402 0)
(2.6674 -0.117554 0)
(2.64589 -0.0319873 0)
(2.60536 0.0450465 0)
(2.5803 0.0642309 0)
(2.55874 0.114745 0)
(2.51224 0.237978 0)
(2.43902 0.385703 0)
(2.44389 0.365019 0)
(1.50348 -1.3865 0)
(1.83364 -1.48346 0)
(2.12609 -1.46903 0)
(2.18765 -1.77441 0)
(2.25789 -1.72454 0)
(2.39646 -1.43604 0)
(2.54027 -1.09422 0)
(2.61439 -0.70653 0)
(2.62347 -0.636469 0)
(2.6236 -0.34473 0)
(2.65307 -0.162702 0)
(2.60391 0.0801776 0)
(2.59017 0.210551 0)
(2.52911 0.362147 0)
(2.48495 0.436285 0)
(2.44705 0.44778 0)
(2.41815 0.435016 0)
(2.40529 0.421343 0)
(2.32239 0.538698 0)
(2.31385 0.529352 0)
(1.44984 -1.41473 0)
(1.81486 -1.585 0)
(2.22355 -1.34352 0)
(2.20747 -1.58863 0)
(2.13745 -1.56461 0)
(2.28205 -1.2214 0)
(2.40249 -0.90546 0)
(2.46535 -0.620026 0)
(2.48151 -0.415609 0)
(2.50767 -0.240034 0)
(2.52553 -0.0413061 0)
(2.4872 0.174482 0)
(2.47236 0.324296 0)
(2.40434 0.490993 0)
(2.3416 0.616549 0)
(2.29481 0.668666 0)
(2.22352 0.743613 0)
(2.2104 0.725282 0)
(2.18757 0.74752 0)
(2.14812 0.77136 0)
(1.32311 -1.39044 0)
(1.69235 -1.7891 0)
(2.21029 -1.06062 0)
(2.03965 -1.43932 0)
(2.20177 -1.26308 0)
(2.4026 -0.676956 0)
(2.49464 -0.33186 0)
(2.50692 -0.12507 0)
(2.44806 0.115973 0)
(2.4552 0.229728 0)
(2.40032 0.405241 0)
(2.34228 0.533044 0)
(2.29624 0.617387 0)
(2.23806 0.702641 0)
(2.1832 0.762663 0)
(2.13571 0.806419 0)
(2.07397 0.877795 0)
(2.04838 0.911867 0)
(2.03171 0.940487 0)
(2.05992 0.955048 0)
(1.11218 -1.26479 0)
(1.33655 -1.74656 0)
(2.07199 -1.04764 0)
(2.1956 -1.01077 0)
(2.41325 -0.298865 0)
(2.47319 0.0108153 0)
(2.47656 0.215042 0)
(2.39503 0.432186 0)
(2.3278 0.52487 0)
(2.29386 0.651969 0)
(2.20045 0.787642 0)
(2.11932 0.885862 0)
(2.06441 0.934778 0)
(2.01586 0.980325 0)
(1.98548 0.975241 0)
(1.95844 0.987083 0)
(1.95658 1.01168 0)
(1.97128 0.994142 0)
(1.995 0.994618 0)
(2.0692 0.979252 0)
(0.934173 -0.775396 0)
(1.27584 -1.37458 0)
(2.12509 -0.734729 0)
(2.37001 0.0637215 0)
(2.37538 0.254872 0)
(2.35767 0.357295 0)
(2.30421 0.498986 0)
(2.21286 0.653313 0)
(2.13772 0.760484 0)
(2.0861 0.895057 0)
(1.97541 1.0016 0)
(1.91745 1.05709 0)
(1.88359 1.0802 0)
(1.8692 1.09177 0)
(1.8699 1.05958 0)
(1.89476 1.05135 0)
(1.96111 1.02283 0)
(2.16632 0.901705 0)
(2.38457 0.788203 0)
(2.77914 0.43797 0)
(1.02089 -0.0785399 0)
(1.97284 0.70404 0)
(2.27431 0.490259 0)
(2.23552 0.576934 0)
(2.20084 0.621107 0)
(2.16251 0.74013 0)
(2.0369 0.912449 0)
(1.96857 0.966563 0)
(1.90368 1.03078 0)
(1.85195 1.12155 0)
(1.78636 1.15554 0)
(1.78953 1.14901 0)
(1.81255 1.12826 0)
(1.85479 1.08542 0)
(2.04004 0.950634 0)
(2.25298 0.831767 0)
(2.65996 0.507643 0)
(3.03565 0.0932988 0)
(3.0552 -0.0238777 0)
(3.00402 -0.00466295 0)
(1.00269 0.048017 0)
(1.93174 0.700131 0)
(2.09778 0.783354 0)
(2.00593 0.912055 0)
(1.96565 0.969394 0)
(1.87936 1.08166 0)
(1.80053 1.13693 0)
(1.75993 1.14706 0)
(1.75444 1.16312 0)
(1.72763 1.20408 0)
(1.70523 1.19827 0)
(1.85904 1.07578 0)
(2.10482 0.888599 0)
(2.51182 0.576326 0)
(2.99147 0.133191 0)
(3.07402 -0.0302516 0)
(3.00812 -0.00773042 0)
(3.00292 -0.00385084 0)
(3.00122 -0.00219884 0)
(3.00008 -0.000481523 0)
(1.16557 0.760681 0)
(1.82563 1.15056 0)
(1.83284 1.15395 0)
(1.73292 1.19681 0)
(1.71711 1.1942 0)
(1.67392 1.24149 0)
(1.66245 1.2146 0)
(1.72727 1.16509 0)
(1.75506 1.22724 0)
(1.77893 1.14136 0)
(2.25531 0.751581 0)
(2.84539 0.221673 0)
(3.09398 -0.0233908 0)
(3.02065 -0.0121899 0)
(3.00436 -0.00524214 0)
(3.00185 -0.00296815 0)
(3.00007 -0.000597395 0)
(2.99998 -2.50129e-05 0)
(2.99999 1.43528e-05 0)
(3 5.91566e-06 0)
(1.57405 1.25439 0)
(1.58016 1.26101 0)
(1.58468 1.2673 0)
(1.59524 1.25964 0)
(1.61978 1.24155 0)
(1.61287 1.26222 0)
(1.91616 1.15733 0)
(2.99459 0.349173 0)
(3.32856 -0.576426 0)
(3 6.10559e-11 0)
(3 -7.30914e-11 0)
(3 7.96097e-11 0)
(3 1.77443e-15 0)
(3 -4.30977e-13 0)
(3 -1.12673e-14 0)
(3 1.77609e-14 0)
(3 -7.02921e-15 0)
(3 7.99174e-16 0)
(3 1.35699e-15 0)
(3 6.28584e-16 0)
(1.57756 1.25154 0)
(1.58938 1.26232 0)
(1.59204 1.2777 0)
(1.58657 1.27941 0)
(1.66724 1.2513 0)
(1.75894 1.22501 0)
(2.31491 0.722475 0)
(3.00293 0.00813935 0)
(3 6.72266e-08 0)
(3 -3.79345e-11 0)
(3 -4.77445e-14 0)
(3 8.67673e-15 0)
(3 -2.30547e-15 0)
(3 5.0957e-15 0)
(3 3.79273e-15 0)
(3 2.88839e-15 0)
(3 3.41355e-15 0)
(3 1.83461e-16 0)
(3 8.20165e-16 0)
(3 3.83174e-16 0)
(1.58551 1.25481 0)
(1.60266 1.2583 0)
(1.60339 1.2719 0)
(1.57524 1.30625 0)
(1.70112 1.22737 0)
(2.16808 0.837956 0)
(2.98118 0.0133905 0)
(3.00036 -0.000738739 0)
(3 5.18181e-07 0)
(3 6.13276e-11 0)
(3 -1.23864e-13 0)
(3 -1.92936e-15 0)
(3 2.84629e-15 0)
(3 4.30004e-15 0)
(3 5.77886e-15 0)
(3 3.43729e-15 0)
(3 2.3149e-15 0)
(3 -7.41911e-17 0)
(3 8.77868e-16 0)
(3 -5.98604e-16 0)
(1.58788 1.25633 0)
(1.61074 1.25827 0)
(1.62966 1.26262 0)
(1.61578 1.29574 0)
(1.82677 1.10422 0)
(2.71376 0.244895 0)
(3.00577 -0.00287028 0)
(2.99991 8.1528e-05 0)
(3 -7.44565e-07 0)
(3 8.64645e-10 0)
(3 -1.94923e-14 0)
(3 8.36179e-16 0)
(3 2.74596e-15 0)
(3 5.80763e-15 0)
(3 5.85833e-15 0)
(3 3.57341e-15 0)
(3 2.94718e-15 0)
(3 1.00899e-15 0)
(3 5.20508e-16 0)
(3 -8.40479e-16 0)
(1.58799 1.26751 0)
(1.60701 1.26186 0)
(1.63548 1.24737 0)
(1.74603 1.19713 0)
(2.3671 0.628607 0)
(3.02039 -0.0189689 0)
(2.99974 0.000183517 0)
(3 -4.2319e-06 0)
(3 8.44844e-08 0)
(3 -8.90269e-10 0)
(3 2.6279e-13 0)
(3 5.99083e-16 0)
(3 3.23765e-15 0)
(3 5.19195e-15 0)
(3 6.25886e-15 0)
(3 4.15517e-15 0)
(3 2.82299e-15 0)
(3 2.03548e-15 0)
(3 -1.73079e-16 0)
(3 -3.05789e-16 0)
(1.58433 1.27911 0)
(1.58109 1.27093 0)
(1.63545 1.24379 0)
(1.82353 1.11473 0)
(2.74124 0.224553 0)
(3 -5.8003e-10 0)
(3 1.41408e-08 0)
(3 -1.27889e-08 0)
(3 5.56921e-10 0)
(3 2.80522e-12 0)
(3 -1.0053e-13 0)
(3 3.07775e-15 0)
(3 2.29361e-15 0)
(3 4.283e-15 0)
(3 5.66986e-15 0)
(3 4.14974e-15 0)
(3 3.66654e-15 0)
(3 3.24508e-15 0)
(3 4.01134e-16 0)
(3 -1.29936e-15 0)
(1.58185 1.29095 0)
(1.5499 1.28279 0)
(1.64889 1.25138 0)
(2.08748 0.876915 0)
(3.00267 0.000209627 0)
(3 3.62756e-12 0)
(3 -2.08353e-11 0)
(3 2.0282e-11 0)
(3 -3.94785e-12 0)
(3 3.21337e-14 0)
(3 1.12027e-15 0)
(3 1.82381e-15 0)
(3 1.95045e-15 0)
(3 2.33947e-15 0)
(3 3.86762e-15 0)
(3 3.73404e-15 0)
(3 3.4173e-15 0)
(3 2.95382e-15 0)
(3 6.05917e-16 0)
(3 -9.31703e-16 0)
(1.58147 1.32168 0)
(1.51149 1.32394 0)
(1.78991 1.18372 0)
(2.44405 0.538385 0)
(3 -4.70882e-06 0)
(3 1.80227e-11 0)
(3 4.49337e-13 0)
(3 -8.92138e-14 0)
(3 2.03007e-14 0)
(3 -3.01797e-16 0)
(3 9.06091e-16 0)
(3 1.38358e-15 0)
(3 1.54326e-15 0)
(3 2.39125e-15 0)
(3 2.88001e-15 0)
(3 2.49753e-15 0)
(3 1.49278e-15 0)
(3 1.45699e-15 0)
(3 1.08558e-15 0)
(3 -6.51185e-16 0)
(1.59071 1.30825 0)
(1.46643 1.34952 0)
(1.93554 1.04617 0)
(2.85796 0.133595 0)
(3 -1.65318e-08 0)
(3 -1.21473e-11 0)
(3 -6.33053e-14 0)
(3 3.12305e-16 0)
(3 5.98804e-16 0)
(3 1.49666e-15 0)
(3 1.37518e-15 0)
(3 1.26693e-15 0)
(3 1.58045e-15 0)
(3 2.5418e-15 0)
(3 2.95892e-15 0)
(3 3.49985e-15 0)
(3 2.91663e-15 0)
(3 -2.75768e-16 0)
(3 -1.85277e-16 0)
(3 -1.27011e-15 0)
(1.60523 1.29682 0)
(1.48414 1.39082 0)
(2.13496 0.839658 0)
(3.01133 -0.00950676 0)
(3 4.04522e-09 0)
(3 -5.22049e-12 0)
(3 2.1399e-14 0)
(3 7.55356e-17 0)
(3 1.0008e-15 0)
(3 1.1072e-15 0)
(3 1.02152e-15 0)
(3 1.42683e-15 0)
(3 2.02469e-15 0)
(3 2.62787e-15 0)
(3 4.1579e-15 0)
(3 4.59338e-15 0)
(3 5.04324e-15 0)
(3 2.9597e-15 0)
(3 -6.02022e-16 0)
(3 -1.80723e-15 0)
(1.62073 1.28238 0)
(1.58421 1.30536 0)
(2.433 0.522235 0)
(3 -1.97703e-13 0)
(3 -3.70053e-12 0)
(3 5.22893e-14 0)
(3 -2.25629e-15 0)
(3 1.9583e-16 0)
(3 1.67009e-17 0)
(3 -7.81666e-16 0)
(3 -1.49207e-16 0)
(3 2.22992e-16 0)
(3 1.6384e-15 0)
(3 3.00536e-15 0)
(3 3.45579e-15 0)
(3 4.77763e-15 0)
(3 6.04179e-15 0)
(3 6.71023e-15 0)
(3 4.24634e-15 0)
(3 1.98985e-15 0)
(1.63836 1.26246 0)
(1.62744 1.24617 0)
(2.6489 0.290437 0)
(3 2.41269e-13 0)
(3 4.18515e-15 0)
(3 -3.74295e-15 0)
(3 -2.08631e-15 0)
(3 -1.96611e-15 0)
(3 -1.86949e-15 0)
(3 -1.67578e-15 0)
(3 -9.95276e-16 0)
(3 5.08972e-16 0)
(3 1.29166e-15 0)
(3 1.40661e-15 0)
(3 1.57535e-15 0)
(3 2.7173e-15 0)
(3 3.76046e-15 0)
(3 5.22198e-15 0)
(3 7.87516e-15 0)
(3 5.1933e-15 0)
(1.65946 1.23917 0)
(1.81537 1.09818 0)
(2.87835 0.0855724 0)
(3 -7.47212e-13 0)
(3 -6.12386e-15 0)
(3 -4.02535e-15 0)
(3 -2.80618e-15 0)
(3 -2.78488e-15 0)
(3 -2.74923e-15 0)
(3 -2.68702e-15 0)
(3 -2.08709e-15 0)
(3 1.00053e-16 0)
(3 1.50082e-15 0)
(3 2.42186e-15 0)
(3 2.36653e-15 0)
(3 2.28966e-15 0)
(3 2.35693e-15 0)
(3 2.56786e-15 0)
(3 3.52321e-15 0)
(3 4.42589e-15 0)
(1.68528 1.1923 0)
(1.91802 0.971124 0)
(2.99995 1.10617e-05 0)
(3 -7.795e-15 0)
(3 -8.29789e-15 0)
(3 -6.86945e-15 0)
(3 -5.62995e-15 0)
(3 -4.2159e-15 0)
(3 -3.80986e-15 0)
(3 -4.05219e-15 0)
(3 -3.80261e-15 0)
(3 -1.90002e-15 0)
(3 1.20408e-16 0)
(3 1.71266e-15 0)
(3 2.17e-15 0)
(3 2.17192e-15 0)
(3 2.46219e-15 0)
(3 3.53692e-15 0)
(3 4.14524e-15 0)
(3 4.48731e-15 0)
(1.68558 1.17278 0)
(2.02946 0.838444 0)
(3 -8.01049e-15 0)
(3 -8.19624e-15 0)
(3 -8.25982e-15 0)
(3 -7.91933e-15 0)
(3 -7.36966e-15 0)
(3 -5.92904e-15 0)
(3 -6.07773e-15 0)
(3 -5.78365e-15 0)
(3 -5.28164e-15 0)
(3 -5.63906e-15 0)
(3 -4.75674e-15 0)
(3 -2.73069e-15 0)
(3 -8.9381e-16 0)
(3 -1.38838e-15 0)
(3 -2.71079e-16 0)
(3 5.33819e-16 0)
(3 2.00873e-15 0)
(3 2.13355e-15 0)
(1.7512 1.10348 0)
(2.21564 0.652952 0)
(3 -7.39389e-15 0)
(3 -6.9197e-15 0)
(3 -7.51854e-15 0)
(3 -7.8829e-15 0)
(3 -7.92644e-15 0)
(3 -7.03444e-15 0)
(3 -6.54977e-15 0)
(3 -5.78143e-15 0)
(3 -4.73494e-15 0)
(3 -4.64863e-15 0)
(3 -5.34526e-15 0)
(3 -6.35561e-15 0)
(3 -4.97846e-15 0)
(3 -2.03091e-15 0)
(3 -7.15123e-16 0)
(3 -1.68087e-16 0)
(3 2.9631e-16 0)
(3 7.51747e-16 0)
(1.85428 1.01589 0)
(2.46264 0.439353 0)
(3 -7.78127e-15 0)
(3 -7.9654e-15 0)
(3 -8.52478e-15 0)
(3 -9.21174e-15 0)
(3 -9.64968e-15 0)
(3 -9.50947e-15 0)
(3 -9.59875e-15 0)
(3 -9.46483e-15 0)
(3 -9.28722e-15 0)
(3 -7.9385e-15 0)
(3 -7.32769e-15 0)
(3 -7.1826e-15 0)
(3 -6.80452e-15 0)
(3 -5.64758e-15 0)
(3 -4.99244e-15 0)
(3 -4.53856e-15 0)
(3 -4.0859e-15 0)
(3 -2.66877e-15 0)
(1.94337 0.860484 0)
(2.73406 0.190861 0)
(3 -5.00535e-15 0)
(3 -5.56861e-15 0)
(3 -5.9169e-15 0)
(3 -6.20437e-15 0)
(3 -6.14245e-15 0)
(3 -6.01193e-15 0)
(3 -5.86048e-15 0)
(3 -5.30461e-15 0)
(3 -5.03914e-15 0)
(3 -4.73967e-15 0)
(3 -4.71345e-15 0)
(3 -4.6925e-15 0)
(3 -4.40965e-15 0)
(3 -3.95362e-15 0)
(3 -2.93702e-15 0)
(3 -2.4308e-15 0)
(3 -1.63843e-15 0)
(3 -7.86511e-16 0)
(2.08701 0.655364 0)
(2.99269 4.65958e-05 0)
(3 -4.88902e-15 0)
(3 -5.68317e-15 0)
(3 -5.84568e-15 0)
(3 -5.69478e-15 0)
(3 -5.22283e-15 0)
(3 -5.08741e-15 0)
(3 -5.30486e-15 0)
(3 -5.62962e-15 0)
(3 -5.73886e-15 0)
(3 -5.55566e-15 0)
(3 -5.39608e-15 0)
(3 -5.12809e-15 0)
(3 -4.90281e-15 0)
(3 -4.62894e-15 0)
(3 -4.49023e-15 0)
(3 -4.33539e-15 0)
(3 -4.21446e-15 0)
(3 -3.92457e-15 0)
(1.99102 0.376386 0)
(2.99981 -2.93902e-05 0)
(3 -4.70947e-15 0)
(3 -5.3232e-15 0)
(3 -4.72077e-15 0)
(3 -4.82085e-15 0)
(3 -4.81617e-15 0)
(3 -4.34291e-15 0)
(3 -4.50066e-15 0)
(3 -4.82655e-15 0)
(3 -4.84574e-15 0)
(3 -4.54624e-15 0)
(3 -4.52117e-15 0)
(3 -4.30596e-15 0)
(3 -4.16265e-15 0)
(3 -3.97367e-15 0)
(3 -3.83565e-15 0)
(3 -3.81815e-15 0)
(3 -3.91804e-15 0)
(3 -4.1009e-15 0)
(1.9913 -0.375667 0)
(2.99982 2.63261e-05 0)
(3 -4.02943e-15 0)
(3 -4.17914e-15 0)
(3 -3.60168e-15 0)
(3 -3.62577e-15 0)
(3 -3.78136e-15 0)
(3 -4.13992e-15 0)
(3 -3.87472e-15 0)
(3 -3.76314e-15 0)
(3 -3.85895e-15 0)
(3 -4.11332e-15 0)
(3 -3.90551e-15 0)
(3 -3.76821e-15 0)
(3 -3.48081e-15 0)
(3 -3.36369e-15 0)
(3 -3.23761e-15 0)
(3 -3.10265e-15 0)
(3 -3.06401e-15 0)
(3 -3.10966e-15 0)
(2.08723 -0.657484 0)
(2.99245 -2.92393e-05 0)
(3 -1.90886e-15 0)
(3 -2.2616e-15 0)
(3 -3.44096e-15 0)
(3 -3.8968e-15 0)
(3 -4.23582e-15 0)
(3 -3.40427e-15 0)
(3 -2.62942e-15 0)
(3 -2.65131e-15 0)
(3 -3.99097e-15 0)
(3 -4.4982e-15 0)
(3 -4.24815e-15 0)
(3 -3.86027e-15 0)
(3 -3.63976e-15 0)
(3 -3.87906e-15 0)
(3 -3.99515e-15 0)
(3 -4.06365e-15 0)
(3 -3.79386e-15 0)
(3 -3.45162e-15 0)
(1.93937 -0.861083 0)
(2.73059 -0.193099 0)
(3 1.1953e-15 0)
(3 2.19584e-15 0)
(3 1.05702e-15 0)
(3 -2.6788e-15 0)
(3 -5.00653e-15 0)
(3 -4.57537e-15 0)
(3 -3.95322e-15 0)
(3 -3.98597e-15 0)
(3 -3.91676e-15 0)
(3 -3.02245e-15 0)
(3 -3.0014e-15 0)
(3 -3.10678e-15 0)
(3 -3.41507e-15 0)
(3 -3.337e-15 0)
(3 -3.13747e-15 0)
(3 -2.68032e-15 0)
(3 -2.41069e-15 0)
(3 -2.28052e-15 0)
(1.85436 -1.01301 0)
(2.46596 -0.437042 0)
(3 1.62664e-15 0)
(3 1.18705e-15 0)
(3 1.01805e-15 0)
(3 8.75413e-16 0)
(3 9.30141e-16 0)
(3 2.73367e-15 0)
(3 2.88237e-15 0)
(3 2.50699e-15 0)
(3 1.86539e-15 0)
(3 1.14093e-15 0)
(3 5.21795e-16 0)
(3 5.89742e-16 0)
(3 6.99065e-16 0)
(3 8.32021e-16 0)
(3 8.37843e-16 0)
(3 5.78782e-16 0)
(3 -1.83819e-16 0)
(3 -8.79825e-16 0)
(1.75728 -1.10384 0)
(2.22073 -0.650862 0)
(3 9.89804e-16 0)
(3 -1.25295e-16 0)
(3 -2.19317e-15 0)
(3 -1.41141e-15 0)
(3 -1.78439e-17 0)
(3 2.02329e-15 0)
(3 2.71421e-15 0)
(3 2.2995e-15 0)
(3 1.74668e-15 0)
(3 1.35286e-15 0)
(3 9.17999e-16 0)
(3 1.00234e-15 0)
(3 1.03888e-15 0)
(3 9.20854e-16 0)
(3 2.57167e-16 0)
(3 8.62691e-17 0)
(3 1.57018e-16 0)
(3 5.09281e-16 0)
(1.68408 -1.17502 0)
(2.02831 -0.837903 0)
(3 1.63993e-17 0)
(3 -1.24858e-15 0)
(3 -2.13008e-15 0)
(3 -1.96999e-15 0)
(3 -2.13184e-16 0)
(3 7.79735e-16 0)
(3 9.95936e-16 0)
(3 5.38182e-16 0)
(3 -7.606e-17 0)
(3 -6.31755e-17 0)
(3 3.69686e-16 0)
(3 8.12746e-16 0)
(3 9.34449e-16 0)
(3 4.84509e-16 0)
(3 3.9172e-16 0)
(3 2.29896e-16 0)
(3 5.0125e-16 0)
(3 1.47409e-15 0)
(1.68229 -1.19239 0)
(1.91222 -0.97408 0)
(2.99997 -6.98708e-06 0)
(3 -1.72673e-15 0)
(3 -1.85298e-15 0)
(3 -7.03302e-16 0)
(3 1.26045e-16 0)
(3 9.19181e-16 0)
(3 1.19212e-15 0)
(3 1.11621e-15 0)
(3 1.0957e-15 0)
(3 1.18836e-15 0)
(3 1.38554e-15 0)
(3 1.72201e-15 0)
(3 2.46221e-15 0)
(3 2.51087e-15 0)
(3 2.9836e-15 0)
(3 2.84109e-15 0)
(3 3.18776e-15 0)
(3 3.07001e-15 0)
(1.65863 -1.23956 0)
(1.82183 -1.09787 0)
(2.87954 -0.0855821 0)
(3 5.16127e-13 0)
(3 -1.39209e-15 0)
(3 -1.41253e-15 0)
(3 -1.00535e-15 0)
(3 -8.44721e-16 0)
(3 4.0275e-16 0)
(3 1.08635e-15 0)
(3 1.45603e-15 0)
(3 1.20445e-15 0)
(3 1.37513e-15 0)
(3 1.50815e-15 0)
(3 2.31735e-15 0)
(3 2.41486e-15 0)
(3 2.42567e-15 0)
(3 3.08742e-15 0)
(3 2.09299e-15 0)
(3 1.95517e-16 0)
(1.63896 -1.26135 0)
(1.62364 -1.24889 0)
(2.64791 -0.291653 0)
(3 -1.61573e-13 0)
(3 -3.40781e-15 0)
(3 -5.30548e-16 0)
(3 -9.54607e-16 0)
(3 -6.08415e-16 0)
(3 1.19959e-16 0)
(3 5.77548e-16 0)
(3 8.28055e-16 0)
(3 6.74576e-16 0)
(3 6.38671e-16 0)
(3 7.28936e-16 0)
(3 1.67189e-15 0)
(3 1.87812e-15 0)
(3 1.4534e-15 0)
(3 4.41918e-16 0)
(3 -1.26014e-15 0)
(3 -1.14354e-15 0)
(1.62103 -1.28183 0)
(1.58247 -1.30698 0)
(2.42969 -0.525998 0)
(3 2.17237e-13 0)
(3 4.69941e-12 0)
(3 -7.33672e-14 0)
(3 -8.95662e-17 0)
(3 -3.51678e-16 0)
(3 1.98156e-16 0)
(3 4.83943e-16 0)
(3 6.93483e-16 0)
(3 7.71023e-16 0)
(3 3.80794e-16 0)
(3 7.67526e-16 0)
(3 1.03062e-15 0)
(3 1.17255e-15 0)
(3 8.51047e-16 0)
(3 -2.82855e-16 0)
(3 -5.38828e-16 0)
(3 2.9185e-16 0)
(1.605 -1.29631 0)
(1.48268 -1.3873 0)
(2.14734 -0.831763 0)
(3.0112 0.00943426 0)
(3 -5.1062e-09 0)
(3 -4.07849e-13 0)
(3 -3.97086e-15 0)
(3 6.36787e-17 0)
(3 3.37723e-16 0)
(3 7.15091e-16 0)
(3 8.58339e-16 0)
(3 1.45314e-15 0)
(3 1.72797e-15 0)
(3 1.82043e-15 0)
(3 1.10324e-15 0)
(3 1.23728e-15 0)
(3 9.21225e-16 0)
(3 5.58441e-16 0)
(3 1.83781e-16 0)
(3 2.03535e-15 0)
(1.59122 -1.30822 0)
(1.46601 -1.35399 0)
(1.92512 -1.04719 0)
(2.85329 -0.133767 0)
(3 2.20089e-08 0)
(3 2.29237e-11 0)
(3 -1.23214e-13 0)
(3 8.94444e-16 0)
(3 1.78706e-15 0)
(3 1.77071e-15 0)
(3 1.8968e-15 0)
(3 2.45458e-15 0)
(3 3.5991e-15 0)
(3 3.39812e-15 0)
(3 1.7086e-15 0)
(3 9.08992e-16 0)
(3 1.23895e-16 0)
(3 6.89965e-16 0)
(3 1.66898e-15 0)
(3 2.66997e-15 0)
(1.58322 -1.32179 0)
(1.51207 -1.32472 0)
(1.79555 -1.18179 0)
(2.44991 -0.533928 0)
(3 5.64073e-06 0)
(3 -2.97541e-11 0)
(3 2.28071e-13 0)
(3 1.69957e-14 0)
(3 -9.56373e-15 0)
(3 2.20766e-15 0)
(3 2.45896e-15 0)
(3 3.12354e-15 0)
(3 4.03219e-15 0)
(3 3.17479e-15 0)
(3 1.80579e-15 0)
(3 3.64714e-17 0)
(3 -6.74235e-16 0)
(3 8.77345e-16 0)
(3 2.64268e-15 0)
(3 2.94689e-15 0)
(1.58088 -1.29173 0)
(1.5503 -1.28448 0)
(1.65117 -1.25041 0)
(2.09918 -0.872427 0)
(3.00183 -9.74362e-05 0)
(3 2.62192e-12 0)
(3 1.94164e-13 0)
(3 -9.80393e-12 0)
(3 2.95472e-12 0)
(3 -5.18697e-15 0)
(3 1.86939e-15 0)
(3 4.05102e-15 0)
(3 3.0528e-15 0)
(3 1.65539e-15 0)
(3 1.35276e-15 0)
(3 2.61402e-16 0)
(3 -6.22295e-16 0)
(3 -3.63425e-17 0)
(3 1.35137e-15 0)
(3 2.00034e-15 0)
(1.58403 -1.27734 0)
(1.5796 -1.27044 0)
(1.63234 -1.24952 0)
(1.80462 -1.13148 0)
(2.72766 -0.237316 0)
(3 5.94146e-10 0)
(3 -1.43134e-08 0)
(3 1.29298e-08 0)
(3 -5.64214e-10 0)
(3 -2.96808e-12 0)
(3 9.48043e-14 0)
(3 3.68748e-15 0)
(3 2.86975e-15 0)
(3 2.11743e-15 0)
(3 2.07631e-15 0)
(3 4.17725e-17 0)
(3 -4.06517e-16 0)
(3 5.03679e-17 0)
(3 9.4574e-16 0)
(3 1.40752e-15 0)
(1.58749 -1.2664 0)
(1.60424 -1.2613 0)
(1.63327 -1.24436 0)
(1.75127 -1.1943 0)
(2.37418 -0.627939 0)
(3.01992 0.0184343 0)
(2.99974 -0.000189796 0)
(3 4.30628e-06 0)
(3 -8.54048e-08 0)
(3 9.01132e-10 0)
(3 -1.47749e-13 0)
(3 3.64131e-15 0)
(3 3.98584e-15 0)
(3 3.25176e-15 0)
(3 2.11462e-15 0)
(3 1.71258e-15 0)
(3 -4.70387e-16 0)
(3 -4.0147e-16 0)
(3 5.88953e-16 0)
(3 9.28275e-16 0)
(1.58799 -1.25531 0)
(1.61177 -1.25683 0)
(1.6293 -1.26031 0)
(1.62539 -1.2853 0)
(1.83249 -1.09791 0)
(2.72474 -0.232931 0)
(3.00574 0.00296636 0)
(2.99991 -8.81113e-05 0)
(3 7.81438e-07 0)
(3 -8.74558e-10 0)
(3 9.50883e-15 0)
(3 3.57533e-15 0)
(3 4.19711e-15 0)
(3 2.80778e-15 0)
(3 2.25658e-15 0)
(3 1.40421e-15 0)
(3 -1.50987e-15 0)
(3 -2.38204e-16 0)
(3 -6.16408e-16 0)
(3 1.63144e-15 0)
(1.58668 -1.25395 0)
(1.60477 -1.25689 0)
(1.60768 -1.26965 0)
(1.57877 -1.30285 0)
(1.69242 -1.23171 0)
(2.16757 -0.833661 0)
(2.98038 -0.0137984 0)
(3.00044 0.000861599 0)
(3 -5.64096e-07 0)
(3 -6.14755e-11 0)
(3 1.54037e-14 0)
(3 3.59997e-15 0)
(3 3.66605e-15 0)
(3 2.68896e-15 0)
(3 9.48332e-16 0)
(3 8.95745e-16 0)
(3 -7.75025e-16 0)
(3 1.84367e-16 0)
(3 -4.48918e-16 0)
(3 1.46361e-15 0)
(1.57888 -1.25259 0)
(1.58997 -1.26265 0)
(1.59143 -1.27903 0)
(1.58774 -1.28308 0)
(1.66473 -1.25471 0)
(1.74773 -1.23113 0)
(2.30609 -0.729455 0)
(3.00165 -0.0101173 0)
(3 -6.3344e-08 0)
(3 3.44167e-11 0)
(3 1.00761e-14 0)
(3 -7.84924e-16 0)
(3 5.5018e-15 0)
(3 1.03762e-15 0)
(3 4.02767e-16 0)
(3 1.06608e-15 0)
(3 -3.02902e-16 0)
(3 -2.93478e-16 0)
(3 -1.23221e-15 0)
(3 4.73105e-17 0)
(1.57421 -1.25538 0)
(1.58029 -1.26243 0)
(1.58392 -1.26947 0)
(1.59326 -1.26022 0)
(1.61689 -1.24117 0)
(1.61202 -1.26292 0)
(1.9217 -1.15847 0)
(2.99778 -0.349294 0)
(3.32089 0.567286 0)
(3 -6.06941e-11 0)
(3 7.24782e-11 0)
(3 -7.88248e-11 0)
(3 -6.41035e-17 0)
(3 4.35432e-13 0)
(3 1.63783e-14 0)
(3 -1.69514e-14 0)
(3 1.071e-14 0)
(3 1.24424e-16 0)
(3 2.18533e-16 0)
(3 2.35717e-15 0)
(1.15608 -0.778215 0)
(1.83405 -1.13941 0)
(1.83158 -1.15412 0)
(1.73079 -1.19602 0)
(1.71783 -1.19023 0)
(1.6736 -1.24005 0)
(1.66481 -1.21306 0)
(1.72925 -1.16534 0)
(1.75737 -1.22647 0)
(1.78114 -1.13987 0)
(2.2557 -0.749746 0)
(2.84594 -0.220688 0)
(3.09453 0.0237709 0)
(3.02077 0.0122958 0)
(3.00428 0.00519002 0)
(3.00183 0.00294362 0)
(3.00007 0.0005954 0)
(2.99998 2.50425e-05 0)
(2.99999 -1.43382e-05 0)
(3 -5.91026e-06 0)
(0.995582 -0.0469207 0)
(1.92238 -0.75945 0)
(2.10622 -0.787775 0)
(2.00174 -0.930342 0)
(1.9518 -0.985577 0)
(1.88184 -1.08031 0)
(1.80413 -1.1333 0)
(1.76185 -1.14685 0)
(1.75617 -1.16295 0)
(1.72915 -1.20339 0)
(1.70523 -1.19772 0)
(1.85608 -1.07604 0)
(2.10219 -0.889668 0)
(2.511 -0.577665 0)
(2.99171 -0.133862 0)
(3.07416 0.0301526 0)
(3.00811 0.00772385 0)
(3.00291 0.00384943 0)
(3.00122 0.00219814 0)
(3.00008 0.00048256 0)
(1.11652 0.10115 0)
(1.95105 -0.0788681 0)
(2.23981 -0.465808 0)
(2.23484 -0.536061 0)
(2.20812 -0.585244 0)
(2.15682 -0.745145 0)
(2.03819 -0.916544 0)
(1.97154 -0.968033 0)
(1.90356 -1.03176 0)
(1.85249 -1.12175 0)
(1.7859 -1.15547 0)
(1.78874 -1.14939 0)
(1.81191 -1.12882 0)
(1.85519 -1.08561 0)
(2.04128 -0.950209 0)
(2.25375 -0.831555 0)
(2.65992 -0.507623 0)
(3.03548 -0.0934242 0)
(3.05508 0.0237582 0)
(3.004 0.00464525 0)
(1.00546 0.632681 0)
(1.67921 0.936863 0)
(2.17088 0.820654 0)
(2.34453 -0.0742824 0)
(2.35923 -0.346364 0)
(2.35691 -0.358603 0)
(2.30444 -0.502463 0)
(2.21439 -0.65837 0)
(2.13922 -0.761673 0)
(2.08571 -0.896697 0)
(1.97416 -1.00329 0)
(1.91677 -1.05796 0)
(1.88389 -1.07984 0)
(1.86975 -1.09117 0)
(1.87048 -1.05903 0)
(1.89487 -1.05112 0)
(1.96085 -1.02294 0)
(2.16591 -0.902244 0)
(2.38481 -0.788407 0)
(2.77989 -0.437448 0)
(0.922725 0.773947 0)
(1.29342 1.66941 0)
(1.9534 1.4732 0)
(2.1945 0.944528 0)
(2.42563 0.484243 0)
(2.453 0.00195087 0)
(2.46203 -0.227038 0)
(2.39383 -0.429969 0)
(2.32762 -0.524763 0)
(2.2927 -0.651919 0)
(2.19981 -0.787002 0)
(2.11901 -0.88534 0)
(2.06437 -0.934197 0)
(2.01523 -0.980311 0)
(1.98501 -0.975337 0)
(1.95763 -0.987692 0)
(1.95619 -1.01229 0)
(1.97133 -0.994197 0)
(1.99518 -0.994571 0)
(2.0695 -0.978982 0)
(0.825182 0.871377 0)
(1.43685 1.61373 0)
(2.15905 1.57399 0)
(2.09731 1.4332 0)
(2.21555 1.27979 0)
(2.39724 0.658114 0)
(2.48854 0.365475 0)
(2.4997 0.131824 0)
(2.44398 -0.109462 0)
(2.4533 -0.226668 0)
(2.3975 -0.406737 0)
(2.34003 -0.535896 0)
(2.29426 -0.619661 0)
(2.23741 -0.702569 0)
(2.18322 -0.760953 0)
(2.13589 -0.804767 0)
(2.07539 -0.875536 0)
(2.04933 -0.91088 0)
(2.03152 -0.941029 0)
(2.0597 -0.955333 0)
(1.00008 1.00919 0)
(1.36156 1.20982 0)
(2.10229 1.43943 0)
(2.19612 1.704 0)
(2.26255 1.48284 0)
(2.31621 1.23239 0)
(2.41404 0.899748 0)
(2.46582 0.620172 0)
(2.47912 0.416028 0)
(2.50672 0.237751 0)
(2.52309 0.0389653 0)
(2.48588 -0.172435 0)
(2.47132 -0.320005 0)
(2.40677 -0.482415 0)
(2.34351 -0.610908 0)
(2.29758 -0.664608 0)
(2.22395 -0.744655 0)
(2.20744 -0.731276 0)
(2.18665 -0.750741 0)
(2.14891 -0.771185 0)
(1.2069 1.05604 0)
(1.36542 1.13661 0)
(1.75365 1.34747 0)
(2.02371 2.01151 0)
(2.4813 1.54124 0)
(2.42956 1.51793 0)
(2.56106 1.08777 0)
(2.6267 0.725711 0)
(2.63178 0.629948 0)
(2.62794 0.348306 0)
(2.65473 0.165809 0)
(2.60614 -0.0763806 0)
(2.59397 -0.207993 0)
(2.53135 -0.363231 0)
(2.48516 -0.441675 0)
(2.44574 -0.456325 0)
(2.41464 -0.447438 0)
(2.40576 -0.423796 0)
(2.32373 -0.536339 0)
(2.31572 -0.525283 0)
(1.37238 1.09037 0)
(1.44898 1.08888 0)
(1.66767 1.35955 0)
(1.6649 1.93218 0)
(2.30567 1.71385 0)
(2.52281 1.73842 0)
(2.70874 1.26109 0)
(2.7728 0.828515 0)
(2.78635 0.632185 0)
(2.72584 0.439789 0)
(2.71672 0.330265 0)
(2.69116 0.180449 0)
(2.6723 0.108397 0)
(2.64713 0.0198011 0)
(2.60618 -0.0523555 0)
(2.57817 -0.0707047 0)
(2.55771 -0.111111 0)
(2.51445 -0.225662 0)
(2.44088 -0.378857 0)
(2.44434 -0.364579 0)
(1.47805 1.16212 0)
(1.53353 1.14582 0)
(1.5868 1.4536 0)
(1.60335 1.87427 0)
(1.83223 1.83851 0)
(2.08331 1.79839 0)
(2.27784 1.52773 0)
(2.44487 1.22716 0)
(2.55702 1.09513 0)
(2.57633 1.05392 0)
(2.6032 0.886308 0)
(2.62966 0.722723 0)
(2.6252 0.561759 0)
(2.66389 0.466035 0)
(2.64099 0.276591 0)
(2.66342 0.175198 0)
(2.64032 -0.0144167 0)
(2.60104 -0.158591 0)
(2.53106 -0.236598 0)
(2.57087 -0.118503 0)
(1.51305 1.32137 0)
(1.55745 1.33911 0)
(1.50247 1.64206 0)
(1.56811 1.88584 0)
(1.74148 1.89277 0)
(1.94727 1.82929 0)
(2.12209 1.70887 0)
(2.2623 1.55091 0)
(2.32056 1.41794 0)
(2.37974 1.34284 0)
(2.47795 1.13938 0)
(2.57384 0.992698 0)
(2.62069 0.741995 0)
(2.72595 0.616847 0)
(2.70532 0.336122 0)
(2.72196 0.209476 0)
(2.70236 0.0431057 0)
(2.66755 0.033679 0)
(2.63953 0.100311 0)
(2.61789 0.0615179 0)
(1.60313 1.50758 0)
(1.58603 1.58245 0)
(1.46869 1.87931 0)
(1.56899 1.97995 0)
(1.74333 1.9652 0)
(1.87022 1.89614 0)
(2.01 1.82141 0)
(2.17241 1.62298 0)
(2.26794 1.50519 0)
(2.4101 1.41834 0)
(2.54158 1.14743 0)
(2.67212 0.979427 0)
(2.70962 0.714599 0)
(2.75711 0.605224 0)
(2.7629 0.457796 0)
(2.75839 0.450327 0)
(2.7447 0.366977 0)
(2.71817 0.430897 0)
(2.70434 0.4313 0)
(2.66721 0.245974 0)
(1.7601 1.6137 0)
(1.74357 1.70297 0)
(1.56023 2.08408 0)
(1.65504 2.15381 0)
(1.78888 2.02856 0)
(1.94409 1.92459 0)
(2.06417 1.88126 0)
(2.25365 1.64749 0)
(2.42107 1.56268 0)
(2.58037 1.37627 0)
(2.66339 1.26446 0)
(2.75013 1.0994 0)
(2.75741 1.05268 0)
(2.75499 1.00496 0)
(2.74944 0.908726 0)
(2.72438 0.85165 0)
(2.70578 0.758712 0)
(2.74058 0.763737 0)
(2.73303 0.612925 0)
(2.73926 0.389471 0)
(1.87816 1.66714 0)
(1.97296 1.67945 0)
(1.72875 2.15395 0)
(1.79314 2.21174 0)
(1.92607 2.08166 0)
(2.06488 1.99571 0)
(2.21771 1.96431 0)
(2.36528 1.79034 0)
(2.44501 1.76601 0)
(2.55936 1.5706 0)
(2.59746 1.60045 0)
(2.65665 1.44669 0)
(2.63109 1.39547 0)
(2.62988 1.30561 0)