/*--------------------------------*- C++ -*----------------------------------*\
  =========                 |
  \\      /  F ield         | OpenFOAM: The Open Source CFD Toolbox
   \\    /   O peration     | Website:  https://openfoam.org
    \\  /    A nd           | Version:  7
     \\/     M anipulation  |
\*---------------------------------------------------------------------------*/
FoamFile
{
    version     2.0;
    format      ascii;
    class       volScalarField;
    location    "4.6";
    object      rho;
}
// * * * * * * * * * * * * * * * * * * * * * * * * * * * * * * * * * * * * * //

dimensions      [1 -3 0 0 0 0 0];

internalField   nonuniform List<scalar> 
3700
(
0.300791
0.37593
0.428266
0.43184
0.429383
0.451742
0.476811
0.509728
0.56509
0.603189
0.645261
0.65811
0.650564
0.654643
0.671737
0.669636
0.660873
0.690512
0.733585
0.727471
0.211284
0.151296
0.139987
0.111966
0.0977753
0.11041
0.135839
0.173219
0.220709
0.256754
0.282501
0.283233
0.264853
0.25936
0.25154
0.234835
0.231558
0.238832
0.26419
0.286336
0.206876
0.135407
0.0941601
0.0706243
0.0666068
0.071664
0.0803292
0.0964049
0.110887
0.112829
0.110959
0.109977
0.109091
0.11159
0.118187
0.131558
0.147125
0.162544
0.177339
0.189189
0.185932
0.121097
0.0819891
0.0607659
0.0594058
0.0646436
0.076556
0.100665
0.118838
0.138074
0.159481
0.164255
0.168708
0.169985
0.17148
0.173674
0.180443
0.19599
0.217673
0.256116
0.158891
0.110127
0.0734053
0.0584631
0.0575123
0.0628263
0.0745582
0.0962019
0.114589
0.137924
0.170268
0.191209
0.212612
0.227596
0.239619
0.238691
0.233627
0.23546
0.246329
0.299826
0.135982
0.0998198
0.0665122
0.0590488
0.0584142
0.0662601
0.0837972
0.0991264
0.113229
0.133116
0.164708
0.195134
0.233552
0.269386
0.297979
0.323553
0.336874
0.351978
0.352644
0.385424
0.114886
0.0833036
0.0573559
0.0614299
0.0693742
0.0922604
0.119794
0.13405
0.144484
0.158264
0.169219
0.191948
0.237991
0.288474
0.333787
0.383818
0.429115
0.476826
0.501525
0.558072
0.0915887
0.0657417
0.0496081
0.0596322
0.0789434
0.112229
0.148151
0.176781
0.21108
0.241571
0.242767
0.256488
0.274186
0.314917
0.368747
0.436602
0.512793
0.594835
0.661088
0.78586
0.0700555
0.0519431
0.0436383
0.0606261
0.0833152
0.116093
0.153126
0.189821
0.257948
0.316382
0.357986
0.397003
0.431432
0.474749
0.50825
0.556959
0.626011
0.740758
0.846448
1.04714
0.0537548
0.040342
0.0382543
0.060458
0.0842585
0.113951
0.144984
0.182819
0.265138
0.357726
0.440122
0.512934
0.601379
0.677328
0.744243
0.814618
0.882654
0.977126
1.12022
1.33394
0.0418705
0.0313183
0.03322
0.0580011
0.0931294
0.136165
0.155389
0.19092
0.262645
0.37209
0.500723
0.618606
0.759823
0.871592
0.996974
1.12261
1.2461
1.35422
1.58777
1.56347
0.03367
0.0258399
0.0298016
0.0622253
0.123545
0.199064
0.239244
0.326835
0.446504
0.565699
0.704742
0.842893
0.995865
1.13195
1.29661
1.50094
1.70875
1.88582
2.16284
2.08824
0.0270972
0.0232127
0.0339577
0.0924877
0.182218
0.290637
0.392166
0.557544
0.758706
0.972462
1.15174
1.31552
1.47514
1.62116
1.79461
2.03265
2.31105
2.5756
2.93813
2.91621
0.0237997
0.024511
0.053084
0.149618
0.247718
0.362463
0.536056
0.767177
1.05087
1.37312
1.627
1.87412
2.10486
2.33357
2.60974
2.92269
3.24223
3.5899
3.90232
4.17583
0.0234817
0.0373892
0.0812852
0.195669
0.300186
0.425093
0.716938
1.07555
1.51835
1.95061
2.31108
2.64639
2.97161
3.3131
3.73852
4.13626
4.5181
4.88189
5.10714
5.2691
0.026052
0.0580783
0.113159
0.215706
0.418968
0.8869
1.42984
2.01762
2.6782
3.22011
3.61655
3.97768
4.34394
4.75645
5.20617
5.48425
5.65234
5.73018
5.60648
5.43812
0.0255355
0.0869517
0.202995
0.447101
1.10651
2.04797
2.87378
3.68724
4.49316
4.9922
5.26976
5.57022
5.84768
6.07964
6.21074
6.10617
5.80571
5.06589
3.87829
2.63138
0.0396919
0.178467
0.681039
1.69434
2.98488
4.02277
4.92859
5.89473
6.70755
6.71082
6.56834
6.56377
6.50585
6.28006
5.58473
4.26459
2.91735
1.86306
1.42543
1.39014
0.424398
1.21749
2.74774
4.37552
5.79993
6.75821
7.58241
8.21262
8.00815
7.36795
6.75829
6.00722
4.7376
3.25441
1.99702
1.4411
1.38523
1.39295
1.39628
1.39923
3.2046
5.02764
6.72552
7.90095
8.65991
8.99449
9.16708
8.68793
6.31705
4.46254
3.30924
2.19834
1.51959
1.38272
1.39036
1.39497
1.39886
1.39997
1.40003
1.40002
9.59092
9.5271
9.44113
9.56609
9.79652
9.50672
8.31915
3.09692
0.933157
1.40001
1.40001
1.40001
1.40001
1.40001
1.40001
1.40001
1.40001
1.40001
1.40001
1.40001
9.59065
9.52668
9.3473
9.26413
9.47571
7.99657
3.65068
1.4221
1.40001
1.40001
1.40001
1.40001
1.40001
1.40001
1.40001
1.40001
1.40001
1.40001
1.40001
1.40001
9.46283
9.51614
9.45497
9.18867
8.68259
4.80102
1.5007
1.39796
1.40001
1.40001
1.40001
1.40001
1.40001
1.40001
1.40001
1.40001
1.40001
1.40001
1.40001
1.40001
9.24819
9.47541
9.48645
9.22725
6.5754
1.97641
1.39043
1.40019
1.4
1.40001
1.40001
1.40001
1.40001
1.40001
1.40001
1.40001
1.40001
1.40001
1.40001
1.40001
9.04648
9.38037
9.41688
8.53266
3.63738
1.3676
1.40049
1.4
1.40001
1.40001
1.40001
1.40001
1.40001
1.40001
1.40001
1.40001
1.40001
1.40001
1.40001
1.40001
8.93193
9.31803
9.29608
6.81172
2.01441
1.40001
1.40001
1.40001
1.40001
1.40001
1.40001
1.40001
1.40001
1.40001
1.40001
1.40001
1.40001
1.40001
1.40001
1.40001
8.88303
9.35294
9.26383
4.99613
1.37105
1.40001
1.40001
1.40001
1.40001
1.40001
1.40001
1.40001
1.40001
1.40001
1.40001
1.40001
1.40001
1.40001
1.40001
1.40001
9.03186
9.28381
8.45819
2.85104
1.40001
1.40001
1.40001
1.40001
1.40001
1.40001
1.40001
1.40001
1.40001
1.40001
1.40001
1.40001
1.40001
1.40001
1.40001
1.40001
9.65614
9.20901
6.76892
1.6879
1.40001
1.40001
1.40001
1.40001
1.40001
1.40001
1.40001
1.40001
1.40001
1.40001
1.40001
1.40001
1.40001
1.40001
1.40001
1.40001
10.08
8.84761
4.79592
1.3828
1.40001
1.40001
1.40001
1.40001
1.40001
1.40001
1.40001
1.40001
1.40001
1.40001
1.40001
1.40001
1.40001
1.40001
1.40001
1.40001
10.3414
8.33523
3.15832
1.40001
1.40001
1.40001
1.40001
1.40001
1.40001
1.40001
1.40001
1.40001
1.40001
1.40001
1.40001
1.40001
1.40001
1.40001
1.40001
1.40001
10.415
7.42736
2.23692
1.40001
1.40001
1.40001
1.40001
1.40001
1.40001
1.40001
1.40001
1.40001
1.40001
1.40001
1.40001
1.40001
1.40001
1.40001
1.40001
1.40001
10.4719
6.59238
1.62495
1.40001
1.40001
1.40001
1.40001
1.40001
1.40001
1.40001
1.40001
1.40001
1.40001
1.40001
1.40001
1.40001
1.40001
1.40001
1.40001
1.40001
10.201
5.58174
1.40756
1.40001
1.40001
1.40001
1.40001
1.40001
1.40001
1.40001
1.40001
1.40001
1.40001
1.40001
1.40001
1.40001
1.40001
1.40001
1.40001
1.40001
9.9268
4.52903
1.40001
1.40001
1.40001
1.40001
1.40001
1.40001
1.40001
1.40001
1.40001
1.40001
1.40001
1.40001
1.40001
1.40001
1.40001
1.40001
1.40001
1.40001
9.74818
3.44349
1.40001
1.40001
1.40001
1.40001
1.40001
1.40001
1.40001
1.40001
1.40001
1.40001
1.40001
1.40001
1.40001
1.40001
1.40001
1.40001
1.40001
1.40001
9.16043
2.59925
1.40001
1.40001
1.40001
1.40001
1.40001
1.40001
1.40001
1.40001
1.40001
1.40001
1.40001
1.40001
1.40001
1.40001
1.40001
1.40001
1.40001
1.40001
8.7795
1.92145
1.40001
1.40001
1.40001
1.40001
1.40001
1.40001
1.40001
1.40001
1.40001
1.40001
1.40001
1.40001
1.40001
1.40001
1.40001
1.40001
1.40001
1.40001
7.99202
1.40871
1.40001
1.40001
1.40001
1.40001
1.40001
1.40001
1.40001
1.40001
1.40001
1.40001
1.40001
1.40001
1.40001
1.40001
1.40001
1.40001
1.40001
1.40001
6.43086
1.40011
1.40001
1.40001
1.40001
1.40001
1.40001
1.40001
1.40001
1.40001
1.40001
1.40001
1.40001
1.40001
1.40001
1.40001
1.40001
1.40001
1.40001
1.40001
6.4303
1.40011
1.40001
1.40001
1.40001
1.40001
1.40001
1.40001
1.40001
1.40001
1.40001
1.40001
1.40001
1.40001
1.40001
1.40001
1.40001
1.40001
1.40001
1.40001
7.98971
1.40877
1.40001
1.40001
1.40001
1.40001
1.40001
1.40001
1.40001
1.40001
1.40001
1.40001
1.40001
1.40001
1.40001
1.40001
1.40001
1.40001
1.40001
1.40001
8.78251
1.923
1.40001
1.40001
1.40001
1.40001
1.40001
1.40001
1.40001
1.40001
1.40001
1.40001
1.40001
1.40001
1.40001
1.40001
1.40001
1.40001
1.40001
1.40001
9.1581
2.60149
1.40001
1.40001
1.40001
1.40001
1.40001
1.40001
1.40001
1.40001
1.40001
1.40001
1.40001
1.40001
1.40001
1.40001
1.40001
1.40001
1.40001
1.40001
9.74294
3.44132
1.40001
1.40001
1.40001
1.40001
1.40001
1.40001
1.40001
1.40001
1.40001
1.40001
1.40001
1.40001
1.40001
1.40001
1.40001
1.40001
1.40001
1.40001
9.93082
4.52506
1.40001
1.40001
1.40001
1.40001
1.40001
1.40001
1.40001
1.40001
1.40001
1.40001
1.40001
1.40001
1.40001
1.40001
1.40001
1.40001
1.40001
1.40001
10.2028
5.58392
1.40882
1.40001
1.40001
1.40001
1.40001
1.40001
1.40001
1.40001
1.40001
1.40001
1.40001
1.40001
1.40001
1.40001
1.40001
1.40001
1.40001
1.40001
10.4697
6.59945
1.62668
1.40001
1.40001
1.40001
1.40001
1.40001
1.40001
1.40001
1.40001
1.40001
1.40001
1.40001
1.40001
1.40001
1.40001
1.40001
1.40001
1.40001
10.413
7.42924
2.23937
1.40001
1.40001
1.40001
1.40001
1.40001
1.40001
1.40001
1.40001
1.40001
1.40001
1.40001
1.40001
1.40001
1.40001
1.40001
1.40001
1.40001
10.3377
8.32542
3.16172
1.40001
1.40001
1.40001
1.40001
1.40001
1.40001
1.40001
1.40001
1.40001
1.40001
1.40001
1.40001
1.40001
1.40001
1.40001
1.40001
1.40001
10.0837
8.85682
4.78518
1.38281
1.40001
1.40001
1.40001
1.40001
1.40001
1.40001
1.40001
1.40001
1.40001
1.40001
1.40001
1.40001
1.40001
1.40001
1.40001
1.40001
9.65616
9.18752
6.75067
1.69511
1.4
1.40001
1.40001
1.40001
1.40001
1.40001
1.40001
1.40001
1.40001
1.40001
1.40001
1.40001
1.40001
1.40001
1.40001
1.40001
9.04771
9.30693
8.47631
2.83581
1.4
1.40001
1.40001
1.40001
1.40001
1.40001
1.40001
1.40001
1.40001
1.40001
1.40001
1.40001
1.40001
1.40001
1.40001
1.40001
8.88266
9.35342
9.26223
5.00425
1.37658
1.40001
1.40001
1.40001
1.40001
1.40001
1.40001
1.40001
1.40001
1.40001
1.40001
1.40001
1.40001
1.40001
1.40001
1.40001
8.93178
9.31088
9.28741
6.8144
2.02227
1.40001
1.40001
1.40001
1.40001
1.40001
1.40001
1.40001
1.40001
1.40001
1.40001
1.40001
1.40001
1.40001
1.40001
1.40001
9.04738
9.37311
9.41007
8.52716
3.63269
1.36769
1.40049
1.4
1.40001
1.40001
1.40001
1.40001
1.40001
1.40001
1.40001
1.40001
1.40001
1.40001
1.40001
1.40001
9.2491
9.47086
9.48411
9.23467
6.56548
1.97251
1.39049
1.40019
1.4
1.40001
1.40001
1.40001
1.40001
1.40001
1.40001
1.40001
1.40001
1.40001
1.40001
1.40001
9.46688
9.51473
9.45475
9.19782
8.68692
4.80519
1.49929
1.39795
1.40001
1.40001
1.40001
1.40001
1.40001
1.40001
1.40001
1.40001
1.40001
1.40001
1.40001
1.40001
9.59908
9.52803
9.347
9.27081
9.47493
7.98325
3.65879
1.42354
1.40001
1.40001
1.40001
1.40001
1.40001
1.40001
1.40001
1.40001
1.40001
1.40001
1.40001
1.40001
9.5919
9.52571
9.43967
9.56718
9.79615
9.49236
8.31297
3.09243
0.935819
1.40001
1.40001
1.40001
1.40001
1.40001
1.40001
1.40001
1.40001
1.40001
1.40001
1.40001
3.20325
5.03105
6.71525
7.88607
8.65621
8.99171
9.16909
8.68755
6.31751
4.46173
3.30757
2.19709
1.51951
1.38266
1.39043
1.395
1.39886
1.39997
1.40003
1.40002
0.422372
1.19085
2.75704
4.38789
5.78758
6.73823
7.57525
8.21626
8.01318
7.3725
6.76248
6.00909
4.73779
3.25383
1.99681
1.4411
1.38524
1.39295
1.39628
1.39923
0.053419
0.240306
0.672673
1.67803
2.9757
4.01416
4.91623
5.87699
6.70598
6.71775
6.57528
6.56399
6.50606
6.27918
5.58317
4.26352
2.91719
1.86321
1.42549
1.39013
0.00791986
0.0533406
0.22797
0.492019
1.15129
2.05332
2.86655
3.67943
4.48905
4.98583
5.26745
5.56978
5.8467
6.07823
6.21232
6.10821
5.80825
5.06904
3.88091
2.63261
0.0130497
0.0469614
0.124601
0.19312
0.416197
0.90988
1.45416
2.03718
2.69388
3.23214
3.62479
3.98397
4.34971
4.76133
5.211
5.48817
5.65555
5.73122
5.60728
5.43853
0.0196403
0.0367581
0.0943347
0.183249
0.288706
0.421088
0.712839
1.06811
1.51289
1.94453
2.30773
2.64469
2.97115
3.31231
3.73743
4.13409
4.51599
4.87948
5.1071
5.27004
0.0206616
0.0281347
0.068613
0.153678
0.246924
0.351407
0.524542
0.753548
1.03269
1.35791
1.61599
1.86802
2.10221
2.3325
2.61016
2.92363
3.24145
3.59003
3.90375
4.17647
0.02292
0.0238562
0.0470583
0.103619
0.188682
0.287378
0.390725
0.557075
0.757264
0.972788
1.15134
1.3166
1.47705
1.6243
1.79607
2.0307
2.30768
2.57168
2.93839
2.91848
0.0265241
0.0251259
0.0383054
0.0699425
0.125727
0.19959
0.245956
0.338514
0.46246
0.582194
0.716273
0.848685
0.995978
1.12942
1.29023
1.49405
1.70554
1.88655
2.16356
2.08909
0.0314291
0.0285989
0.0410294
0.0638963
0.0934024
0.136394
0.159202
0.19575
0.264338
0.368152
0.496832
0.615166
0.756314
0.868329
0.995085
1.12284
1.24871
1.35814
1.59
1.5621
0.0404596
0.0359459
0.0468995
0.0652885
0.0828433
0.110347
0.139724
0.176921
0.259037
0.352147
0.436637
0.511217
0.602409
0.679163
0.749059
0.820857
0.888546
0.978777
1.11955
1.33292
0.0574381
0.0485377
0.0476688
0.0630904
0.081789
0.111085
0.146254
0.18417
0.253993
0.315464
0.360583
0.401174
0.439214
0.484058
0.515647
0.561153
0.624529
0.734628
0.841229
1.0437
0.0795974
0.0653778
0.0487832
0.0586346
0.0786834
0.109
0.143057
0.174316
0.213577
0.247678
0.252011
0.266815
0.28
0.31392
0.363412
0.429899
0.506816
0.590142
0.65818
0.789138
0.101677
0.0846735
0.0561303
0.0558809
0.0695254
0.0950679
0.119781
0.136993
0.150053
0.165573
0.171286
0.187634
0.229097
0.281392
0.328437
0.379617
0.427032
0.476204
0.50321
0.563659
0.124618
0.102256
0.0707066
0.0548806
0.0572909
0.0697393
0.0854354
0.09919
0.112108
0.129797
0.157322
0.186438
0.22782
0.266347
0.296899
0.324379
0.338928
0.355036
0.355138
0.387494
0.15525
0.115329
0.0836647
0.0581008
0.0568251
0.0627869
0.0729595
0.092805
0.110245
0.131322
0.163315
0.187232
0.212329
0.229892
0.242808
0.242682
0.236162
0.237648
0.246648
0.297146
0.188854
0.127916
0.0927456
0.064127
0.0592639
0.06464
0.0742136
0.0963398
0.113939
0.133303
0.158159
0.167596
0.173888
0.174899
0.175
0.175099
0.179862
0.194506
0.215629
0.254068
0.204379
0.138716
0.102419
0.0741283
0.0663504
0.0705883
0.0781184
0.0945595
0.107085
0.118007
0.116741
0.114866
0.113186
0.114319
0.118489
0.129931
0.145346
0.161044
0.175821
0.187637
0.211222
0.16446
0.155915
0.155884
0.165659
0.183148
0.17913
0.190798
0.20792
0.211881
0.201544
0.192161
0.19171
0.201776
0.223427
0.25879
0.300012
0.339042
0.360916
0.332669
0.303198
0.395973
0.433294
0.476376
0.518422
0.535565
0.510655
0.512278
0.54762
0.576342
0.613595
0.635179
0.640456
0.66057
0.698042
0.715249
0.722966
0.738506
0.749584
0.728538
0.773215
0.899827
0.979512
1.06905
1.13193
1.22265
1.25208
1.23993
1.20295
1.20773
1.23746
1.30778
1.35794
1.35172
1.30966
1.27992
1.2932
1.33998
1.36217
1.34514
0.398305
0.587009
0.755092
0.920047
1.03673
1.16039
1.22131
1.25307
1.23893
1.23215
1.24383
1.28762
1.33074
1.33572
1.32584
1.31006
1.31424
1.33418
1.34536
1.33325
0.191942
0.223545
0.327195
0.491068
0.723139
0.944529
1.10381
1.20977
1.26163
1.25496
1.25811
1.26989
1.29184
1.31625
1.32789
1.33519
1.34183
1.34119
1.33254
1.32345
0.270444
0.298172
0.336314
0.333131
0.349293
0.442932
0.711265
1.01897
1.17894
1.25764
1.2783
1.25391
1.25837
1.28676
1.32319
1.34665
1.35223
1.34125
1.32279
1.3188
0.33774
0.366778
0.391141
0.401342
0.390921
0.389057
0.410379
0.547055
0.863672
1.15873
1.23592
1.24294
1.22831
1.2549
1.31645
1.35505
1.35593
1.33496
1.31574
1.31769
0.421176
0.460611
0.480208
0.46646
0.439349
0.43227
0.435126
0.450127
0.513928
0.734058
1.04482
1.22758
1.22422
1.24005
1.29957
1.34493
1.34533
1.3244
1.31551
1.32218
0.537787
0.561885
0.573706
0.560071
0.526649
0.509102
0.504776
0.51012
0.517836
0.536648
0.650891
0.957908
1.20863
1.24534
1.28237
1.33184
1.32859
1.31286
1.32043
1.33095
0.720809
0.690817
0.671739
0.648609
0.606287
0.56722
0.549288
0.549593
0.5531
0.549624
0.557037
0.622047
0.90947
1.1998
1.26827
1.3198
1.30048
1.30293
1.33296
1.33719
0.948032
0.848528
0.786246
0.751313
0.708475
0.65581
0.61877
0.60838
0.597992
0.591017
0.574285
0.575778
0.627823
0.894035
1.19299
1.31304
1.26951
1.29349
1.34727
1.3398
1.22058
1.03781
0.917163
0.878838
0.824503
0.754574
0.692327
0.658452
0.623224
0.621557
0.614455
0.59454
0.604317
0.652232
0.870389
1.16291
1.21841
1.30769
1.35927
1.33911
1.78488
1.35186
1.02634
0.920223
0.930704
0.929884
0.876205
0.784016
0.698238
0.665706
0.66687
0.662496
0.655627
0.663663
0.677505
0.786536
1.04086
1.24273
1.32042
1.32421
2.81809
2.13099
1.63624
1.19178
1.11841
1.12267
1.07117
0.964869
0.854336
0.788391
0.754779
0.746571
0.733636
0.709538
0.67269
0.681534
0.740953
0.897699
1.11241
1.26961
3.48179
3.00212
2.43962
1.87818
1.48009
1.26774
1.1649
1.08973
0.99214
0.939675
0.934612
0.909979
0.851894
0.79966
0.758831
0.731388
0.738601
0.749247
0.806891
1.04215
3.29489
3.2697
3.10468
2.70884
2.19925
1.74888
1.46627
1.34778
1.22653
1.12656
1.07153
1.00845
0.931907
0.867699
0.827547
0.809781
0.792902
0.770311
0.766007
0.814776
2.34742
2.99978
3.09782
3.06157
2.8648
2.47864
2.05912
1.73269
1.51967
1.32905
1.18884
1.09923
1.05422
1.00838
0.974575
0.945736
0.912157
0.873916
0.810584
0.806573
1.55242
2.01434
2.58397
2.95084
2.94657
2.8894
2.69629
2.34187
2.01146
1.72884
1.48645
1.35324
1.28034
1.20792
1.12727
1.03073
0.970149
0.923629
0.884021
0.842281
1.40638
1.46227
1.68741
2.16273
2.60183
2.82033
2.81297
2.7473
2.56019
2.27213
1.95469
1.70102
1.49629
1.35746
1.2616
1.13537
1.07007
1.03963
1.02842
0.978537
1.40014
1.40156
1.41453
1.51018
1.77319
2.19882
2.54526
2.70061
2.69228
2.63622
2.47128
2.21115
1.92927
1.68701
1.53359
1.41432
1.29494
1.2302
1.17141
1.06805
1.40001
1.40002
1.40021
1.40354
1.42628
1.53869
1.80761
2.17751
2.4723
2.59542
2.58672
2.53357
2.40123
2.17049
1.92012
1.71886
1.53699
1.38822
1.28877
1.16782
1.40001
1.40001
1.40001
1.40004
1.40046
1.40531
1.43491
1.5525
1.79803
2.12869
2.38027
2.49781
2.49237
2.45478
2.33931
2.14938
1.93492
1.71552
1.56611
1.3966
1.40001
1.40001
1.40001
1.40001
1.40001
1.40007
1.4007
1.40666
1.43672
1.54653
1.76993
2.06342
2.28967
2.41189
2.40738
2.37965
2.29741
2.13448
1.94947
1.67267
1.40001
1.40001
1.40001
1.40001
1.40001
1.40001
1.40001
1.40009
1.40081
1.40661
1.43562
1.53261
1.72386
1.99425
2.19674
2.32958
2.32793
2.31048
2.2586
2.04667
1.40001
1.40001
1.40001
1.40001
1.40001
1.40001
1.40001
1.40001
1.40001
1.40009
1.40082
1.40595
1.43065
1.51092
1.6777
1.91822
2.11252
2.24092
2.25615
2.22413
1.40001
1.40001
1.40001
1.40001
1.40001
1.40001
1.40001
1.40001
1.40001
1.40001
1.40001
1.40008
1.40073
1.40458
1.4257
1.48847
1.62885
1.83826
2.02074
2.16664
1.40001
1.40001
1.40001
1.40001
1.40001
1.40001
1.40001
1.40001
1.40001
1.40001
1.40001
1.40001
1.40001
1.40007
1.4006
1.40356
1.41958
1.47172
1.5908
1.94151
2.25281
3.42837
3.5967
2.90827
1.83119
1.45136
1.40262
1.40007
1.40001
1.40001
1.40001
1.40001
1.40001
1.40001
1.40001
3.26535
3.91849
3.52062
2.1518
1.46706
1.40113
1.40001
1.4
1.40001
1.40001
1.40001
1.40001
1.40001
1.40001
1.40001
4.07788
3.99432
2.76259
1.61244
1.4073
1.40008
1.40001
1.40001
1.40001
1.40001
1.40001
1.40001
1.40001
1.40001
1.40001
4.52196
3.56086
1.90655
1.42678
1.40027
1.40001
1.40001
1.40001
1.40001
1.40001
1.40001
1.40001
1.40001
1.40001
1.40001
4.62363
2.34822
1.4651
1.40069
1.40001
1.40001
1.40001
1.40001
1.40001
1.40001
1.40001
1.40001
1.40001
1.40001
1.40001
2.88294
1.50183
1.40069
1.4
1.4
1.40001
1.40001
1.40001
1.40001
1.40001
1.40001
1.40001
1.40001
1.40001
1.40001
1.54116
1.40078
1.4
1.4
1.40001
1.40001
1.40001
1.40001
1.40001
1.40001
1.40001
1.40001
1.40001
1.40001
1.40001
1.39743
1.39982
1.4
1.40001
1.40001
1.40001
1.40001
1.40001
1.40001
1.40001
1.40001
1.40001
1.40001
1.40001
1.40001
1.39996
1.40001
1.40001
1.40001
1.40001
1.40001
1.40001
1.40001
1.40001
1.40001
1.40001
1.40001
1.40001
1.40001
1.40001
1.40001
1.40001
1.40001
1.40001
1.40001
1.40001
1.40001
1.40001
1.40001
1.40001
1.40001
1.40001
1.40001
1.40001
1.40001
1.40001
1.40001
1.40001
1.40001
1.40001
1.40001
1.40001
1.40001
1.40001
1.40001
1.40001
1.40001
1.40001
1.40001
1.40001
1.40001
1.40001
1.40001
1.40001
1.40001
1.40001
1.40001
1.40001
1.40001
1.40001
1.40001
1.40001
1.40001
1.40001
1.40001
1.40001
1.40001
1.40001
1.40001
1.40001
1.40001
1.40001
1.40001
1.40001
1.40001
1.40001
1.40001
1.40001
1.40001
1.40001
1.40001
1.40001
1.40001
1.40001
1.40001
1.40001
1.40001
1.40001
1.40001
1.40001
1.40001
1.40001
1.40001
1.40001
1.40001
1.40001
1.40001
1.40001
1.40001
1.40001
1.40001
1.40001
1.40001
1.40001
1.40001
1.40001
1.40001
1.40001
1.40001
1.40001
1.40001
1.40001
1.40001
1.40001
1.40001
1.40001
1.40001
1.40001
1.40001
1.40001
1.40001
1.40001
1.40001
1.40001
1.40001
1.40001
1.40001
1.40001
1.40001
1.40001
1.40001
1.40001
1.40001
1.40001
1.40001
1.40001
1.40001
1.40001
1.40001
1.40001
1.40001
1.40001
1.40001
1.40001
1.40001
1.40001
1.40001
1.40001
1.40001
1.40001
1.40001
1.40001
1.40001
1.40001
1.40001
1.40001
1.40001
1.40001
1.40001
1.40001
1.40001
1.40001
1.40001
1.40001
1.40001
1.40001
1.40001
1.40001
1.40001
1.40001
1.40001
1.40001
1.40001
1.40001
1.40001
1.40001
1.40001
1.40001
1.40001
1.40001
1.40001
1.40001
1.40001
1.40001
1.40001
1.40001
1.40001
1.40001
1.40001
1.40001
1.40001
1.40001
1.40001
1.40001
1.40001
1.40001
1.40001
1.40001
1.40001
1.40001
1.40001
1.40001
1.40001
1.40001
1.40001
1.40001
1.40001
1.40001
1.40001
1.40001
1.40001
1.40001
1.40001
1.40001
1.40001
1.40001
1.40001
1.40001
1.40001
1.40001
1.40001
1.40001
1.40001
1.40001
1.40001
1.40001
1.40001
1.40001
1.40001
1.40001
1.40001
1.40001
1.40001
1.40001
1.40001
1.40001
1.40001
1.40001
1.40001
1.40001
1.40001
1.40001
1.40001
1.40001
1.40001
1.40001
1.40001
1.40001
1.40001
1.40001
1.40001
1.40001
1.40001
1.40001
1.40001
1.40001
1.40001
1.40001
1.40001
1.40001
1.40001
1.40001
1.40001
1.40001
1.40001
1.40001
1.40001
1.40001
1.40001
1.40001
1.40001
1.40001
1.40001
1.40001
1.40001
1.40001
1.40001
1.40001
1.40001
1.40001
1.40001
1.40001
1.40001
1.40001
1.40001
1.40001
1.40001
1.40001
1.40001
1.40001
1.40001
1.40001
1.40001
1.40001
1.40001
1.40001
1.40001
1.40001
1.40001
1.40001
1.40001
1.40001
1.40001
1.40001
1.40001
1.40001
1.40001
1.40001
1.40001
1.40001
1.40001
1.40001
1.40001
1.40001
1.40001
1.40001
1.40001
1.40001
1.40001
1.40001
1.40001
1.40001
1.40001
1.40001
1.40001
1.40001
1.40001
1.40001
1.40001
1.40001
1.40001
1.40001
1.40001
1.40001
1.40001
1.40001
1.40001
1.40001
1.40001
1.40001
1.40001
1.40001
1.40001
1.40001
1.40001
1.40001
1.40001
1.40001
1.40001
1.40001
1.40001
1.40001
1.40001
1.40001
1.40001
1.40001
1.40001
1.40001
1.40001
1.40001
1.40001
1.40001
1.40001
1.40001
1.40001
1.40001
1.40001
1.40001
1.40001
1.40001
1.40001
1.40001
1.40001
1.40001
1.40001
1.40001
1.40001
1.40001
1.40001
1.40001
1.40001
1.40001
1.40001
1.40001
1.40001
1.40001
1.40001
1.40001
1.40001
1.40001
1.40001
1.40001
1.40001
1.40001
1.40001
1.40001
1.40001
1.40001
1.40001
1.40001
1.40001
1.40001
1.40001
1.40001
1.40001
1.40001
1.40001
1.40001
1.40001
1.40001
1.40001
1.40001
1.40001
1.40001
1.40001
1.40001
1.40001
1.40001
1.40001
1.40001
1.40001
1.40001
1.40001
1.40001
1.40001
1.40001
1.40001
1.40001
1.40001
1.40001
1.40001
1.40001
1.40001
1.40001
1.40001
1.40001
1.40001
1.40001
1.40001
1.40001
1.40001
1.40001
1.40001
1.40001
1.40001
1.40001
1.40001
1.40001
1.40001
1.40001
1.40001
1.40001
1.40001
1.40001
1.40001
1.40001
1.40001
1.40001
1.40001
1.40001
1.40001
1.40001
1.40001
1.40001
1.40001
1.40001
1.40001
1.40001
1.40001
1.40001
1.40001
1.40001
1.40001
1.40001
1.40001
1.40001
1.40001
1.40001
1.40001
1.40001
1.40001
1.40001
1.40001
1.40001
1.40001
1.40001
1.40001
1.40001
1.40001
1.40001
1.40001
1.40001
1.40001
1.40001
1.40001
1.40001
1.40001
1.40001
1.40001
1.40001
1.40001
1.40001
1.40001
1.40001
1.40001
1.40001
1.40001
1.40001
1.40001
1.40001
1.40001
1.40001
1.40001
1.40001
1.40001
1.40001
1.40001
1.40001
1.40001
1.40001
1.40001
1.40001
1.40001
1.40001
1.40001
1.40001
1.40001
1.40001
1.40001
1.40001
1.40001
1.40001
1.40001
1.40001
1.40001
1.40001
1.40001
1.40001
1.40001
1.40001
1.40001
1.40001
1.40001
1.40001
1.40001
1.40001
1.40001
1.40001
1.40001
1.40001
1.40001
1.40001
1.40001
1.40001
1.40001
1.40001
1.40001
1.40001
1.40001
1.40001
1.40001
1.40001
1.40001
1.40001
1.40001
1.40001
1.40001
1.40001
1.40001
1.40001
1.40001
1.40001
1.40001
1.40001
1.40001
1.40001
1.40001
1.40001
1.40001
1.40001
1.40001
1.40001
1.40001
1.40001
1.40001
1.40001
1.40001
1.40001
1.40001
1.40001
1.40001
1.40001
1.40001
1.40001
1.40001
1.40001
1.40001
1.40001
1.40001
1.40001
1.40001
1.40001
1.40001
1.40001
1.40001
1.40001
1.40001
1.40001
1.40001
1.40001
1.40001
1.40001
1.40001
1.40001
1.40001
1.40001
1.40001
1.40001
1.40001
1.40001
1.40001
1.40001
1.40001
1.40001
1.40001
1.40001
1.40001
1.40001
1.40001
1.40001
1.40001
1.40001
1.40001
1.40001
1.40001
1.40001
1.40001
1.40001
1.40001
1.40001
1.40001
1.40001
1.40001
1.40001
1.40001
1.40001
1.40001
1.40001
1.40001
1.40001
1.40001
1.40001
1.40001
1.40001
1.40001
1.40001
1.40001
1.40001
1.40001
1.40001
1.40001
1.40001
1.40001
1.40001
1.40001
1.40001
1.40001
1.40001
1.40001
1.40001
1.40001
1.40001
1.40001
1.40001
1.40001
1.40001
1.40001
1.40001
1.40001
1.40001
1.40001
1.40001
1.40001
1.40001
1.40001
1.40001
1.40001
1.40001
1.40001
1.40001
1.40001
1.40001
1.40001
1.40001
1.40001
1.40001
1.40001
1.40001
1.40001
1.40001
1.40001
1.40001
1.40001
1.40001
1.40001
1.40001
1.40001
1.40001
1.40001
1.40001
1.40001
1.40001
1.40001
1.40001
1.40001
1.40001
1.40001
1.40001
1.40001
1.40001
1.40001
1.40001
1.40001
1.40001
1.40001
1.40001
1.40001
1.40001
1.40001
1.40001
1.40001
1.40001
1.40001
1.40001
1.40001
1.40001
1.40001
1.40001
1.40001
1.40001
1.40001
1.40001
1.40001
1.40001
1.40001
1.40001
1.40001
1.40001
1.40001
1.40001
1.40001
1.40001
1.40001
1.40001
1.40001
1.40001
1.40001
1.40001
1.40001
1.40001
1.40001
1.40001
1.40001
1.40001
1.40001
1.40001
1.40001
1.40001
1.40001
1.40001
1.40001
1.40001
1.40001
1.40001
1.40001
1.40001
1.40001
1.40001
1.40001
1.40001
1.40001
1.40001
1.40001
1.40001
1.40001
1.40001
1.40001
1.40001
1.40001
1.40001
1.40001
1.40001
1.40001
1.40001
1.40001
1.40001
1.40001
1.40001
1.40001
1.40001
1.40001
1.40001
1.40001
1.40001
1.40001
1.40001
1.40001
1.40001
1.40001
1.40001
1.40001
1.40001
1.40001
1.40001
1.40001
1.40001
1.40001
1.40001
1.40001
1.40001
1.40001
1.40001
1.40001
1.40001
1.40001
1.40001
1.40001
1.40001
1.40001
1.40001
1.40001
1.40001
1.40001
1.40001
1.40001
1.40001
1.40001
1.40001
1.40001
1.40001
1.40001
1.40001
1.40001
1.40001
1.40001
1.40001
1.40001
1.40001
1.40001
1.40001
1.39996
1.40001
1.40001
1.40001
1.40001
1.40001
1.40001
1.40001
1.40001
1.40001
1.40001
1.40001
1.40001
1.40001
1.40001
1.39742
1.39982
1.4
1.40001
1.40001
1.40001
1.40001
1.40001
1.40001
1.40001
1.40001
1.40001
1.40001
1.40001
1.40001
1.5413
1.40078
1.4
1.4
1.40001
1.40001
1.40001
1.40001
1.40001
1.40001
1.40001
1.40001
1.40001
1.40001
1.40001
2.88354
1.50201
1.4007
1.4
1.4
1.40001
1.40001
1.40001
1.40001
1.40001
1.40001
1.40001
1.40001
1.40001
1.40001
4.62423
2.34808
1.46511
1.4007
1.40001
1.40001
1.40001
1.40001
1.40001
1.40001
1.40001
1.40001
1.40001
1.40001
1.40001
4.52215
3.56241
1.9071
1.42673
1.40026
1.40001
1.40001
1.40001
1.40001
1.40001
1.40001
1.40001
1.40001
1.40001
1.40001
4.07647
3.994
2.76324
1.61296
1.40734
1.40008
1.40001
1.40001
1.40001
1.40001
1.40001
1.40001
1.40001
1.40001
1.40001
3.26566
3.9171
3.52006
2.15186
1.46712
1.40113
1.40001
1.4
1.40001
1.40001
1.40001
1.40001
1.40001
1.40001
1.40001
2.25196
3.42816
3.59638
2.90823
1.83126
1.45137
1.40262
1.40007
1.40001
1.40001
1.40001
1.40001
1.40001
1.40001
1.40001
1.787
2.80743
3.48269
3.29559
2.34773
1.55228
1.40638
1.40014
1.40001
1.40001
1.40001
1.40001
1.40001
1.40001
1.40001
1.37012
2.13489
3.00215
3.26941
2.99964
2.0141
1.46223
1.40156
1.40002
1.40001
1.40001
1.40001
1.40001
1.40001
1.40001
1.03206
1.66173
2.43372
3.10511
3.09727
2.58351
1.68726
1.41453
1.40021
1.40001
1.40001
1.40001
1.40001
1.40001
1.40001
0.899606
1.20475
1.87567
2.70806
3.06047
2.95082
2.16279
1.51015
1.40353
1.40004
1.40001
1.40001
1.40001
1.40001
1.40001
0.916527
1.10979
1.47309
2.19264
2.86719
2.94678
2.60186
1.77307
1.42626
1.40046
1.40001
1.40001
1.40001
1.40001
1.40001
0.92295
1.11459
1.2834
1.74149
2.47862
2.88988
2.82096
2.19872
1.53859
1.4053
1.40007
1.40001
1.40001
1.40001
1.40001
0.87084
1.05783
1.17949
1.47231
2.0546
2.6985
2.81368
2.54577
1.80747
1.43488
1.4007
1.40001
1.40001
1.40001
1.40001
0.794024
0.935824
1.08502
1.37395
1.73676
2.34215
2.74762
2.70094
2.17764
1.5525
1.40666
1.40009
1.40001
1.40001
1.40001
0.737511
0.839506
0.9584
1.24147
1.52652
2.00934
2.56048
2.69255
2.47243
1.79818
1.43675
1.40081
1.40001
1.40001
1.40001
0.698074
0.780973
0.919358
1.12811
1.33029
1.72879
2.2738
2.63666
2.59577
2.12892
1.54661
1.40661
1.40009
1.40001
1.40001
0.688334
0.765674
0.921586
1.06226
1.18483
1.49509
1.95639
2.4722
2.58711
2.38062
1.77006
1.43562
1.40082
1.40001
1.40001
0.677751
0.760453
0.903859
1.00088
1.09838
1.36184
1.70168
2.21142
2.53372
2.49799
2.06357
1.53262
1.40595
1.40008
1.40001
0.664641
0.743936
0.854128
0.928687
1.05475
1.28738
1.49543
1.929
2.40112
2.49248
2.28972
1.72387
1.43065
1.40073
1.40001
0.664803
0.719086
0.806761
0.866352
1.00129
1.2086
1.35511
1.68672
2.17096
2.45487
2.4119
1.99419
1.51091
1.40458
1.40007
0.673593
0.679934
0.766846
0.827161
0.965062
1.12505
1.25999
1.53239
1.91997
2.33945
2.40734
2.19664
1.67764
1.4257
1.4006
0.779453
0.684538
0.736216
0.809814
0.940183
1.02917
1.13584
1.414
1.71844
2.14919
2.37953
2.32945
1.91817
1.48846
1.40356
1.03553
0.739701
0.741236
0.793725
0.909826
0.970298
1.07119
1.29532
1.53753
1.93453
2.29711
2.32781
2.11242
1.62887
1.41958
1.23921
0.891404
0.748032
0.772263
0.873688
0.924377
1.04
1.23003
1.38852
1.71514
2.13427
2.3104
2.24084
1.83825
1.47173
1.32015
1.10676
0.803158
0.766797
0.810964
0.885035
1.02868
1.17079
1.28856
1.56572
1.94941
2.25857
2.25615
2.02073
1.5908
1.32452
1.26811
1.04012
0.815148
0.806457
0.842167
0.978969
1.06748
1.16786
1.39648
1.6727
2.04671
2.22415
2.16665
1.94152
1.22979
1.0255
0.877517
0.853749
0.83129
0.76323
0.698218
0.648439
0.629633
0.633946
0.628403
0.605446
0.604854
0.643957
0.861978
1.15314
1.21282
1.30437
1.3592
1.33932
0.944895
0.831714
0.758381
0.745724
0.714702
0.65078
0.607007
0.592827
0.586722
0.591772
0.579148
0.573495
0.62229
0.881679
1.16042
1.2999
1.26099
1.29147
1.34721
1.33943
0.712157
0.675831
0.672915
0.663648
0.61953
0.569237
0.547316
0.546286
0.548004
0.546563
0.551136
0.61796
0.895488
1.16682
1.25199
1.3203
1.30415
1.30529
1.33451
1.3371
0.537197
0.561148
0.576761
0.566131
0.528389
0.509194
0.504979
0.508582
0.516954
0.536874
0.660023
0.957664
1.19027
1.23262
1.29449
1.34565
1.34245
1.3185
1.32344
1.33156
0.419745
0.46057
0.486574
0.473812
0.444813