/*--------------------------------*- C++ -*----------------------------------*\
  =========                 |
  \\      /  F ield         | OpenFOAM: The Open Source CFD Toolbox
   \\    /   O peration     | Website:  https://openfoam.org
    \\  /    A nd           | Version:  7
     \\/     M anipulation  |
\*---------------------------------------------------------------------------*/
FoamFile
{
    version     2.0;
    format      ascii;
    class       volScalarField;
    location    "4.6";
    object      T;
}
// * * * * * * * * * * * * * * * * * * * * * * * * * * * * * * * * * * * * * //

dimensions      [0 0 0 1 0 0 0];

internalField   nonuniform List<scalar> 
3700
(
100.73
100.831
100.851
100.824
100.792
100.805
100.88
100.974
101.094
101.162
101.171
101.166
101.152
101.132
101.108
101.073
101.02
101.016
101.041
101.051
100.313
100.241
100.265
100.162
100.087
100.155
100.34
100.474
100.612
100.73
100.777
100.765
100.724
100.663
100.578
100.453
100.327
100.318
100.362
100.419
100.354
100.202
100.081
99.9788
99.9588
99.9723
99.9988
100.033
100.047
100.029
100.006
99.9862
99.9647
99.9604
99.9703
99.9937
100.013
100.028
100.04
100.042
100.357
100.19
100.03
99.9085
99.8964
99.918
99.971
100.043
100.066
100.082
100.095
100.085
100.072
100.051
100.026
100.012
100.015
100.037
100.059
100.091
100.314
100.144
99.9705
99.8718
99.8603
99.8852
99.9393
100.002
100.036
100.08
100.113
100.118
100.132
100.135
100.127
100.106
100.073
100.056
100.06
100.112
100.238
100.092
99.9213
99.8633
99.85
99.8773
99.9344
99.9881
100.013
100.048
100.085
100.114
100.144
100.166
100.174
100.176
100.17
100.163
100.15
100.159
100.17
100.023
99.8673
99.8666
99.8693
99.9387
99.9952
100.01
100.02
100.049
100.069
100.093
100.13
100.163
100.187
100.209
100.225
100.233
100.234
100.255
100.106
99.9542
99.8247
99.8665
99.9318
100.028
100.083
100.104
100.118
100.133
100.119
100.124
100.132
100.154
100.184
100.221
100.255
100.281
100.294
100.329
100.046
99.8973
99.7935
99.8844
99.9698
100.071
100.118
100.147
100.194
100.216
100.228
100.232
100.241
100.248
100.253
100.263
100.285
100.323
100.347
100.392
99.99
99.8439
99.7757
99.9075
100.026
100.117
100.126
100.154
100.222
100.26
100.288
100.304
100.327
100.336
100.348
100.358
100.37
100.386
100.41
100.45
99.9203
99.7803
99.7704
99.9396
100.129
100.198
100.177
100.198
100.238
100.278
100.319
100.346
100.379
100.392
100.411
100.429
100.447
100.464
100.5
100.492
99.8288
99.7093
99.7741
99.9931
100.19
100.244
100.245
100.296
100.342
100.374
100.393
100.411
100.429
100.442
100.462
100.491
100.52
100.543
100.58
100.569
99.7294
99.6681
99.8783
100.053
100.227
100.296
100.334
100.393
100.44
100.48
100.497
100.512
100.52
100.527
100.539
100.561
100.591
100.621
100.657
100.655
99.6654
99.6691
99.9487
100.138
100.253
100.329
100.4
100.459
100.51
100.549
100.565
100.583
100.597
100.612
100.635
100.66
100.684
100.708
100.725
100.735
99.6488
99.6695
99.9728
100.183
100.274
100.345
100.454
100.523
100.58
100.61
100.629
100.649
100.67
100.696
100.726
100.752
100.772
100.784
100.781
100.776
99.6426
99.7396
99.9933
100.178
100.351
100.538
100.611
100.659
100.697
100.716
100.729
100.745
100.766
100.791
100.811
100.822
100.82
100.814
100.79
100.746
99.5618
99.8426
100.17
100.384
100.59
100.701
100.744
100.777
100.798
100.811
100.821
100.836
100.851
100.855
100.854
100.843
100.791
100.678
100.516
100.277
99.4438
100.016
100.447
100.666
100.777
100.814
100.839
100.861
100.876
100.882
100.882
100.882
100.881
100.857
100.77
100.62
100.358
100.101
100.006
99.9978
100.119
100.531
100.739
100.834
100.886
100.906
100.922
100.922
100.918
100.908
100.895
100.842
100.727
100.471
100.148
100.01
99.9967
99.9985
99.9992
99.9998
100.694
100.834
100.91
100.948
100.963
100.957
100.954
100.928
100.846
100.767
100.582
100.239
100.032
99.9958
99.9978
99.9989
99.9998
100
100
100
100.995
100.993
100.989
100.989
100.984
100.958
100.88
100.434
99.8589
100
100
100
100
100
100
100
100
100
100
100
100.994
100.992
100.984
100.973
100.963
100.869
100.494
100.013
100
100
100
100
100
100
100
100
100
100
100
100
100.99
100.991
100.985
100.964
100.919
100.649
100.054
99.999
100
100
100
100
100
100
100
100
100
100
100
100
100.986
100.991
100.985
100.952
100.785
100.229
99.9964
100
100
100
100
100
100
100
100
100
100
100
100
100
100.981
100.989
100.982
100.914
100.543
99.9925
100
100
100
100
100
100
100
100
100
100
100
100
100
100
100.979
100.988
100.98
100.831
100.266
100
100
100
100
100
100
100
100
100
100
100
100
100
100
100
100.977
100.989
100.977
100.709
99.9967
100
100
100
100
100
100
100
100
100
100
100
100
100
100
100
100.982
100.98
100.925
100.47
100
100
100
100
100
100
100
100
100
100
100
100
100
100
100
100
101
100.965
100.818
100.151
100
100
100
100
100
100
100
100
100
100
100
100
100
100
100
100
101.013
100.939
100.675
99.9964
100
100
100
100
100
100
100
100
100
100
100
100
100
100
100
100
101.023
100.902
100.496
100
100
100
100
100
100
100
100
100
100
100
100
100
100
100
100
100
101.029
100.849
100.317
100
100
100
100
100
100
100
100
100
100
100
100
100
100
100
100
100
101.034
100.798
100.112
100
100
100
100
100
100
100
100
100
100
100
100
100
100
100
100
100
101.033
100.74
100.005
100
100
100
100
100
100
100
100
100
100
100
100
100
100
100
100
100
101.008
100.677
100
100
100
100
100
100
100
100
100
100
100
100
100
100
100
100
100
100
100.985
100.559
100
100
100
100
100
100
100
100
100
100
100
100
100
100
100
100
100
100
100.948
100.425
100
100
100
100
100
100
100
100
100
100
100
100
100
100
100
100
100
100
100.915
100.243
100
100
100
100
100
100
100
100
100
100
100
100
100
100
100
100
100
100
100.866
100.005
100
100
100
100
100
100
100
100
100
100
100
100
100
100
100
100
100
100
100.807
100
100
100
100
100
100
100
100
100
100
100
100
100
100
100
100
100
100
100
100.807
100
100
100
100
100
100
100
100
100
100
100
100
100
100
100
100
100
100
100
100.866
100.005
100
100
100
100
100
100
100
100
100
100
100
100
100
100
100
100
100
100
100.916
100.244
100
100
100
100
100
100
100
100
100
100
100
100
100
100
100
100
100
100
100.948
100.426
100
100
100
100
100
100
100
100
100
100
100
100
100
100
100
100
100
100
100.985
100.559
100
100
100
100
100
100
100
100
100
100
100
100
100
100
100
100
100
100
101.007
100.677
100
100
100
100
100
100
100
100
100
100
100
100
100
100
100
100
100
100
101.032
100.74
100.006
100
100
100
100
100
100
100
100
100
100
100
100
100
100
100
100
100
101.034
100.798
100.113
100
100
100
100
100
100
100
100
100
100
100
100
100
100
100
100
100
101.03
100.849
100.318
100
100
100
100
100
100
100
100
100
100
100
100
100
100
100
100
100
101.024
100.902
100.497
100
100
100
100
100
100
100
100
100
100
100
100
100
100
100
100
100
101.013
100.94
100.674
99.9964
100
100
100
100
100
100
100
100
100
100
100
100
100
100
100
100
101
100.964
100.817
100.153
100
100
100
100
100
100
100
100
100
100
100
100
100
100
100
100
100.982
100.98
100.925
100.465
99.9988
100
100
100
100
100
100
100
100
100
100
100
100
100
100
100
100.977
100.988
100.978
100.71
99.9995
100
100
100
100
100
100
100
100
100
100
100
100
100
100
100
100.979
100.988
100.98
100.833
100.27
100
100
100
100
100
100
100
100
100
100
100
100
100
100
100
100.982
100.989
100.982
100.915
100.543
99.9925
100
100
100
100
100
100
100
100
100
100
100
100
100
100
100.986
100.991
100.985
100.952
100.783
100.227
99.9964
100
100
100
100
100
100
100
100
100
100
100
100
100
100.991
100.991
100.985
100.964
100.918
100.649
100.054
99.999
100
100
100
100
100
100
100
100
100
100
100
100
100.994
100.992
100.984
100.973
100.963
100.869
100.496
100.014
100
100
100
100
100
100
100
100
100
100
100
100
100.995
100.993
100.989
100.988
100.984
100.958
100.88
100.433
99.8594
100
100
100
100
100
100
100
100
100
100
100
100.693
100.834
100.909
100.947
100.963
100.957
100.954
100.928
100.846
100.767
100.582
100.239
100.032
99.9958
99.9978
99.9989
99.9998
100
100
100
100.121
100.519
100.738
100.835
100.885
100.905
100.922
100.922
100.918
100.909
100.896
100.842
100.727
100.471
100.148
100.01
99.9967
99.9985
99.9992
99.9998
99.5592
100.15
100.455
100.662
100.774
100.812
100.838
100.861
100.875
100.882
100.882
100.883
100.881
100.857
100.77
100.62
100.358
100.101
100.006
99.9978
99.2947
99.8114
100.194
100.413
100.6
100.698
100.742
100.776
100.797
100.811
100.821
100.836
100.851
100.855
100.854
100.843
100.792
100.678
100.516
100.277
99.5773
99.8343
100.029
100.145
100.344
100.54
100.613
100.661
100.699
100.718
100.73
100.746
100.766
100.791
100.811
100.822
100.82
100.814
100.79
100.746
99.6399
99.8106
100.018
100.175
100.265
100.344
100.45
100.517
100.577
100.609
100.628
100.648
100.669
100.695
100.726
100.752
100.772
100.784
100.781
100.776
99.5995
99.7936
100.007
100.161
100.25
100.315
100.39
100.451
100.504
100.545
100.563
100.581
100.596
100.612
100.635
100.66
100.685
100.708
100.725
100.735
99.6061
99.7005
99.9739
100.098
100.22
100.282
100.326
100.389
100.437
100.479
100.496
100.511
100.52
100.528
100.54
100.561
100.591
100.62
100.657
100.656
99.6352
99.6529
99.8829
100.041
100.174
100.228
100.237
100.295
100.345
100.381
100.398
100.413
100.429
100.441
100.461
100.489
100.519
100.543
100.58
100.57
99.6722
99.6599
99.8312
99.9902
100.127
100.187
100.179
100.207
100.249
100.282
100.319
100.346
100.378
100.392
100.411
100.429
100.447
100.465
100.501
100.492
99.7374
99.7062
99.8176
99.9402
100.049
100.126
100.131
100.156
100.224
100.262
100.29
100.305
100.329
100.338
100.349
100.36
100.371
100.386
100.41
100.45
99.8402
99.7908
99.7988
99.8873
99.977
100.069
100.113
100.146
100.196
100.22
100.233
100.237
100.247
100.254
100.257
100.265
100.284
100.319
100.345
100.391
99.949
99.883
99.7995
99.8504
99.9315
100.023
100.077
100.104
100.124
100.14
100.127
100.131
100.133
100.149
100.176
100.213
100.25
100.278
100.292
100.329
100.05
99.9781
99.8449
99.8315
99.867
99.9453
99.9904
100.009
100.019
100.046
100.061
100.082
100.118
100.153
100.18
100.204
100.222
100.232
100.234
100.256
100.17
100.074
99.9313
99.831
99.8363
99.8719
99.9191
99.9711
100.001
100.037
100.068
100.098
100.133
100.159
100.171
100.175
100.171
100.164
100.151
100.16
100.321
100.167
100.005
99.8588
99.8453
99.8749
99.9228
99.9843
100.016
100.059
100.099
100.11
100.127
100.135
100.129
100.11
100.076
100.056
100.057
100.107
100.408
100.237
100.066
99.9143
99.8815
99.9042
99.95
100.024
100.05
100.071
100.091
100.086
100.079
100.06
100.032
100.01
100.008
100.029
100.054
100.089
100.409
100.251
100.106
99.977
99.9392
99.9553
99.9848
100.026
100.037
100.04
100.018
99.9972
99.9737
99.9625
99.9654
99.9865
100.009
100.026
100.036
100.041
100.392
100.34
100.333
100.39
100.47
100.526
100.514
100.529
100.565
100.558
100.522
100.465
100.44
100.455
100.499
100.544
100.582
100.594
100.589
100.515
100.785
100.896
100.894
100.916
100.928
100.939
100.938
100.977
101.072
101.123
101.124
101.111
101.094
101.09
101.115
101.127
101.123
101.116
101.108
101.077
101.041
101.028
101.004
100.979
100.952
100.94
100.93
100.914
100.888
100.869
100.862
100.862
100.865
100.858
100.838
100.82
100.816
100.817
100.815
100.804
100.579
100.651
100.699
100.733
100.764
100.787
100.802
100.821
100.821
100.811
100.801
100.8
100.806
100.806
100.802
100.794
100.79
100.787
100.785
100.777
100.025
100.059
100.171
100.302
100.426
100.504
100.564
100.625
100.673
100.677
100.671
100.671
100.68
100.696
100.707
100.713
100.715
100.713
100.711
100.71
100.084
100.089
100.104
100.095
100.112
100.188
100.331
100.438
100.512
100.553
100.553
100.548
100.557
100.578
100.598
100.61
100.615
100.615
100.616
100.621
100.132
100.138
100.137
100.135
100.118
100.117
100.135
100.225
100.365
100.464
100.477
100.482
100.483
100.498
100.52
100.533
100.536
100.535
100.536
100.543
100.176
100.184
100.185
100.172
100.155
100.148
100.146
100.154
100.191
100.306
100.411
100.454
100.453
100.458
100.476
100.488
100.489
100.486
100.486
100.491
100.229
100.23
100.229
100.22
100.206
100.2
100.191
100.187
100.185
100.193
100.255
100.372
100.435
100.44
100.45
100.462
100.461
100.457
100.459
100.462
100.3
100.28
100.27
100.261
100.247
100.233
100.217
100.204
100.196
100.188
100.192
100.222
100.337
100.413
100.429
100.442
100.437
100.437
100.443
100.445
100.366
100.336
100.316
100.303
100.287
100.269
100.25
100.231
100.213
100.203
100.19
100.187
100.207
100.309
100.391
100.422
100.414
100.419
100.432
100.43
100.434
100.395
100.359
100.342
100.321
100.299
100.276
100.251
100.221
100.211
100.202
100.188
100.187
100.198
100.278
100.364
100.384
100.408
100.42
100.414
100.537
100.46
100.38
100.342
100.34
100.338
100.322
100.289
100.245
100.218
100.212
100.205
100.197
100.189
100.177
100.222
100.311
100.363
100.378
100.38
100.617
100.55
100.487
100.405
100.371
100.365
100.348
100.319
100.282
100.249
100.228
100.219
100.208
100.187
100.159
100.155
100.172
100.223
100.281
100.32
100.609
100.585
100.545
100.484
100.421
100.369
100.341
100.324
100.299
100.276
100.262
100.246
100.222
100.195
100.17
100.151
100.143
100.132
100.145
100.22
100.488
100.547
100.541
100.519
100.476
100.417
100.369
100.344
100.318
100.289
100.266
100.241
100.214
100.19
100.169
100.15
100.132
100.115
100.101
100.107
100.25
100.378
100.445
100.484
100.474
100.448
100.407
100.362
100.329
100.291
100.256
100.229
100.213
100.197
100.18
100.162
100.141
100.119
100.095
100.073
100.043
100.146
100.254
100.336
100.388
100.414
100.405
100.378
100.345
100.307
100.268
100.24
100.22
100.2
100.176
100.145
100.121
100.101
100.085
100.06
100.002
100.015
100.066
100.155
100.233
100.29
100.33
100.348
100.339
100.317
100.283
100.247
100.213
100.185
100.163
100.132
100.112
100.099
100.091
100.069
100
100
100.003
100.025
100.078
100.149
100.209
100.25
100.279
100.291
100.282
100.26
100.228
100.195
100.169
100.147
100.122
100.105
100.088
100.057
100
100
100
100.001
100.006
100.03
100.081
100.14
100.187
100.216
100.241
100.243
100.236
100.216
100.186
100.158
100.129
100.101
100.079
100.049
100
100
100
100
100
100.001
100.008
100.033
100.078
100.129
100.169
100.192
100.21
100.209
100.201
100.183
100.156
100.125
100.1
100.069
100
100
100
100
100
100
100
100.001
100.008
100.031
100.073
100.118
100.154
100.174
100.186
100.184
100.177
100.161
100.137
100.097
100
100
100
100
100
100
100
100
100
100.001
100.008
100.029
100.065
100.108
100.14
100.159
100.168
100.167
100.162
100.138
100
100
100
100
100
100
100
100
100
100
100
100.001
100.007
100.024
100.057
100.097
100.128
100.146
100.154
100.151
100
100
100
100
100
100
100
100
100
100
100
100
100
100.001
100.006
100.019
100.048
100.085
100.113
100.137
100
100
100
100
100
100
100
100
100
100
100
100
100
100
100
100.001
100.004
100.016
100.041
100.105
100.595
100.652
100.61
100.416
100.142
100.017
100.001
100
100
100
100
100
100
100
100
100.671
100.662
100.518
100.217
100.022
100
100
100
100
100
100
100
100
100
100
100.704
100.635
100.373
100.074
100.002
100
100
100
100
100
100
100
100
100
100
100.719
100.517
100.166
100.009
100
100
100
100
100
100
100
100
100
100
100
100.651
100.283
100.024
100
100
100
100
100
100
100
100
100
100
100
100
100.395
100.038
100
100
100
100
100
100
100
100
100
100
100
100
100
100.042
100
100
100
100
100
100
100
100
100
100
100
100
100
100
99.9995
100
100
100
100
100
100
100
100
100
100
100
100
100
100
100
100
100
100
100
100
100
100
100
100
100
100
100
100
100
100
100
100
100
100
100
100
100
100
100
100
100
100
100
100
100
100
100
100
100
100
100
100
100
100
100
100
100
100
100
100
100
100
100
100
100
100
100
100
100
100
100
100
100
100
100
100
100
100
100
100
100
100
100
100
100
100
100
100
100
100
100
100
100
100
100
100
100
100
100
100
100
100
100
100
100
100
100
100
100
100
100
100
100
100
100
100
100
100
100
100
100
100
100
100
100
100
100
100
100
100
100
100
100
100
100
100
100
100
100
100
100
100
100
100
100
100
100
100
100
100
100
100
100
100
100
100
100
100
100
100
100
100
100
100
100
100
100
100
100
100
100
100
100
100
100
100
100
100
100
100
100
100
100
100
100
100
100
100
100
100
100
100
100
100
100
100
100
100
100
100
100
100
100
100
100
100
100
100
100
100
100
100
100
100
100
100
100
100
100
100
100
100
100
100
100
100
100
100
100
100
100
100
100
100
100
100
100
100
100
100
100
100
100
100
100
100
100
100
100
100
100
100
100
100
100
100
100
100
100
100
100
100
100
100
100
100
100
100
100
100
100
100
100
100
100
100
100
100
100
100
100
100
100
100
100
100
100
100
100
100
100
100
100
100
100
100
100
100
100
100
100
100
100
100
100
100
100
100
100
100
100
100
100
100
100
100
100
100
100
100
100
100
100
100
100
100
100
100
100
100
100
100
100
100
100
100
100
100
100
100
100
100
100
100
100
100
100
100
100
100
100
100
100
100
100
100
100
100
100
100
100
100
100
100
100
100
100
100
100
100
100
100
100
100
100
100
100
100
100
100
100
100
100
100
100
100
100
100
100
100
100
100
100
100
100
100
100
100
100
100
100
100
100
100
100
100
100
100
100
100
100
100
100
100
100
100
100
100
100
100
100
100
100
100
100
100
100
100
100
100
100
100
100
100
100
100
100
100
100
100
100
100
100
100
100
100
100
100
100
100
100
100
100
100
100
100
100
100
100
100
100
100
100
100
100
100
100
100
100
100
100
100
100
100
100
100
100
100
100
100
100
100
100
100
100
100
100
100
100
100
100
100
100
100
100
100
100
100
100
100
100
100
100
100
100
100
100
100
100
100
100
100
100
100
100
100
100
100
100
100
100
100
100
100
100
100
100
100
100
100
100
100
100
100
100
100
100
100
100
100
100
100
100
100
100
100
100
100
100
100
100
100
100
100
100
100
100
100
100
100
100
100
100
100
100
100
100
100
100
100
100
100
100
100
100
100
100
100
100
100
100
100
100
100
100
100
100
100
100
100
100
100
100
100
100
100
100
100
100
100
100
100
100
100
100
100
100
100
100
100
100
100
100
100
100
100
100
100
100
100
100
100
100
100
100
100
100
100
100
100
100
100
100
100
100
100
100
100
100
100
100
100
100
100
100
100
100
100
100
100
100
100
100
100
100
100
100
100
100
100
100
100
100
100
100
100
100
100
100
100
100
100
100
100
100
100
100
100
100
100
100
100
100
100
100
100
100
100
100
100
100
100
100
100
100
100
100
100
100
100
100
100
100
100
100
100
100
100
100
100
100
100
100
100
100
100
100
100
100
100
100
100
100
100
100
100
100
100
100
100
100
100
100
100
100
100
100
100
100
100
100
100
100
100
100
100
100
100
100
100
100
100
100
100
100
100
100
100
100
100
100
100
100
100
100
100
100
100
100
100
100
100
100
100
100
100
100
100
100
100
100
100
100
100
100
100
100
100
100
100
100
100
100
100
100
100
100
100
100
100
100
100
100
100
100
100
100
100
100
100
100
100
100
100
100
100
100
100
100
100
100
100
100
100
100
100
100
100
100
100
100
100
100
100
100
100
100
100
100
100
100
100
100
100
100
100
100
100
100
100
100
100
100
100
100
100
100
100
100
100
100
100
100
100
100
100
100
100
100
100
100
100
100
100
99.9995
100
100
100
100
100
100
100
100
100
100
100
100
100
100
100.042
100
100
100
100
100
100
100
100
100
100
100
100
100
100
100.395
100.038
100
100
100
100
100
100
100
100
100
100
100
100
100
100.651
100.283
100.024
100
100
100
100
100
100
100
100
100
100
100
100
100.719
100.517
100.166
100.009
100
100
100
100
100
100
100
100
100
100
100
100.704
100.635
100.373
100.074
100.002
100
100
100
100
100
100
100
100
100
100
100.671
100.662
100.518
100.217
100.022
100
100
100
100
100
100
100
100
100
100
100.595
100.652
100.609
100.416
100.142
100.017
100.001
100
100
100
100
100
100
100
100
100.537
100.616
100.608
100.489
100.25
100.043
100.002
100
100
100
100
100
100
100
100
100.464
100.55
100.585
100.547
100.378
100.146
100.015
100
100
100
100
100
100
100
100
100.383
100.489
100.544
100.541
100.445
100.254
100.065
100.003
100
100
100
100
100
100
100
100.336
100.407
100.483
100.519
100.484
100.336
100.155
100.025
100.001
100
100
100
100
100
100
100.337
100.37
100.42
100.475
100.474
100.388
100.233
100.078
100.006
100
100
100
100
100
100
100.336
100.363
100.373
100.416
100.448
100.414
100.29
100.149
100.03
100.001
100
100
100
100
100
100.319
100.344
100.346
100.37
100.406
100.405
100.331
100.209
100.081
100.008
100
100
100
100
100
100.291
100.311
100.325
100.35
100.363
100.378
100.348
100.25
100.14
100.033
100.001
100
100
100
100
100.259
100.276
100.291
100.321
100.329
100.344
100.339
100.279
100.187
100.078
100.008
100
100
100
100
100.231
100.244
100.269
100.29
100.292
100.307
100.317
100.291
100.216
100.129
100.031
100.001
100
100
100
100.22
100.231
100.259
100.264
100.256
100.269
100.283
100.282
100.241
100.169
100.073
100.008
100
100
100
100.212
100.224
100.245
100.239
100.229
100.242
100.248
100.26
100.243
100.192
100.118
100.029
100.001
100
100
100.202
100.212
100.222
100.214
100.214
100.222
100.212
100.228
100.236
100.21
100.154
100.065
100.007
100
100
100.188
100.19
100.198
100.19
100.195
100.2
100.185
100.195
100.216
100.209
100.174
100.108
100.024
100.001
100
100.178
100.162
100.173
100.169
100.177
100.175
100.163
100.169
100.186
100.201
100.186
100.14
100.057
100.006
100
100.22
100.156
100.153
100.15
100.16
100.144
100.132
100.147
100.158
100.183
100.184
100.159
100.097
100.019
100.001
100.31
100.172
100.143
100.132
100.14
100.121
100.112
100.122
100.129
100.156
100.177
100.168
100.128
100.048
100.004
100.361
100.221
100.131
100.115
100.119
100.102
100.099
100.105
100.101
100.125
100.16
100.167
100.146
100.085
100.016
100.378
100.279
100.145
100.101
100.095
100.085
100.091
100.088
100.079
100.1
100.137
100.162
100.154
100.113
100.041
100.38
100.32
100.219
100.107
100.073
100.06
100.069
100.057
100.049
100.069
100.097
100.138
100.151
100.137
100.105
100.436
100.392
100.348
100.335
100.323
100.301
100.277
100.247
100.224
100.217
100.208
100.195
100.187
100.196
100.278
100.363
100.382
100.407
100.419
100.414
100.365
100.331
100.306
100.3
100.289
100.266
100.244
100.223
100.209
100.205
100.193
100.186
100.203
100.304
100.383
100.419
100.411
100.418
100.432
100.43
100.297
100.273
100.271
100.267
100.251
100.232
100.214
100.201
100.195
100.188
100.19
100.22
100.33
100.404
100.425
100.441
100.437
100.437
100.443
100.444
100.229
100.23
100.231
100.223
100.207
100.198
100.19
100.185
100.185
100.193
100.259
100.369
100.427
100.437
100.453
100.464
100.463
100.457
100.459
100.462
100.174
100.185
100.188
100.177
100.159
100.151
100.149
100.155
100.192
100.31
100.412
100.448
100.448
100.46
100.481
100.49
100.49
100.486
100.485
100.491
100.132
100.138
100.142
100.141
100.125
100.117
100.133
100.217
100.362
100.469
100.48
100.482
100.486
100.503
100.524
100.535
100.536
100.534
100.534
100.542
100.085
100.095
100.106
100.096
100.11
100.191
100.332
100.429
100.5
100.557
100.561
100.556
100.562
100.579
100.599
100.612
100.615
100.614
100.615
100.623
100.029
100.038
100.165
100.295
100.418
100.505
100.565
100.613
100.654
100.677
100.68
100.679
100.683
100.693
100.706
100.714
100.714
100.711
100.709
100.712
100.598
100.611
100.682
100.733
100.764
100.786
100.799
100.812
100.812
100.807
100.805
100.803
100.803
100.802
100.797
100.791
100.787
100.786
100.785
100.778
101.042
101.01
100.994
100.979
100.955
100.937
100.925
100.911
100.889
100.866
100.861
100.861
100.861
100.853
100.834
100.82
100.816
100.816
100.815
100.803
)
;

boundaryField
{
    inlet
    {
        type            fixedValue;
        value           uniform 100;
    }
    outlet
    {
        type            inletOutlet;
        inletValue      uniform 100;
        value           nonuniform List<scalar> 
50
(
100.38
100.32
100.22
100.107
100.073
100.06
100.069
100.057
100.049
100.069
100.097
100.138
100.151
100.137
100.105
100.804
100.777
100.71
100.621
100.543
100.491
100.462
100.445
100.43
100.414
100.414
100.43
100.444
100.462
100.491
100.542
100.623
100.712
100.778
100.803
100.38
100.32
100.219
100.107
100.073
100.06
100.069
100.057
100.049
100.069
100.097
100.138
100.151
100.137
100.105
)
;
    }
    airfoil
    {
        type            zeroGradient;
    }
    top
    {
        type            symmetryPlane;
    }
    bottom
    {
        type            symmetryPlane;
    }
    defaultFaces
    {
        type            empty;
    }
}


// ************************************************************************* //
