/*--------------------------------*- C++ -*----------------------------------*\
  =========                 |
  \\      /  F ield         | OpenFOAM: The Open Source CFD Toolbox
   \\    /   O peration     | Website:  https://openfoam.org
    \\  /    A nd           | Version:  7
     \\/     M anipulation  |
\*---------------------------------------------------------------------------*/
FoamFile
{
    version     2.0;
    format      ascii;
    class       volScalarField;
    location    "3.6";
    object      p;
}
// * * * * * * * * * * * * * * * * * * * * * * * * * * * * * * * * * * * * * //

dimensions      [1 -1 -2 0 0 0 0];

internalField   nonuniform List<scalar> 
3700
(
0.105537
0.184797
0.237663
0.2796
0.317622
0.373052
0.409347
0.408173
0.412425
0.418135
0.437338
0.45143
0.465444
0.470169
0.477534
0.498039
0.504172
0.508574
0.538553
0.558936
0.0660381
0.0850667
0.111644
0.123165
0.124534
0.127984
0.128251
0.116437
0.0965097
0.0954737
0.113849
0.131768
0.152151
0.177095
0.202465
0.218689
0.209432
0.19888
0.200205
0.211756
0.0632391
0.0741249
0.0804165
0.0752699
0.0628851
0.0518808
0.0481003
0.0492238
0.0560122
0.0624316
0.0725948
0.0811143
0.091577
0.103052
0.109606
0.112523
0.113705
0.113273
0.113853
0.120287
0.0704983
0.0778593
0.0729124
0.0639133
0.0530797
0.0506646
0.0488253
0.051627
0.0577532
0.0691372
0.0786993
0.0875167
0.0995337
0.117422
0.134478
0.150284
0.162462
0.165449
0.163289
0.165514
0.0741308
0.0737547
0.0658065
0.0588265
0.0576479
0.0634311
0.0643272
0.07365
0.0847351
0.100204
0.093899
0.0976472
0.103149
0.11969
0.141518
0.165538
0.189004
0.208317
0.223497
0.229359
0.0773962
0.0711999
0.0631314
0.0567497
0.0593915
0.0702441
0.0756827
0.0905606
0.111033
0.132497
0.137537
0.147941
0.141614
0.1443
0.151691
0.173489
0.205442
0.24348
0.276209
0.320253
0.0857718
0.0672137
0.0574307
0.0523281
0.05456
0.0683971
0.0762278
0.095137
0.123588
0.152201
0.178408
0.197363
0.209919
0.222309
0.222536
0.230189
0.243874
0.277484
0.325096
0.410075
0.0888381
0.0594691
0.0476113
0.0473021
0.0513352
0.0642546
0.0743579
0.092712
0.123502
0.160701
0.202012
0.230469
0.268963
0.299528
0.325492
0.348038
0.366988
0.388083
0.420871
0.529293
0.0827171
0.0497524
0.0448032
0.0479368
0.0596327
0.0728503
0.0851173
0.102241
0.126211
0.158554
0.208964
0.251133
0.312016
0.362453
0.414207
0.466072
0.512529
0.556635
0.592667
0.719043
0.0741273
0.0441587
0.0472198
0.0597545
0.080321
0.104656
0.127433
0.156989
0.188139
0.213305
0.242371
0.290185
0.359652
0.429314
0.502508
0.587988
0.675561
0.757178
0.832935
0.95365
0.0655618
0.039989
0.0482191
0.0649197
0.0865891
0.12118
0.173465
0.226424
0.284436
0.349478
0.40543
0.466131
0.526292
0.592217
0.655952
0.743456
0.866774
0.985329
1.17545
1.14809
0.0536723
0.0323115
0.0365489
0.0552968
0.0761979
0.11945
0.193776
0.266333
0.360415
0.478205
0.57714
0.67402
0.770686
0.861096
0.945883
1.04854
1.17307
1.3074
1.54844
1.52166
0.0377539
0.0234547
0.0250326
0.0448919
0.0660653
0.111032
0.187727
0.282212
0.41935
0.595741
0.752947
0.900284
1.04739
1.17727
1.33224
1.49954
1.66433
1.82936
2.08884
2.08182
0.0249689
0.0172793
0.0201135
0.0413151
0.0648833
0.14692
0.266193
0.428443
0.666713
0.900563
1.1066
1.28344
1.4609
1.63353
1.86247
2.1067
2.34735
2.5882
2.79697
3.01026
0.0178031
0.0147985
0.0175978
0.0448308
0.145732
0.39342
0.64358
0.917383
1.23995
1.53722
1.77235
1.98054
2.18848
2.40731
2.69899
2.98451
3.26486
3.50596
3.65386
3.78141
0.0130399
0.014382
0.0299322
0.148501
0.437115
0.781683
1.13087
1.52896
1.96305
2.34241
2.62116
2.88673
3.15044
3.43747
3.76138
3.98231
4.10903
4.14385
4.0486
3.91656
0.00874947
0.0223474
0.146522
0.435812
0.93358
1.44831
1.95727
2.51509
3.11718
3.52088
3.77003
4.00061
4.20018
4.35739
4.46134
4.39123
4.18055
3.65338
2.79967
1.8942
0.0243349
0.140114
0.530002
1.19396
2.06702
2.87997
3.55583
4.22777
4.7453
4.84508
4.76592
4.74781
4.70099
4.52848
4.01314
3.05442
2.08573
1.33278
1.01904
0.992923
0.314046
0.890124
1.97942
3.18579
4.24418
4.86848
5.40648
5.86783
5.72752
5.28659
4.8638
4.32668
3.39966
2.32337
1.42239
1.02887
0.98938
0.994926
0.997325
0.999439
2.31874
3.63344
4.87394
5.70316
6.2692
6.43497
6.561
6.24013
4.53751
3.20516
2.36585
1.55649
1.07723
0.987235
0.992838
0.99626
0.999159
0.999974
1.00002
1.00001
6.96333
6.9026
6.86108
6.92744
7.04212
6.77826
6.00204
2.35129
0.640805
1
1
1
1
1
1
1
1
1
1
1
6.95687
6.87945
6.79822
6.75016
6.80369
5.80085
2.65434
1.0251
1
1
1
1
1
1
1
1
1
1
1
1
6.78409
6.8376
6.82736
6.71284
6.26928
3.34104
1.03072
0.999364
1
1
1
1
1
1
1
1
1
1
1
1
6.62708
6.78552
6.81593
6.67547
4.69281
1.40344
0.994179
1.00011
0.999999
1
1
1
1
1
1
1
1
1
1
1
6.52081
6.75871
6.78613
6.08669
2.71035
0.975622
1.00035
0.999994
1
1
1
1
1
1
1
1
1
1
1
1
6.46502
6.80357
6.77861
4.95306
1.51768
1
1
1
1
1
1
1
1
1
1
1
1
1
1
1
6.43069
6.80318
6.76009
3.56756
0.973372
1
1
1
1
1
1
1
1
1
1
1
1
1
1
1
6.49088
6.63958
6.00844
2.01121
0.999996
1
1
1
1
1
1
1
1
1
1
1
1
1
1
1
6.93062
6.60226
4.85987
1.21705
1
1
1
1
1
1
1
1
1
1
1
1
1
1
1
1
7.24541
6.40255
3.43361
0.987785
1
1
1
1
1
1
1
1
1
1
1
1
1
1
1
1
7.40099
5.97947
2.34282
1
1
1
1
1
1
1
1
1
1
1
1
1
1
1
1
1
7.48727
5.42536
1.64073
1
1
1
1
1
1
1
1
1
1
1
1
1
1
1
1
1
7.54281
4.78714
1.17344
1
1
1
1
1
1
1
1
1
1
1
1
1
1
1
1
1
7.42204
3.98073
1.00858
1
1
1
1
1
1
1
1
1
1
1
1
1
1
1
1
1
7.19147
3.18291
1
1
1
1
1
1
1
1
1
1
1
1
1
1
1
1
1
1
6.91467
2.501
1
1
1
1
1
1
1
1
1
1
1
1
1
1
1
1
1
1
6.6435
1.85079
1
1
1
1
1
1
1
1
1
1
1
1
1
1
1
1
1
1
6.25408
1.37801
1
1
1
1
1
1
1
1
1
1
1
1
1
1
1
1
1
1
5.87022
1.00651
1
1
1
1
1
1
1
1
1
1
1
1
1
1
1
1
1
1
4.61625
1.00009
1
1
1
1
1
1
1
1
1
1
1
1
1
1
1
1
1
1
4.61515
1.00009
1
1
1
1
1
1
1
1
1
1
1
1
1
1
1
1
1
1
5.86891
1.00649
1
1
1
1
1
1
1
1
1
1
1
1
1
1
1
1
1
1
6.26103
1.37795
1
1
1
1
1
1
1
1
1
1
1
1
1
1
1
1
1
1
6.64718
1.85221
1
1
1
1
1
1
1
1
1
1
1
1
1
1
1
1
1
1
6.91855
2.50307
1
1
1
1
1
1
1
1
1
1
1
1
1
1
1
1
1
1
7.17923
3.18902
1
1
1
1
1
1
1
1
1
1
1
1
1
1
1
1
1
1
7.41841
3.97637
1.0068
1
1
1
1
1
1
1
1
1
1
1
1
1
1
1
1
1
7.54744
4.77908
1.16976
1
1
1
1
1
1
1
1
1
1
1
1
1
1
1
1
1
7.49312
5.42511
1.63581
1
1
1
1
1
1
1
1
1
1
1
1
1
1
1
1
1
7.40051
5.97398
2.34703
1
1
1
1
1
1
1
1
1
1
1
1
1
1
1
1
1
7.24559
6.40927
3.43263
0.987786
1
1
1
1
1
1
1
1
1
1
1
1
1
1
1
1
6.92921
6.60624
4.8651
1.21927
1
1
1
1
1
1
1
1
1
1
1
1
1
1
1
1
6.484
6.63446
6.00572
2.01759
0.999901
1
1
1
1
1
1
1
1
1
1
1
1
1
1
1
6.42954
6.7949
6.76043
3.56449
0.973103
1
1
1
1
1
1
1
1
1
1
1
1
1
1
1
6.47011
6.81436
6.7847
4.95449
1.51803
1
1
1
1
1
1
1
1
1
1
1
1
1
1
1
6.52684
6.76537
6.78855
6.07331
2.71709
0.975495
1.00035
0.999994
1
1
1
1
1
1
1
1
1
1
1
1
6.62777
6.78741
6.81573
6.67078
4.6821
1.40257
0.994368
1.00011
0.999999
1
1
1
1
1
1
1
1
1
1
1
6.7763
6.83866
6.83058
6.72282
6.27035
3.32617
1.02682
0.999457
1
1
1
1
1
1
1
1
1
1
1
1
6.94944
6.87755
6.808
6.76043
6.80954
5.80136
2.65069
1.02478
1
1
1
1
1
1
1
1
1
1
1
1
6.96227
6.90449
6.86862
6.93547
7.04076
6.77084
6.00152
2.35491
0.639634
1
1
1
1
1
1
1
1
1
1
1
2.31826
3.63298
4.88033
5.70919
6.27627
6.42776
6.55457
6.23699
4.53785
3.20667
2.36731
1.55729
1.07729
0.987231
0.992835
0.996258
0.999158
0.999974
1.00002
1.00001
0.314777
0.887878
1.97202
3.18201
4.2522
4.87199
5.40306
5.86331
5.7236
5.28423
4.86229
4.32623
3.40007
2.32385
1.42228
1.02878
0.989387
0.994933
0.997329
0.99944
0.0255571
0.143358
0.531807
1.19161
2.0607
2.87918
3.55751
4.22964
4.74126
4.8438
4.76012
4.74989
4.70534
4.53194
4.01404
3.05432
2.08511
1.33215
1.01886
0.992932
0.00825822
0.0229842
0.149922
0.432468
0.929358
1.44399
1.955
2.51336
3.11514
3.51776
3.76807
4.00178
4.20332
4.36022
4.46222
4.3915
4.18001
3.65174
2.79777
1.89291
0.0128781
0.0125091
0.0318903
0.15611
0.440069
0.778105
1.12777
1.5252
1.95783
2.33735
2.61753
2.88474
3.14907
3.43697
3.76095
3.98206
4.10894
4.14391
4.04854
3.9164
0.0164078
0.0132988
0.0168736
0.0472442
0.151291
0.401437
0.648145
0.922372
1.24594
1.54312
1.77662
1.98394
2.19147
2.41008
2.70165
2.98701
3.26689
3.50685
3.65408
3.78128
0.0228748
0.0157936
0.0193599
0.0407636
0.0641486
0.152174
0.273017
0.437008
0.676019
0.906769
1.11091
1.28554
1.46156
1.63321
1.86178
2.10689
2.34803
2.58922
2.79654
3.00967
0.0347104
0.0216808
0.0239362
0.0441336
0.0645824
0.109826
0.185706
0.276896
0.413067
0.588712
0.746734
0.89496
1.04341
1.17474
1.33156
1.49995
1.66521
1.829
2.08774
2.08024
0.0502146
0.0308351
0.0355709
0.0543675
0.0744281
0.11744
0.192973
0.262805
0.355938
0.474866
0.574293
0.671855
0.76959
0.86086
0.947231
1.05034
1.17367
1.30678
1.54652
1.52084
0.0622047
0.0396809
0.0482117
0.0646264
0.0859769
0.119546
0.174291
0.226906
0.2852
0.351831
0.408648
0.469842
0.530164
0.59562
0.658098
0.743388
0.864544
0.983061
1.17525
1.14732
0.0703814
0.0437949
0.0475139
0.0599282
0.0805123
0.104205
0.1295
0.160873
0.192174
0.217389
0.245616
0.291791
0.359044
0.427928
0.500595
0.586079
0.674286
0.7564
0.833419
0.95518
0.0804973
0.0483928
0.0440391
0.0481626
0.0606108
0.0728392
0.0853091
0.104346
0.127806
0.15743
0.206234
0.248471
0.309538
0.360423
0.412742
0.465644
0.513047
0.558169
0.593983
0.722154
0.0889771
0.0575451
0.0463044
0.047105
0.0513907
0.064012
0.0745746
0.0927244
0.122626
0.158628
0.199992
0.228828
0.268077
0.299401
0.326484
0.349786
0.369283
0.390573
0.422117
0.529731
0.0898423
0.0665044
0.0553979
0.0517987
0.0544082
0.0678302
0.0766329
0.0949711
0.12261
0.151092
0.177974
0.197339
0.211684
0.225162
0.225444
0.232667
0.245078
0.276072
0.322871
0.408856
0.0801798
0.0704311
0.0623779
0.056971
0.0597713
0.0705044
0.0762586
0.0903459
0.110891
0.132181
0.139167
0.150366
0.143998
0.146427
0.152089
0.171675
0.202949
0.2415
0.274774
0.319664
0.0741002
0.0727211
0.0652492
0.0594373
0.0589856
0.0646195
0.0653041
0.0740919
0.0859316
0.102031
0.0950571
0.0986045
0.103149
0.118305
0.139583
0.163567
0.187492
0.207495
0.223982
0.230674
0.072385
0.0773897
0.0717334
0.0628474
0.0531276
0.0512159
0.0497598
0.0523256
0.0580711
0.0688118
0.0779652
0.0867937
0.0984805
0.115904
0.132916
0.149264
0.162423
0.166328
0.164703
0.166718
0.0666165
0.0746505
0.0799416
0.075036
0.0625051
0.051938
0.0489556
0.0499287
0.0556205
0.0615863
0.0715199
0.079916
0.090321
0.102082
0.109287
0.112905
0.11451
0.114124
0.114339
0.120343
0.0670774
0.0834953
0.100976
0.127309
0.138039
0.132913
0.129883
0.138956
0.159982
0.168439
0.164993
0.165879
0.174901
0.186783
0.190191
0.193691
0.201912
0.205741
0.205285
0.18849
0.104227
0.189871
0.224096
0.281017
0.334227
0.383312
0.418972
0.430909
0.456664
0.467894
0.462533
0.467174
0.471876
0.466797
0.466302
0.482694
0.500206
0.506531
0.523626
0.515576
0.565777
0.61553
0.705438
0.814711
0.821722
0.844307
0.844715
0.870993
0.906699
0.922378
0.919721
0.915246
0.920169
0.941947
0.970552
0.97052
0.948047
0.905754
0.880118
0.872649
0.315676
0.399016
0.541067
0.686758
0.762704
0.823752
0.842073
0.86351
0.900894
0.926352
0.933565
0.932632
0.926963
0.934356
0.953389
0.960504
0.949735
0.924165
0.895315
0.877522
0.139474
0.152889
0.229232
0.338844
0.531733
0.693785
0.765528
0.833211
0.885419
0.915419
0.928944
0.93323
0.933977
0.932988
0.932424
0.93537
0.934795
0.925199
0.90743
0.882493
0.186042
0.21368
0.235661
0.242171
0.2639
0.343552
0.544805
0.728348
0.811109
0.876635
0.928786
0.937599
0.939541
0.936689
0.927043
0.923365
0.92784
0.92417
0.911021
0.884051
0.231227
0.259927
0.272853
0.292347
0.306144
0.297584
0.317433
0.411761
0.590249
0.753034
0.879959
0.926292
0.947846
0.94585
0.926519
0.919376
0.924584
0.923376
0.911715
0.881987
0.309651
0.320856
0.325587
0.329984
0.334931
0.336706
0.34037
0.331572
0.35376
0.46921
0.67632
0.863879
0.934983
0.948937
0.936176
0.925412
0.92884
0.925034
0.90763
0.878847
0.40376
0.402044
0.384034
0.375608
0.383258
0.389012
0.385321
0.377287
0.360891
0.360669
0.431527
0.639102
0.846787
0.947762
0.939435
0.937311
0.930934
0.917639
0.902235
0.880637
0.529252
0.506988
0.447553
0.410096
0.412724
0.428247
0.43296
0.423934
0.406778
0.378541
0.377272
0.428625
0.620377
0.851627
0.934589
0.941545
0.927943
0.906467
0.900598
0.886518
0.686069
0.621748
0.537774
0.462663
0.459773
0.476149
0.484107
0.475402
0.451617
0.421564
0.3935
0.397635
0.439653
0.623471
0.849143
0.931437
0.899508
0.891276
0.89865
0.88939
0.870658
0.776663
0.65952
0.552096
0.521539
0.517169
0.525728
0.515874
0.494822
0.46045
0.434356
0.421317
0.425959
0.461026
0.634805
0.838817
0.860943
0.889629
0.906373
0.890941
1.23575
0.975596
0.849003
0.70402
0.588208
0.565339
0.572843
0.582669
0.570916
0.537681
0.494989
0.472216
0.465121
0.467322
0.487705
0.577422
0.738823
0.849902
0.88056
0.872694
2.04258
1.44154
1.18575
1.03453
0.860215
0.712949
0.670892
0.666129
0.6437
0.597582
0.553466
0.533472
0.525445
0.511327
0.494545
0.494497
0.525895
0.60912
0.714381
0.81136
2.50825
2.17208
1.69791
1.35468
1.13379
0.957232
0.779824
0.720218
0.711345
0.693036
0.669372
0.637133
0.608047
0.582466
0.550879
0.52892
0.532858
0.525982
0.537822
0.64279
2.36705
2.35131
2.23531
1.91349
1.5476
1.30292
1.09754
0.912958
0.85615
0.831587
0.783673
0.71601
0.656456
0.622653
0.590969
0.588758
0.580364
0.562728
0.536075
0.531152
1.68012
2.15033
2.22055
2.19346
2.05381
1.77394
1.50942
1.25202
1.04945
0.95361
0.866921
0.798686
0.749556
0.695644
0.68164
0.67921
0.66012
0.627802
0.586845
0.53374
1.10864
1.43655
1.84781
2.11556
2.11464
2.07575
1.92933
1.69461
1.4347
1.22941
1.06721
0.977723
0.92998
0.852213
0.78517
0.741358
0.69692
0.65768
0.634359
0.589892
1.0045
1.04415
1.20558
1.55175
1.86128
2.01998
2.01439
1.9734
1.84135
1.61727
1.39799
1.21181
1.08621
0.975485
0.888757
0.823659
0.756942
0.732682
0.728692
0.682065
1.00009
1.00111
1.01058
1.07826
1.27006
1.57009
1.82578
1.93697
1.93013
1.88477
1.77082
1.58275
1.37582
1.21734
1.10239
1.00972
0.929722
0.8738
0.831766
0.750151
1
1.00001
1.00015
1.00245
1.0191
1.10052
1.28893
1.5583
1.76744
1.85626
1.85188
1.81757
1.71176
1.55969
1.384
1.21588
1.1079
0.998032
0.908698
0.811651
1
1
1
1.00003
1.00033
1.00393
1.02418
1.10811
1.28809
1.52051
1.70497
1.78805
1.78293
1.75592
1.6783
1.53753
1.38516
1.23412
1.1074
0.964826
1
1
1
1
1
1.00005
1.00048
1.00467
1.02697
1.10585
1.2631
1.47524
1.63776
1.72429
1.72231
1.70442
1.64133
1.52599
1.38948
1.16983
1
1
1
1
1
1
1
1.00006
1.00058
1.00487
1.02486
1.09428
1.23455
1.42251
1.57349
1.6665
1.66447
1.64753
1.60199
1.43408
1
1
1
1
1
1
1
1
1.00001
1.00006
1.00056
1.00428
1.02186
1.08067
1.19744
1.36847
1.51153
1.60067
1.59728
1.55192
1
1
1
1
1
1
1
1
1
1
1.00001
1.00006
1.0005
1.00347
1.0175
1.06367
1.16459
1.31319
1.43869
1.50945
1
1
1
1
1
1
1
1
1
1
1
1
1.00001
1.00005
1.00041
1.00256
1.01415
1.05155
1.13482
1.33857
1.62407
2.46111
2.58146
2.08536
1.31114
1.03712
1.00188
1.00005
1
1
1
1
1
1
1
2.34509
2.81488
2.52716
1.54267
1.04872
1.00083
1
1
1
1
1
1
1
1
1
2.93391
2.87122
1.98171
1.15271
1.00523
1.00005
1
1
1
1
1
1
1
1
1
3.25628
2.55877
1.36483
1.01927
1.00018
1
1
1
1
1
1
1
1
1
1
3.32002
1.68256
1.04723
1.00052
1
1
1
1
1
1
1
1
1
1
1
2.06461
1.07246
1.00046
0.999999
1
1
1
1
1
1
1
1
1
1
1
1.10187
1.00054
0.999997
1
1
1
1
1
1
1
1
1
1
1
1
0.99816
0.999866
0.999996
1
1
1
1
1
1
1
1
1
1
1
1
0.999966
1
1
1
1
1
1
1
1
1
1
1
1
1
1
1
1
1
1
1
1
1
1
1
1
1
1
1
1
1
1
1
1
1
1
1
1
1
1
1
1
1
1
1
1
1
1
1
1
1
1
1
1
1
1
1
1
1
1
1
1
1
1
1
1
1
1
1
1
1
1
1
1
1
1
1
1
1
1
1
1
1
1
1
1
1
1
1
1
1
1
1
1
1
1
1
1
1
1
1
1
1
1
1
1
1
1
1
1
1
1
1
1
1
1
1
1
1
1
1
1
1
1
1
1
1
1
1
1
1
1
1
1
1
1
1
1
1
1
1
1
1
1
1
1
1
1
1
1
1
1
1
1
1
1
1
1
1
1
1
1
1
1
1
1
1
1
1
1
1
1
1
1
1
1
1
1
1
1
1
1
1
1
1
1
1
1
1
1
1
1
1
1
1
1
1
1
1
1
1
1
1
1
1
1
1
1
1
1
1
1
1
1
1
1
1
1
1
1
1
1
1
1
1
1
1
1
1
1
1
1
1
1
1
1
1
1
1
1
1
1
1
1
1
1
1
1
1
1
1
1
1
1
1
1
1
1
1
1
1
1
1
1
1
1
1
1
1
1
1
1
1
1
1
1
1
1
1
1
1
1
1
1
1
1
1
1
1
1
1
1
1
1
1
1
1
1
1
1
1
1
1
1
1
1
1
1
1
1
1
1
1
1
1
1
1
1
1
1
1
1
1
1
1
1
1
1
1
1
1
1
1
1
1
1
1
1
1
1
1
1
1
1
1
1
1
1
1
1
1
1
1
1
1
1
1
1
1
1
1
1
1
1
1
1
1
1
1
1
1
1
1
1
1
1
1
1
1
1
1
1
1
1
1
1
1
1
1
1
1
1
1
1
1
1
1
1
1
1
1
1
1
1
1
1
1
1
1
1
1
1
1
1
1
1
1
1
1
1
1
1
1
1
1
1
1
1
1
1
1
1
1
1
1
1
1
1
1
1
1
1
1
1
1
1
1
1
1
1
1
1
1
1
1
1
1
1
1
1
1
1
1
1
1
1
1
1
1
1
1
1
1
1
1
1
1
1
1
1
1
1
1
1
1
1
1
1
1
1
1
1
1
1
1
1
1
1
1
1
1
1
1
1
1
1
1
1
1
1
1
1
1
1
1
1
1
1
1
1
1
1
1
1
1
1
1
1
1
1
1
1
1
1
1
1
1
1
1
1
1
1
1
1
1
1
1
1
1
1
1
1
1
1
1
1
1
1
1
1
1
1
1
1
1
1
1
1
1
1
1
1
1
1
1
1
1
1
1
1
1
1
1
1
1
1
1
1
1
1
1
1
1
1
1
1
1
1
1
1
1
1
1
1
1
1
1
1
1
1
1
1
1
1
1
1
1
1
1
1
1
1
1
1
1
1
1
1
1
1
1
1
1
1
1
1
1
1
1
1
1
1
1
1
1
1
1
1
1
1
1
1
1
1
1
1
1
1
1
1
1
1
1
1
1
1
1
1
1
1
1
1
1
1
1
1
1
1
1
1
1
1
1
1
1
1
1
1
1
1
1
1
1
1
1
1
1
1
1
1
1
1
1
1
1
1
1
1
1
1
1
1
1
1
1
1
1
1
1
1
1
1
1
1
1
1
1
1
1
1
1
1
1
1
1
1
1
1
1
1
1
1
1
1
1
1
1
1
1
1
1
1
1
1
1
1
1
1
1
1
1
1
1
1
1
1
1
1
1
1
1
1
1
1
1
1
1
1
1
1
1
1
1
1
1
1
1
1
1
1
1
1
1
1
1
1
1
1
1
1
1
1
1
1
1
1
1
1
1
1
1
1
1
1
1
1
1
1
1
1
1
1
1
1
1
1
1
1
1
1
1
1
1
1
1
1
1
1
1
1
1
1
1
1
1
1
0.999966
1
1
1
1
1
1
1
1
1
1
1
1
1
1
0.998163
0.999866
0.999996
1
1
1
1
1
1
1
1
1
1
1
1
1.10169
1.00054
0.999997
1
1
1
1
1
1
1
1
1
1
1
1
2.06433
1.07245
1.00046
0.999999
1
1
1
1
1
1
1
1
1
1
1
3.31996
1.68253
1.04721
1.00052
1
1
1
1
1
1
1
1
1
1
1
3.25644
2.55946
1.36515
1.01928
1.00018
1
1
1
1
1
1
1
1
1
1
2.93328
2.87129
1.98213
1.15291
1.00524
1.00005
1
1
1
1
1
1
1
1
1
2.34583
2.81459
2.52734
1.5428
1.04873
1.00083
1
1
1
1
1
1
1
1
1
1.62242
2.46147
2.58155
2.08548
1.31116
1.03712
1.00188
1.00005
1
1
1
1
1
1
1
1.24421
2.03859
2.50843
2.36687
1.67985
1.10859
1.0045
1.00009
1
1
1
1
1
1
1
0.974906
1.4483
2.17154
2.351
2.15033
1.43649
1.04414
1.00111
1.00001
1
1
1
1
1
1
0.840617
1.19644
1.69721
2.23537
2.22063
1.84786
1.20563
1.01058
1.00015
1
1
1
1
1
1
0.693167
1.03531
1.35635
1.91292
2.19348
2.11555
1.55186
1.07831
1.00246
1.00003
1
1
1
1
1
0.584226
0.848567
1.1348
1.54722
2.054
2.11462
1.8614
1.27012
1.01911
1.00033
1
1
1
1
1
0.566544
0.70672
0.959689
1.30523
1.77395
2.07561
2.0199
1.57017
1.10053
1.00393
1.00005
1
1
1
1
0.581897
0.671218
0.782772
1.10002
1.50877
1.92904
2.01429
1.82569
1.28896
1.02419
1.00048
1
1
1
1
0.591424
0.668534
0.719751
0.912728
1.25081
1.69425
1.97332
1.93692
1.55827
1.10812
1.00467
1.00006
1
1
1
0.578897
0.645244
0.708333
0.854531
1.04939
1.43409
1.84138
1.93011
1.76746
1.28805
1.02696
1.00058
1.00001
1
1
0.540008
0.597416
0.690041
0.830214
0.954447
1.22956
1.61702
1.88477
1.85626
1.52052
1.10585
1.00487
1.00006
1
1
0.492503
0.554415
0.668811
0.782649
0.867298
1.0674
1.39805
1.77081
1.85187
1.70496
1.26313
1.02486
1.00056
1.00001
1
0.469608
0.534986
0.638526
0.715211
0.798474
0.977819
1.21213
1.58275
1.81754
1.78807
1.47525
1.09429
1.00428
1.00006
1
0.463943
0.526562
0.6095
0.656167
0.74916
0.930045
1.08622
1.37585
1.71178
1.78294
1.63773
1.23452
1.02186
1.0005
1.00001
0.467332
0.511559
0.582896
0.622087
0.696009
0.852393
0.97528
1.21748
1.55978
1.75592
1.72432
1.42249
1.08066
1.00347
1.00005
0.488033
0.493838
0.551101
0.590255
0.681556
0.784817
0.88837
1.10274
1.38425
1.67836
1.72234
1.5735
1.19743
1.0175
1.00041
0.57674
0.494084
0.529439
0.588793
0.679113
0.741272
0.823633
1.00973
1.21564
1.53759
1.70447
1.66654
1.36849
1.06368
1.00256
0.737753
0.525067
0.53266
0.58085
0.660018
0.696724
0.756997
0.930198
1.10769
1.38497
1.64136
1.6645
1.51156
1.1646
1.01416
0.849791
0.608085
0.525813
0.563549
0.627629
0.657216
0.731848
0.873833
0.998387
1.23409
1.52585
1.64754
1.60069
1.31321
1.05156
0.880361
0.713343
0.53789
0.537243
0.586879
0.634105
0.728183
0.831305
0.908847
1.10772
1.38949
1.602
1.5973
1.43872
1.13484
0.872386
0.810737
0.642273
0.531369
0.534016
0.590062
0.682411
0.749938
0.811385
0.964881
1.16996
1.43414
1.55196
1.5095
1.3386
0.865307
0.775479
0.655082
0.549183
0.523797
0.519737
0.518327
0.507529
0.493501
0.458566
0.432762
0.420311
0.425063
0.461185
0.635257
0.838768
0.861436
0.88978
0.905886
0.890753
0.681386
0.621084
0.539774
0.46461
0.465382
0.474302
0.47357
0.462185
0.441211
0.417205
0.391438
0.396792
0.439255
0.625124
0.850759
0.932242
0.900207
0.891873
0.898553
0.889259
0.529675
0.504226
0.452163
0.419961
0.425974
0.433848
0.429963
0.417262
0.402386
0.377936
0.378591
0.426731
0.616614
0.850343
0.936948
0.942397
0.928851
0.907388
0.901103
0.886685
0.40342
0.404948
0.381515
0.374938
0.383358
0.385963
0.379823
0.373348
0.360377
0.362464
0.431334
0.633148
0.841018
0.946363
0.941344
0.938262
0.930817
0.917895
0.903338
0.88109
0.311665
0.319901
0.332884
0.338154
0.340731
0.339614
0.340304
0.332376
0.35573
0.47327
0.679122
0.863265
0.932978
0.947714
0.936855
0.925946
0.928528
0.924473
0.907662
0.878921
0.23383
0.256378
0.27106
0.294134
0.305958
0.296279
0.316417
0.409321
0.590536
0.759535
0.886438
0.927435
0.945989
0.943622
0.926187
0.920025
0.924433
0.922979
0.911447
0.881957
0.186015
0.214383
0.237483
0.244528
0.264743
0.351085
0.549444
0.722117
0.813032
0.882846
0.933906
0.941843
0.939779
0.933586
0.924922
0.922985
0.92848
0.924368
0.911007
0.883893
0.137223
0.172679
0.23686
0.325343
0.529015
0.701233
0.759145
0.819801
0.881629
0.918009
0.933945
0.937964
0.935651
0.933042
0.933643
0.936802
0.936341
0.925838
0.906847
0.882042
0.277734
0.439515
0.546539
0.685764
0.763562
0.831384
0.83501
0.847202
0.889797
0.923097
0.932816
0.933919
0.926467
0.930487
0.948225
0.958654
0.949996
0.926354
0.897159
0.877954
0.55835
0.63924
0.705488
0.81323
0.817527
0.834573
0.843519
0.866522
0.90931
0.936779
0.9367
0.928555
0.922736
0.939603
0.967605
0.976598
0.960827
0.919165
0.883073
0.872484
)
;

boundaryField
{
    inlet
    {
        type            fixedValue;
        value           uniform 1;
    }
    outlet
    {
        type            zeroGradient;
    }
    airfoil
    {
        type            zeroGradient;
    }
    top
    {
        type            symmetryPlane;
    }
    bottom
    {
        type            symmetryPlane;
    }
    defaultFaces
    {
        type            empty;
    }
}


// ************************************************************************* //
