/*--------------------------------*- C++ -*----------------------------------*\
  =========                 |
  \\      /  F ield         | OpenFOAM: The Open Source CFD Toolbox
   \\    /   O peration     | Website:  https://openfoam.org
    \\  /    A nd           | Version:  7
     \\/     M anipulation  |
\*---------------------------------------------------------------------------*/
FoamFile
{
    version     2.0;
    format      ascii;
    class       volScalarField;
    location    "3.6";
    object      rho;
}
// * * * * * * * * * * * * * * * * * * * * * * * * * * * * * * * * * * * * * //

dimensions      [1 -3 0 0 0 0 0];

internalField   nonuniform List<scalar> 
3700
(
0.147043
0.256993
0.330193
0.388245
0.440697
0.516845
0.566704
0.565114
0.571211
0.579417
0.605985
0.625294
0.644497
0.650923
0.661084
0.689483
0.698054
0.704314
0.745943
0.77413
0.0923082
0.118793
0.155694
0.171781
0.173702
0.178273
0.178491
0.162134
0.134681
0.133332
0.158847
0.183742
0.212095
0.246736
0.281851
0.304314
0.291522
0.277053
0.278989
0.295052
0.0884346
0.10362
0.11243
0.105296
0.08805
0.0727053
0.0674339
0.0690042
0.0784996
0.0874614
0.101654
0.113555
0.128178
0.144216
0.153378
0.157464
0.159135
0.158557
0.159379
0.168363
0.0985743
0.10885
0.101992
0.0894666
0.0743594
0.0710028
0.0684452
0.0723715
0.0809469
0.0968648
0.110216
0.122529
0.139312
0.164303
0.188127
0.210209
0.227224
0.231416
0.228458
0.231617
0.103635
0.103126
0.0920757
0.0823508
0.0807011
0.0887972
0.0900771
0.103124
0.118642
0.140282
0.131489
0.136719
0.14439
0.167487
0.197974
0.231522
0.264278
0.291237
0.312452
0.320662
0.108158
0.0995538
0.0883327
0.0794307
0.0831115
0.0982803
0.1059
0.126693
0.155297
0.185301
0.19238
0.206939
0.198134
0.201897
0.21222
0.242661
0.287264
0.340322
0.385992
0.447426
0.119786
0.0939766
0.0803682
0.0732578
0.0763692
0.0956995
0.106655
0.133066
0.172781
0.212736
0.249333
0.275838
0.293395
0.310723
0.311083
0.321803
0.340941
0.387838
0.454208
0.572635
0.12404
0.0831741
0.066685
0.0662669
0.0718955
0.0899507
0.104062
0.129692
0.172665
0.224575
0.282225
0.321964
0.375673
0.418344
0.454584
0.486054
0.512515
0.541958
0.587698
0.738734
0.11555
0.0696533
0.0627806
0.0671687
0.083525
0.101998
0.11913
0.143029
0.176478
0.221603
0.291942
0.350781
0.435676
0.506019
0.578171
0.650459
0.715222
0.776693
0.826893
1.00282
0.103674
0.0618678
0.0661698
0.0837091
0.112445
0.146433
0.178247
0.219476
0.26295
0.298031
0.338597
0.405279
0.502122
0.599217
0.701194
0.820238
0.942161
1.0558
1.16121
1.32908
0.0917916
0.0560619
0.0675674
0.090913
0.12118
0.169443
0.242409
0.316251
0.397116
0.487746
0.565733
0.650299
0.734132
0.826011
0.914825
1.03667
1.20824
1.37313
1.63735
1.59936
0.0752199
0.0453473
0.051249
0.0774524
0.106648
0.166994
0.270664
0.371813
0.502857
0.666859
0.804655
0.939561
1.07413
1.20001
1.31801
1.46084
1.634
1.82073
2.15547
2.11826
0.0529749
0.0329613
0.0351453
0.0629086
0.0924789
0.155203
0.262156
0.393883
0.584871
0.830365
1.04917
1.2542
1.45886
1.63952
1.85493
2.08738
2.3162
2.54528
2.90542
2.89568
0.0350785
0.024304
0.0282521
0.0579054
0.0907529
0.205032
0.371259
0.597277
0.928852
1.25416
1.54078
1.78674
2.03348
2.27335
2.59121
2.93012
3.26388
3.59787
3.88752
4.1836
0.0250379
0.0208211
0.0247206
0.0627643
0.203416
0.548136
0.896245
1.27693
1.72523
2.13839
2.46522
2.75448
3.04323
3.34686
3.7514
4.14727
4.5359
4.87023
5.07587
5.25332
0.0183579
0.0202231
0.0419394
0.207309
0.608909
1.08801
1.57333
2.12627
2.72908
3.25593
3.64296
4.01138
4.37688
4.77445
5.22337
5.52964
5.70572
5.75449
5.62364
5.44269
0.0123293
0.0313697
0.204665
0.607145
1.29873
2.0138
2.7205
3.49458
4.32997
4.89006
5.23545
5.55473
5.83077
6.0486
6.19293
6.09628
5.8068
5.08026
3.89932
2.64449
0.0342309
0.195915
0.738375
1.66053
2.87206
3.99963
4.9366
5.86818
6.58582
6.72395
6.61414
6.58892
6.52395
6.28596
5.57535
4.24977
2.90961
1.86402
1.42657
1.39013
0.439156
1.23962
2.75101
4.42325
5.88951
6.75458
7.49981
8.13976
7.94559
7.33475
6.74918
6.00709
4.72534
3.23754
1.98843
1.44028
1.38518
1.39292
1.39627
1.39922
3.22384
5.04471
6.76194
7.90963
8.69324
8.92363
9.09846
8.6555
6.2995
4.45348
3.29345
2.17411
1.50769
1.38219
1.39001
1.39479
1.39883
1.39997
1.40003
1.40002
9.65246
9.56857
9.51136
9.60365
9.76318
9.39996
8.32914
3.27674
0.898553
1.40001
1.40001
1.40001
1.40001
1.40001
1.40001
1.40001
1.40001
1.40001
1.40001
1.40001
9.64351
9.53654
9.42459
9.35929
9.43552
8.05197
3.6975
1.43489
1.40001
1.40001
1.40001
1.40001
1.40001
1.40001
1.40001
1.40001
1.40001
1.40001
1.40001
1.40001
9.40462
9.47869
9.46493
9.30811
8.69836
4.64888
1.44259
1.39912
1.40001
1.40001
1.40001
1.40001
1.40001
1.40001
1.40001
1.40001
1.40001
1.40001
1.40001
1.40001
9.18758
9.40674
9.4491
9.25684
6.51868
1.96039
1.3919
1.40016
1.4
1.40001
1.40001
1.40001
1.40001
1.40001
1.40001
1.40001
1.40001
1.40001
1.40001
1.40001
9.04069
9.36973
9.40792
8.44284
3.77282
1.36599
1.40049
1.4
1.40001
1.40001
1.40001
1.40001
1.40001
1.40001
1.40001
1.40001
1.40001
1.40001
1.40001
1.40001
8.96354
9.43181
9.39769
6.87664
2.11849
1.40001
1.40001
1.40001
1.40001
1.40001
1.40001
1.40001
1.40001
1.40001
1.40001
1.40001
1.40001
1.40001
1.40001
1.40001
8.91603
9.43134
9.37293
4.96014
1.36283
1.40001
1.40001
1.40001
1.40001
1.40001
1.40001
1.40001
1.40001
1.40001
1.40001
1.40001
1.40001
1.40001
1.40001
1.40001
8.99883
9.20576
8.33576
2.80291
1.4
1.40001
1.40001
1.40001
1.40001
1.40001
1.40001
1.40001
1.40001
1.40001
1.40001
1.40001
1.40001
1.40001
1.40001
1.40001
9.60649
9.15474
6.7487
1.70125
1.4
1.40001
1.40001
1.40001
1.40001
1.40001
1.40001
1.40001
1.40001
1.40001
1.40001
1.40001
1.40001
1.40001
1.40001
1.40001
10.0414
8.87962
4.77486
1.38295
1.40001
1.40001
1.40001
1.40001
1.40001
1.40001
1.40001
1.40001
1.40001
1.40001
1.40001
1.40001
1.40001
1.40001
1.40001
1.40001
10.2564
8.29596
3.26315
1.40001
1.40001
1.40001
1.40001
1.40001
1.40001
1.40001
1.40001
1.40001
1.40001
1.40001
1.40001
1.40001
1.40001
1.40001
1.40001
1.40001
10.3755
7.53084
2.28943
1.40001
1.40001
1.40001
1.40001
1.40001
1.40001
1.40001
1.40001
1.40001
1.40001
1.40001
1.40001
1.40001
1.40001
1.40001
1.40001
1.40001
10.4522
6.64885
1.64089
1.40001
1.40001
1.40001
1.40001
1.40001
1.40001
1.40001
1.40001
1.40001
1.40001
1.40001
1.40001
1.40001
1.40001
1.40001
1.40001
1.40001
10.2856
5.53258
1.41195
1.40001
1.40001
1.40001
1.40001
1.40001
1.40001
1.40001
1.40001
1.40001
1.40001
1.40001
1.40001
1.40001
1.40001
1.40001
1.40001
1.40001
9.96737
4.42677
1.40001
1.40001
1.40001
1.40001
1.40001
1.40001
1.40001
1.40001
1.40001
1.40001
1.40001
1.40001
1.40001
1.40001
1.40001
1.40001
1.40001
1.40001
9.58619
3.48162
1.40001
1.40001
1.40001
1.40001
1.40001
1.40001
1.40001
1.40001
1.40001
1.40001
1.40001
1.40001
1.40001
1.40001
1.40001
1.40001
1.40001
1.40001
9.2134
2.5803
1.40001
1.40001
1.40001
1.40001
1.40001
1.40001
1.40001
1.40001
1.40001
1.40001
1.40001
1.40001
1.40001
1.40001
1.40001
1.40001
1.40001
1.40001
8.67653
1.9245
1.40001
1.40001
1.40001
1.40001
1.40001
1.40001
1.40001
1.40001
1.40001
1.40001
1.40001
1.40001
1.40001
1.40001
1.40001
1.40001
1.40001
1.40001
8.14691
1.40904
1.40001
1.40001
1.40001
1.40001
1.40001
1.40001
1.40001
1.40001
1.40001
1.40001
1.40001
1.40001
1.40001
1.40001
1.40001
1.40001
1.40001
1.40001
6.41113
1.40013
1.40001
1.40001
1.40001
1.40001
1.40001
1.40001
1.40001
1.40001
1.40001
1.40001
1.40001
1.40001
1.40001
1.40001
1.40001
1.40001
1.40001
1.40001
6.40963
1.40013
1.40001
1.40001
1.40001
1.40001
1.40001
1.40001
1.40001
1.40001
1.40001
1.40001
1.40001
1.40001
1.40001
1.40001
1.40001
1.40001
1.40001
1.40001
8.14513
1.40901
1.40001
1.40001
1.40001
1.40001
1.40001
1.40001
1.40001
1.40001
1.40001
1.40001
1.40001
1.40001
1.40001
1.40001
1.40001
1.40001
1.40001
1.40001
8.68616
1.92441
1.40001
1.40001
1.40001
1.40001
1.40001
1.40001
1.40001
1.40001
1.40001
1.40001
1.40001
1.40001
1.40001
1.40001
1.40001
1.40001
1.40001
1.40001
9.21849
2.58228
1.40001
1.40001
1.40001
1.40001
1.40001
1.40001
1.40001
1.40001
1.40001
1.40001
1.40001
1.40001
1.40001
1.40001
1.40001
1.40001
1.40001
1.40001
9.59153
3.48449
1.40001
1.40001
1.40001
1.40001
1.40001
1.40001
1.40001
1.40001
1.40001
1.40001
1.40001
1.40001
1.40001
1.40001
1.40001
1.40001
1.40001
1.40001
9.95032
4.4352
1.40001
1.40001
1.40001
1.40001
1.40001
1.40001
1.40001
1.40001
1.40001
1.40001
1.40001
1.40001
1.40001
1.40001
1.40001
1.40001
1.40001
1.40001
10.2805
5.52654
1.40947
1.40001
1.40001
1.40001
1.40001
1.40001
1.40001
1.40001
1.40001
1.40001
1.40001
1.40001
1.40001
1.40001
1.40001
1.40001
1.40001
1.40001
10.4587
6.63775
1.63578
1.40001
1.40001
1.40001
1.40001
1.40001
1.40001
1.40001
1.40001
1.40001
1.40001
1.40001
1.40001
1.40001
1.40001
1.40001
1.40001
1.40001
10.3837
7.53057
2.28261
1.40001
1.40001
1.40001
1.40001
1.40001
1.40001
1.40001
1.40001
1.40001
1.40001
1.40001
1.40001
1.40001
1.40001
1.40001
1.40001
1.40001
10.2558
8.28839
3.26898
1.40001
1.40001
1.40001
1.40001
1.40001
1.40001
1.40001
1.40001
1.40001
1.40001
1.40001
1.40001
1.40001
1.40001
1.40001
1.40001
1.40001
10.0417
8.8889
4.77348
1.38295
1.40001
1.40001
1.40001
1.40001
1.40001
1.40001
1.40001
1.40001
1.40001
1.40001
1.40001
1.40001
1.40001
1.40001
1.40001
1.40001
9.60453
9.16021
6.75592
1.70434
1.40001
1.40001
1.40001
1.40001
1.40001
1.40001
1.40001
1.40001
1.40001
1.40001
1.40001
1.40001
1.40001
1.40001
1.40001
1.40001
8.98929
9.19867
8.33196
2.81173
1.39987
1.40001
1.40001
1.40001
1.40001
1.40001
1.40001
1.40001
1.40001
1.40001
1.40001
1.40001
1.40001
1.40001
1.40001
1.40001
8.91447
9.41992
9.37348
4.95591
1.36245
1.40001
1.40001
1.40001
1.40001
1.40001
1.40001
1.40001
1.40001
1.40001
1.40001
1.40001
1.40001
1.40001
1.40001
1.40001
8.9706
9.44674
9.40615
6.8787
2.11899
1.40001
1.40001
1.40001
1.40001
1.40001
1.40001
1.40001
1.40001
1.40001
1.40001
1.40001
1.40001
1.40001
1.40001
1.40001
9.04905
9.37894
9.41127
8.42435
3.78218
1.36581
1.40049
1.4
1.40001
1.40001
1.40001
1.40001
1.40001
1.40001
1.40001
1.40001
1.40001
1.40001
1.40001
1.40001
9.18853
9.40934
9.44878
9.25022
6.50379
1.95918
1.39217
1.40015
1.4
1.40001
1.40001
1.40001
1.40001
1.40001
1.40001
1.40001
1.40001
1.40001
1.40001
1.40001
9.39381
9.4801
9.46929
9.32181
8.69981
4.6283
1.43716
1.39925
1.40001
1.40001
1.40001
1.40001
1.40001
1.40001
1.40001
1.40001
1.40001
1.40001
1.40001
1.40001
9.63314
9.53382
9.43804
9.37345
9.44369
8.05291
3.6925
1.43444
1.40001
1.40001
1.40001
1.40001
1.40001
1.40001
1.40001
1.40001
1.40001
1.40001
1.40001
1.40001
9.65096
9.57115
9.52175
9.61478
9.7614
9.38982
8.3284
3.28172
0.896918
1.40001
1.40001
1.40001
1.40001
1.40001
1.40001
1.40001
1.40001
1.40001
1.40001
1.40001
3.22316
5.04408
6.77076
7.91798
8.70311
8.91376
9.08959
8.65114
6.29995
4.45556
3.29545
2.17522
1.50777
1.38219
1.39001
1.39478
1.39883
1.39997
1.40003
1.40002
0.440174
1.2365
2.74076
4.41803
5.90066
6.75949
7.49516
8.13349
7.94013
7.33145
6.74707
6.00647
4.7259
3.2382
1.98828
1.44015
1.38519
1.39293
1.39628
1.39922
0.0359497
0.200447
0.740886
1.65726
2.86333
3.99857
4.93898
5.87075
6.58018
6.72216
6.60608
6.5918
6.52998
6.29075
5.57659
4.24962
2.90876
1.86314
1.42633
1.39014
0.0116384
0.0322603
0.20942
0.602508
1.29288
2.00782
2.71736
3.4922
4.32713
4.88572
5.23274
5.55637
5.83513
6.05253
6.19416
6.09667
5.80605
5.078
3.89671
2.6427
0.0181322
0.0175965
0.0446756
0.217916
0.613023
1.08305
1.56904
2.12106
2.72182
3.2489
3.63793
4.00863
4.375
4.77377
5.22276
5.52931
5.70559
5.75458
5.62356
5.44247
0.0230812
0.0187142
0.0237002
0.0661361
0.211161
0.559305
0.902607
1.28386
1.73354
2.14657
2.47114
2.75919
3.04739
3.3507
3.75508
4.15073
4.53873
4.87146
5.07619
5.25314
0.0321439
0.0222186
0.0271911
0.0571328
0.0897231
0.212352
0.380762
0.609178
0.941766
1.26277
1.54675
1.78965
2.0344
2.27292
2.59026
2.93038
3.26482
3.59929
3.88694
4.18279
0.0487158
0.0304748
0.033606
0.061846
0.0904049
0.153509
0.259328
0.386472
0.576124
0.820593
1.04054
1.24681
1.45334
1.63601
1.85399
2.08795
2.31742
2.54478
2.90389
2.89349
0.070388
0.0432803
0.0498761
0.0761473
0.104173
0.164184
0.269535
0.366896
0.496623
0.662211
0.800693
0.936549
1.07261
1.19969
1.31988
1.46333
1.63482
1.81985
2.15279
2.11712
0.0871098
0.0556313
0.0675531
0.0904979
0.120324
0.167159
0.243555
0.316921
0.398177
0.491022
0.570215
0.655466
0.739517
0.83074
0.917803
1.03657
1.20514
1.36997
1.63708
1.59829
0.0984671
0.0613599
0.0665801
0.0839493
0.112711
0.145803
0.181131
0.224894
0.268581
0.303731
0.343125
0.407517
0.501274
0.597288
0.698532
0.817582
0.940384
1.05472
1.16189
1.33121
0.112479
0.067758
0.0617108
0.0674859
0.0848946
0.101983
0.1194
0.145972
0.178708
0.220034
0.288132
0.347067
0.432219
0.503187
0.576127
0.649858
0.71594
0.778827
0.828724
1.00714
0.124241
0.0804946
0.0648623
0.0659932
0.071975
0.0896123
0.104364
0.129705
0.17144
0.221678
0.279402
0.319668
0.37443
0.418161
0.455959
0.488483
0.515708
0.545421
0.589428
0.739344
0.12546
0.0929874
0.0775327
0.0725197
0.0761583
0.0949053
0.107216
0.132829
0.171412
0.211181
0.248718
0.275796
0.29585
0.314697
0.315133
0.325254
0.342616
0.385872
0.451113
0.570939
0.112041
0.0984831
0.0872764
0.0797332
0.083637
0.0986379
0.106699
0.126387
0.155091
0.184852
0.194647
0.210318
0.201459
0.204867
0.212778
0.240132
0.283789
0.337564
0.383994
0.446604
0.1036
0.101688
0.0912955
0.0831961
0.0825602
0.090448
0.0914351
0.103735
0.120307
0.142829
0.133109
0.138062
0.144395
0.165555
0.195273
0.228772
0.262171
0.29009
0.313129
0.322495
0.101216
0.108206
0.100351
0.087975
0.0744228
0.0717694
0.0697491
0.0733472
0.0813922
0.0964146
0.109196
0.121523
0.137844
0.162184
0.185948
0.208785
0.22717
0.232641
0.230427
0.233294
0.0931623
0.104372
0.111782
0.104979
0.0875222
0.0727856
0.0686301
0.0699903
0.07795
0.0862815
0.100155
0.111883
0.126424
0.142862
0.152933
0.157998
0.160257
0.159743
0.160061
0.168446
0.0937822
0.116642
0.140964
0.17751
0.192377
0.185189
0.180879
0.193306
0.22237
0.234165
0.229599
0.23101
0.243576
0.260102
0.264889
0.269802
0.281195
0.286482
0.285881
0.262784
0.14523
0.264041
0.311522
0.390229
0.463537
0.53112
0.580233
0.59651
0.632083
0.647713
0.640442
0.646975
0.653348
0.646256
0.645615
0.668343
0.692619
0.701436
0.725191
0.714315
0.783775
0.853144
0.977783
1.12927
1.13926
1.17097
1.17192
1.20853
1.25818
1.28009
1.27659
1.27052
1.27747
1.30774
1.34744
1.34747
1.31645
1.25797
1.22257
1.21246
0.439187
0.555294
0.752348
0.954355
1.05948
1.1442
1.16962
1.19931
1.25115
1.28651
1.29658
1.29534
1.28751
1.29779
1.32422
1.33414
1.3193
1.28391
1.24401
1.21955
0.195199
0.21397
0.320394
0.473041
0.741237
0.966382
1.06567
1.15933
1.2317
1.2732
1.29179
1.29769
1.29865
1.29721
1.2964
1.30047
1.29968
1.28636
1.26174
1.22728
0.260261
0.298881
0.329586
0.338708
0.369016
0.479965
0.759962
1.0151
1.13011
1.22096
1.29308
1.30522
1.30783
1.3038
1.29032
1.28513
1.29129
1.28617
1.26792
1.23053
0.323323
0.363407
0.381498
0.408732
0.427992
0.416045
0.443671
0.575017
0.823458
1.04986
1.22616
1.29037
1.32025
1.31747
1.29055
1.28056
1.28773
1.28604
1.26986
1.22859
0.432706
0.448392
0.455055
0.461215
0.468118
0.47058
0.475684
0.463421
0.494338
0.655152
0.943387
1.20404
1.30281
1.32219
1.30445
1.28946
1.29421
1.28892
1.26478
1.22481
0.56388
0.561562
0.53653
0.5248
0.535459
0.543469
0.538313
0.527117
0.50432
0.50406
0.602799
0.891718
1.18047
1.3208
1.30922
1.30628
1.29742
1.27897
1.25761
1.22763
0.738706
0.707747
0.625007
0.572835
0.576502
0.598131
0.604694
0.592124
0.568257
0.529007
0.527286
0.598858
0.865803
1.18738
1.30269
1.31238
1.2935
1.26366
1.25556
1.23603
0.95698
0.867477
0.750587
0.646008
0.642033
0.664866
0.675969
0.663858
0.630752
0.588944
0.549952
0.555742
0.61432
0.870263
1.18412
1.29856
1.2542
1.24274
1.25305
1.24023
1.21367
1.08294
0.919982
0.7705
0.728052
0.722031
0.733976
0.720277
0.690984
0.643146
0.606879
0.588802
0.595288
0.644203
0.886157
1.17
1.20082
1.24066
1.26401
1.24261
1.72101
1.35962
1.18365
0.982008
0.820917
0.789183
0.799669
0.813394
0.797069
0.75082
0.691401
0.659764
0.64995
0.653075
0.681525
0.806514
1.03122
1.18575
1.22855
1.21763
2.84201
2.00744
1.65211
1.44194
1.19952
0.994712
0.936317
0.929775
0.898612
0.834408
0.772973
0.745206
0.734127
0.714545
0.691204
0.691207
0.735004
0.851012
0.997699
1.13277
3.49032
3.02317
2.36444
1.88756
1.58044
1.33489
1.08812
1.00531
0.993013
0.967535
0.934622
0.889808
0.849399
0.813855
0.769905
0.739351
0.744917
0.735429
0.752012
0.898384
3.29777
3.27394
3.11262
2.66521
2.15657
1.81635
1.53067
1.27391
1.19494
1.16081
1.09416
0.999996
0.917098
0.870079
0.825986
0.823
0.811391
0.786897
0.749761
0.743056
2.34631
2.99916
3.09497
3.05611
2.86178
2.47248
2.10452
1.74643
1.46455
1.3312
1.21055
1.11554
1.04714
0.972082
0.952666
0.949368
0.922847
0.877871
0.820813
0.746818
1.55144
2.00827
2.5804
2.95183
2.94905
2.89406
2.69018
2.36344
2.00171
1.71596
1.49012
1.36551
1.29905
1.19075
1.09739
1.0364
0.974519
0.919837
0.887354
0.825402
1.40628
1.4616
1.68672
2.16907
2.59974
2.8198
2.81094
2.75316
2.56918
2.25708
1.95169
1.69237
1.51742
1.36314
1.24228
1.15157
1.05858
1.02479
1.01928
0.954312
1.40013
1.40156
1.41476
1.5092
1.77669
2.19487
2.55079
2.70501
2.69465
2.63105
2.47218
2.21011
1.92179
1.70094
1.54073
1.41154
1.30001
1.22206
1.16348
1.04967
1.40001
1.40002
1.40021
1.40343
1.42666
1.54026
1.80307
2.17859
2.46979
2.59317
2.58637
2.53842
2.39087
2.17887
1.93398
1.69959
1.54902
1.39582
1.27122
1.13584
1.40001
1.40001
1.40001
1.40004
1.40046
1.4055
1.43376
1.55086
1.8019
2.126
2.38292
2.49849
2.49089
2.45316
2.3449
2.14861
1.93619
1.72558
1.54885
1.34995
1.40001
1.40001
1.40001
1.40001
1.40001
1.40007
1.40068
1.40652
1.43764
1.54771
1.76706
2.06292
2.28934
2.40984
2.40677
2.38181
2.29381
2.13298
1.94264
1.63626
1.40001
1.40001
1.40001
1.40001
1.40001
1.40001
1.40001
1.40009
1.40082
1.40681
1.4347
1.53156
1.72725
1.98938
2.19983
2.3294
2.32636
2.30273
2.23923
2.00507
1.40001
1.40001
1.40001
1.40001
1.40001
1.40001
1.40001
1.40001
1.40001
1.4001
1.40079
1.40598
1.43051
1.51257
1.67548
1.91402
2.11347
2.23764
2.23283
2.16958
1.40001
1.40001
1.40001
1.40001
1.40001
1.40001
1.40001
1.40001
1.40001
1.40001
1.40001
1.40009
1.4007
1.40485
1.42443
1.48885
1.62965
1.83691
2.01191
2.11051
1.40001
1.40001
1.40001
1.40001
1.40001
1.40001
1.40001
1.40001
1.40001
1.40001
1.40001
1.40001
1.40001
1.40007
1.40057
1.40358
1.41976
1.47194
1.58812
1.87226
2.26018
3.42319
3.59214
2.90741
1.83298
1.45173
1.40262
1.40007
1.40001
1.40001
1.40001
1.40001
1.40001
1.40001
1.40001
3.26124
3.91488
3.51978
2.15505
1.46789
1.40116
1.40001
1.4
1.40001
1.40001
1.40001
1.40001
1.40001
1.40001
1.40001
4.07878
3.99433
2.76408
1.61261
1.40729
1.40008
1.40001
1.40001
1.40001
1.40001
1.40001
1.40001
1.40001
1.40001
1.40001
4.52625
3.56382
1.90758
1.42686
1.40026
1.40001
1.40001
1.40001
1.40001
1.40001
1.40001
1.40001
1.40001
1.40001
1.40001
4.61799
2.34891
1.46577
1.40073
1.40001
1.4
1.40001
1.40001
1.40001
1.40001
1.40001
1.40001
1.40001
1.40001
1.40001
2.87916
1.50089
1.40065
1.4
1.4
1.4
1.40001
1.40001
1.40001
1.40001
1.40001
1.40001
1.40001
1.40001
1.40001
1.54197
1.40076
1.4
1.4
1.40001
1.40001
1.40001
1.40001
1.40001
1.40001
1.40001
1.40001
1.40001
1.40001
1.40001
1.39744
1.39982
1.4
1.4
1.40001
1.40001
1.40001
1.40001
1.40001
1.40001
1.40001
1.40001
1.40001
1.40001
1.40001
1.39996
1.40001
1.40001
1.40001
1.40001
1.40001
1.40001
1.40001
1.40001
1.40001
1.40001
1.40001
1.40001
1.40001
1.40001
1.40001
1.40001
1.40001
1.40001
1.40001
1.40001
1.40001
1.40001
1.40001
1.40001
1.40001
1.40001
1.40001
1.40001
1.40001
1.40001
1.40001
1.40001
1.40001
1.40001
1.40001
1.40001
1.40001
1.40001
1.40001
1.40001
1.40001
1.40001
1.40001
1.40001
1.40001
1.40001
1.40001
1.40001
1.40001
1.40001
1.40001
1.40001
1.40001
1.40001
1.40001
1.40001
1.40001
1.40001
1.40001
1.40001
1.40001
1.40001
1.40001
1.40001
1.40001
1.40001
1.40001
1.40001
1.40001
1.40001
1.40001
1.40001
1.40001
1.40001
1.40001
1.40001
1.40001
1.40001
1.40001
1.40001
1.40001
1.40001
1.40001
1.40001
1.40001
1.40001
1.40001
1.40001
1.40001
1.40001
1.40001
1.40001
1.40001
1.40001
1.40001
1.40001
1.40001
1.40001
1.40001
1.40001
1.40001
1.40001
1.40001
1.40001
1.40001
1.40001
1.40001
1.40001
1.40001
1.40001
1.40001
1.40001
1.40001
1.40001
1.40001
1.40001
1.40001
1.40001
1.40001
1.40001
1.40001
1.40001
1.40001
1.40001
1.40001
1.40001
1.40001
1.40001
1.40001
1.40001
1.40001
1.40001
1.40001
1.40001
1.40001
1.40001
1.40001
1.40001
1.40001
1.40001
1.40001
1.40001
1.40001
1.40001
1.40001
1.40001
1.40001
1.40001
1.40001
1.40001
1.40001
1.40001
1.40001
1.40001
1.40001
1.40001
1.40001
1.40001
1.40001
1.40001
1.40001
1.40001
1.40001
1.40001
1.40001
1.40001
1.40001
1.40001
1.40001
1.40001
1.40001
1.40001
1.40001
1.40001
1.40001
1.40001
1.40001
1.40001
1.40001
1.40001
1.40001
1.40001
1.40001
1.40001
1.40001
1.40001
1.40001
1.40001
1.40001
1.40001
1.40001
1.40001
1.40001
1.40001
1.40001
1.40001
1.40001
1.40001
1.40001
1.40001
1.40001
1.40001
1.40001
1.40001
1.40001
1.40001
1.40001
1.40001
1.40001
1.40001
1.40001
1.40001
1.40001
1.40001
1.40001
1.40001
1.40001
1.40001
1.40001
1.40001
1.40001
1.40001
1.40001
1.40001
1.40001
1.40001
1.40001
1.40001
1.40001
1.40001
1.40001
1.40001
1.40001
1.40001
1.40001
1.40001
1.40001
1.40001
1.40001
1.40001
1.40001
1.40001
1.40001
1.40001
1.40001
1.40001
1.40001
1.40001
1.40001
1.40001
1.40001
1.40001
1.40001
1.40001
1.40001
1.40001
1.40001
1.40001
1.40001
1.40001
1.40001
1.40001
1.40001
1.40001
1.40001
1.40001
1.40001
1.40001
1.40001
1.40001
1.40001
1.40001
1.40001
1.40001
1.40001
1.40001
1.40001
1.40001
1.40001
1.40001
1.40001
1.40001
1.40001
1.40001
1.40001
1.40001
1.40001
1.40001
1.40001
1.40001
1.40001
1.40001
1.40001
1.40001
1.40001
1.40001
1.40001
1.40001
1.40001
1.40001
1.40001
1.40001
1.40001
1.40001
1.40001
1.40001
1.40001
1.40001
1.40001
1.40001
1.40001
1.40001
1.40001
1.40001
1.40001
1.40001
1.40001
1.40001
1.40001
1.40001
1.40001
1.40001
1.40001
1.40001
1.40001
1.40001
1.40001
1.40001
1.40001
1.40001
1.40001
1.40001
1.40001
1.40001
1.40001
1.40001
1.40001
1.40001
1.40001
1.40001
1.40001
1.40001
1.40001
1.40001
1.40001
1.40001
1.40001
1.40001
1.40001
1.40001
1.40001
1.40001
1.40001
1.40001
1.40001
1.40001
1.40001
1.40001
1.40001
1.40001
1.40001
1.40001
1.40001
1.40001
1.40001
1.40001
1.40001
1.40001
1.40001
1.40001
1.40001
1.40001
1.40001
1.40001
1.40001
1.40001
1.40001
1.40001
1.40001
1.40001
1.40001
1.40001
1.40001
1.40001
1.40001
1.40001
1.40001
1.40001
1.40001
1.40001
1.40001
1.40001
1.40001
1.40001
1.40001
1.40001
1.40001
1.40001
1.40001
1.40001
1.40001
1.40001
1.40001
1.40001
1.40001
1.40001
1.40001
1.40001
1.40001
1.40001
1.40001
1.40001
1.40001
1.40001
1.40001
1.40001
1.40001
1.40001
1.40001
1.40001
1.40001
1.40001
1.40001
1.40001
1.40001
1.40001
1.40001
1.40001
1.40001
1.40001
1.40001
1.40001
1.40001
1.40001
1.40001
1.40001
1.40001
1.40001
1.40001
1.40001
1.40001
1.40001
1.40001
1.40001
1.40001
1.40001
1.40001
1.40001
1.40001
1.40001
1.40001
1.40001
1.40001
1.40001
1.40001
1.40001
1.40001
1.40001
1.40001
1.40001
1.40001
1.40001
1.40001
1.40001
1.40001
1.40001
1.40001
1.40001
1.40001
1.40001
1.40001
1.40001
1.40001
1.40001
1.40001
1.40001
1.40001
1.40001
1.40001
1.40001
1.40001
1.40001
1.40001
1.40001
1.40001
1.40001
1.40001
1.40001
1.40001
1.40001
1.40001
1.40001
1.40001
1.40001
1.40001
1.40001
1.40001
1.40001
1.40001
1.40001
1.40001
1.40001
1.40001
1.40001
1.40001
1.40001
1.40001
1.40001
1.40001
1.40001
1.40001
1.40001
1.40001
1.40001
1.40001
1.40001
1.40001
1.40001
1.40001
1.40001
1.40001
1.40001
1.40001
1.40001
1.40001
1.40001
1.40001
1.40001
1.40001
1.40001
1.40001
1.40001
1.40001
1.40001
1.40001
1.40001
1.40001
1.40001
1.40001
1.40001
1.40001
1.40001
1.40001
1.40001
1.40001
1.40001
1.40001
1.40001
1.40001
1.40001
1.40001
1.40001
1.40001
1.40001
1.40001
1.40001
1.40001
1.40001
1.40001
1.40001
1.40001
1.40001
1.40001
1.40001
1.40001
1.40001
1.40001
1.40001
1.40001
1.40001
1.40001
1.40001
1.40001
1.40001
1.40001
1.40001
1.40001
1.40001
1.40001
1.40001
1.40001
1.40001
1.40001
1.40001
1.40001
1.40001
1.40001
1.40001
1.40001
1.40001
1.40001
1.40001
1.40001
1.40001
1.40001
1.40001
1.40001
1.40001
1.40001
1.40001
1.40001
1.40001
1.40001
1.40001
1.40001
1.40001
1.40001
1.40001
1.40001
1.40001
1.40001
1.40001
1.40001
1.40001
1.40001
1.40001
1.40001
1.40001
1.40001
1.40001
1.40001
1.40001
1.40001
1.40001
1.40001
1.40001
1.40001
1.40001
1.40001
1.40001
1.40001
1.40001
1.40001
1.40001
1.40001
1.40001
1.40001
1.40001
1.40001
1.40001
1.40001
1.40001
1.40001
1.40001
1.40001
1.40001
1.40001
1.40001
1.40001
1.40001
1.40001
1.40001
1.40001
1.40001
1.40001
1.40001
1.40001
1.40001
1.40001
1.40001
1.40001
1.40001
1.40001
1.40001
1.40001
1.40001
1.40001
1.40001
1.40001
1.40001
1.40001
1.40001
1.40001
1.40001
1.40001
1.40001
1.40001
1.40001
1.40001
1.40001
1.40001
1.40001
1.40001
1.40001
1.40001
1.40001
1.40001
1.40001
1.40001
1.40001
1.40001
1.40001
1.40001
1.40001
1.40001
1.40001
1.40001
1.40001
1.40001
1.40001
1.40001
1.40001
1.40001
1.40001
1.40001
1.40001
1.40001
1.40001
1.40001
1.40001
1.40001
1.40001
1.40001
1.40001
1.40001
1.40001
1.40001
1.40001
1.40001
1.40001
1.40001
1.40001
1.40001
1.40001
1.40001
1.40001
1.40001
1.40001
1.40001
1.40001
1.40001
1.40001
1.40001
1.40001
1.40001
1.40001
1.40001
1.40001
1.40001
1.40001
1.40001
1.40001
1.40001
1.40001
1.40001
1.40001
1.40001
1.40001
1.40001
1.40001
1.40001
1.40001
1.40001
1.40001
1.40001
1.40001
1.40001
1.40001
1.40001
1.40001
1.40001
1.40001
1.40001
1.40001
1.40001
1.40001
1.40001
1.40001
1.40001
1.40001
1.40001
1.40001
1.40001
1.40001
1.40001
1.40001
1.40001
1.40001
1.40001
1.40001
1.40001
1.40001
1.40001
1.40001
1.40001
1.40001
1.40001
1.40001
1.40001
1.40001
1.40001
1.40001
1.40001
1.40001
1.40001
1.40001
1.40001
1.40001
1.40001
1.40001
1.40001
1.40001
1.40001
1.40001
1.40001
1.40001
1.40001
1.40001
1.40001
1.40001
1.40001
1.40001
1.40001
1.40001
1.40001
1.40001
1.40001
1.40001
1.40001
1.40001
1.40001
1.40001
1.40001
1.40001
1.40001
1.40001
1.40001
1.40001
1.40001
1.40001
1.40001
1.40001
1.40001
1.40001
1.40001
1.40001
1.40001
1.40001
1.40001
1.40001
1.40001
1.40001
1.40001
1.40001
1.39996
1.40001
1.40001
1.40001
1.40001
1.40001
1.40001
1.40001
1.40001
1.40001
1.40001
1.40001
1.40001
1.40001
1.40001
1.39744
1.39982
1.4
1.40001
1.40001
1.40001
1.40001
1.40001
1.40001
1.40001
1.40001
1.40001
1.40001
1.40001
1.40001
1.54172
1.40076
1.4
1.4
1.40001
1.40001
1.40001
1.40001
1.40001
1.40001
1.40001
1.40001
1.40001
1.40001
1.40001
2.87877
1.50087
1.40065
1.4
1.4
1.4
1.40001
1.40001
1.40001
1.40001
1.40001
1.40001
1.40001
1.40001
1.40001
4.61792
2.34888
1.46574
1.40073
1.40001
1.4
1.40001
1.40001
1.40001
1.40001
1.40001
1.40001
1.40001
1.40001
1.40001
4.52647
3.56477
1.90802
1.42687
1.40026
1.40001
1.40001
1.40001
1.40001
1.40001
1.40001
1.40001
1.40001
1.40001
1.40001
4.07791
3.99442
2.76465
1.61289
1.40731
1.40008
1.40001
1.40001
1.40001
1.40001
1.40001
1.40001
1.40001
1.40001
1.40001
3.26227
3.91448
3.52002
2.15522
1.46791
1.40116
1.40001
1.4
1.40001
1.40001
1.40001
1.40001
1.40001
1.40001
1.40001
2.25789
3.42369
3.59227
2.90757
1.83301
1.45172
1.40262
1.40007
1.40001
1.40001
1.40001
1.40001
1.40001
1.40001
1.40001
1.73275
2.83647
3.49055
3.29753
2.34593
1.55137
1.40628
1.40013
1.40001
1.40001
1.40001
1.40001
1.40001
1.40001
1.40001
1.35865
2.01683
3.02243
3.27351
2.99916
2.00818
1.46159
1.40156
1.40002
1.40001
1.40001
1.40001
1.40001
1.40001
1.40001
1.17198
1.66698
2.36348
3.1127
3.09509
2.58047
1.68679
1.41477
1.40021
1.40001
1.40001
1.40001
1.40001
1.40001
1.40001
0.966909
1.44302
1.88988
2.66442
3.05613
2.95183
2.16923
1.50927
1.40343
1.40004
1.40001
1.40001
1.40001
1.40001
1.40001
0.815384
1.18331
1.58185
2.15605
2.86205
2.94901
2.5999
1.77678
1.42667
1.40046
1.40001
1.40001
1.40001
1.40001
1.40001
0.790854
0.986039
1.3383
1.81957
2.47249
2.89386
2.8197
2.19498
1.54027
1.40549
1.40007
1.40001
1.40001
1.40001
1.40001
0.812271
0.93677
1.09222
1.53412
2.10362
2.68976
2.8108
2.55067
1.80311
1.43377
1.40068
1.40001
1.40001
1.40001
1.40001
0.825585
0.933123
1.00465
1.27359
1.74475
2.36295
2.75305
2.70495
2.17854
1.55087
1.40652
1.40009
1.40001
1.40001
1.40001
0.808185
0.900765
0.988824
1.19269
1.46446
2.00085
2.56921
2.69463
2.46983
1.80185
1.43763
1.40082
1.40001
1.40001
1.40001
0.75406
0.83418
0.963368
1.1589
1.33237
1.71617
2.25674
2.63105
2.59317
2.12601
1.5477
1.40681
1.4001
1.40001
1.40001
0.687937
0.774295
0.933843
1.09274
1.21107
1.49039
1.95178
2.47217
2.58636
2.38291
1.7671
1.43471
1.40079
1.40001
1.40001
0.65613
0.747316
0.891749
0.998883
1.11525
1.36564
1.69282
2.21012
2.53838
2.4985
2.06293
1.53158
1.40598
1.40009
1.40001
0.64831
0.735684
0.851423
0.916695
1.04659
1.29914
1.51743
1.92184
2.3909
2.49091
2.28931
1.7272
1.43051
1.4007
1.40001
0.653086
0.71487
0.814455
0.869289
0.972591
1.191
1.36285
1.70114
2.17899
2.45318
2.40988
1.98936
1.51255
1.40484
1.40007
0.681984
0.690217
0.770214
0.824989
0.952549
1.0969
1.24174
1.54122
1.93433
2.34498
2.40681
2.19984
1.67548
1.42443
1.40057
0.805568
0.690632
0.740075
0.823049
0.949234
1.03628
1.15153
1.41156
1.69926
2.1487
2.38187
2.32944
1.91405
1.48886
1.40358
1.02973
0.733849
0.744639
0.812069
0.922706
0.974245
1.05866
1.30068
1.54873
1.93592
2.29386
2.3264
2.1135
1.62967
1.41976
1.1856
0.849571
0.735191
0.788042
0.877629
0.919191
1.02362
1.2221
1.39631
1.72555
2.13279
2.30275
2.23766
1.83693
1.47195
1.22827
0.996254
0.752106
0.751392
0.820861
0.887
1.01857
1.16284
1.27143
1.5493
1.94265
2.23923
2.23286
2.01195
1.58813
1.2172
1.1319
0.897664
0.743357
0.747204
0.82564
0.954794
1.04937
1.13547
1.35002
1.63645
2.00514
2.16964
2.11057
1.8723
1.20623
1.08129
0.913805
0.766452
0.731192
0.725604
0.723675
0.708658
0.68914
0.640517
0.604658
0.5874
0.594039
0.644423
0.886786
1.16993
1.20151
1.24087
1.26333
1.24234
0.950465
0.866552
0.753371
0.648727
0.649838
0.662298
0.6613
0.645456
0.616256
0.582872
0.547077
0.554565
0.613765
0.872558
1.18637
1.29968
1.25518
1.24357
1.25291
1.24004
0.739294
0.703903
0.631429
0.586578
0.594957
0.605935
0.600526
0.582838
0.562145
0.528166
0.529127
0.596225
0.860568
1.18559
1.30597
1.31357
1.29476
1.26494
1.25626
1.23627
0.56341
0.565608
0.53302
0.52387
0.535601
0.539223
0.530654
0.521634
0.503608
0.506559
0.602533
0.883445
1.17245
1.31885
1.31188
1.3076
1.29727
1.27933
1.25915
1.22826
0.435512