/*--------------------------------*- C++ -*----------------------------------*\
  =========                 |
  \\      /  F ield         | OpenFOAM: The Open Source CFD Toolbox
   \\    /   O peration     | Website:  https://openfoam.org
    \\  /    A nd           | Version:  7
     \\/     M anipulation  |
\*---------------------------------------------------------------------------*/
FoamFile
{
    version     2.0;
    format      ascii;
    class       volScalarField;
    location    "3.6";
    object      T;
}
// * * * * * * * * * * * * * * * * * * * * * * * * * * * * * * * * * * * * * //

dimensions      [0 0 0 1 0 0 0];

internalField   nonuniform List<scalar> 
3700
(
100.482
100.671
100.768
100.823
100.902
101.051
101.127
101.12
101.083
101.031
101.038
101.073
101.106
101.124
101.129
101.127
101.116
101.092
101.077
101.083
100.158
100.253
100.39
100.379
100.373
100.508
100.594
100.541
100.321
100.249
100.341
100.399
100.432
100.485
100.568
100.609
100.578
100.498
100.466
100.477
100.114
100.149
100.137
100.078
99.9881
99.9009
99.8616
99.8686
99.8952
99.9349
99.9796
100.005
100.023
100.039
100.046
100.043
100.033
100.016
100.009
100.023
100.125
100.141
100.084
100.014
99.9361
99.8984
99.8691
99.8709
99.8862
99.9253
99.9668
99.9958
100.026
100.054
100.076
100.09
100.099
100.092
100.064
100.045
100.143
100.127
100.058
100.008
100.008
100.007
99.9792
99.9867
99.9896
100.003
99.9769
99.9906
100.013
100.048
100.076
100.1
100.125
100.14
100.142
100.138
100.182
100.127
100.058
100.024
100.044
100.063
100.053
100.073
100.097
100.105
100.09
100.087
100.064
100.061
100.07
100.092
100.124
100.162
100.182
100.208
100.246
100.131
100.044
100.002
100.02
100.059
100.06
100.095
100.14
100.163
100.176
100.171
100.168
100.164
100.151
100.144
100.142
100.165
100.204
100.257
100.269
100.1
99.9566
99.9339
99.9639
100.007
100.037
100.082
100.138
100.181
100.21
100.216
100.233
100.238
100.244
100.247
100.248
100.251
100.259
100.308
100.22
100
99.9111
99.9152
99.9535
99.9934
100.029
100.076
100.123
100.168
100.208
100.23
100.264
100.28
100.298
100.314
100.324
100.335
100.344
100.383
100.1
99.9267
99.9064
99.9373
100.004
100.058
100.09
100.141
100.169
100.2
100.214
100.242
100.277
100.304
100.331
100.359
100.385
100.403
100.422
100.454
99.9949
99.8624
99.9106
99.9724
100.037
100.124
100.183
100.235
100.276
100.313
100.331
100.352
100.365
100.375
100.384
100.402
100.434
100.462
100.506
100.499
99.8957
99.7552
99.8431
99.9527
100.027
100.141
100.231
100.283
100.343
100.394
100.416
100.433
100.45
100.46
100.473
100.488
100.508
100.53
100.574
100.57
99.7748
99.6217
99.7168
99.9051
100.014
100.156
100.253
100.308
100.38
100.443
100.473
100.494
100.514
100.528
100.551
100.574
100.599
100.622
100.653
100.652
99.6527
99.5352
99.6701
99.8893
100.093
100.321
100.381
100.426
100.49
100.529
100.55
100.564
100.58
100.598
100.627
100.658
100.687
100.712
100.727
100.736
99.547
99.5049
99.662
99.9985
100.3
100.484
100.532
100.581
100.621
100.642
100.652
100.664
100.678
100.699
100.725
100.749
100.77
100.783
100.779
100.774
99.4447
99.5642
99.9186
100.286
100.502
100.584
100.629
100.672
100.704
100.72
100.732
100.749
100.771
100.796
100.815
100.825
100.823
100.815
100.79
100.744
99.3514
99.7346
100.228
100.493
100.638
100.687
100.724
100.76
100.787
100.801
100.814
100.831
100.849
100.856
100.855
100.844
100.792
100.679
100.519
100.28
99.5269
100.125
100.492
100.664
100.759
100.809
100.842
100.865
100.875
100.88
100.88
100.881
100.881
100.858
100.773
100.622
100.358
100.101
100.006
99.9978
100.116
100.529
100.734
100.834
100.889
100.908
100.924
100.924
100.918
100.907
100.891
100.837
100.724
100.469
100.147
100.01
99.9966
99.9985
99.9992
99.9998
100.695
100.835
100.911
100.946
100.962
100.957
100.956
100.933
100.842
100.758
100.569
100.229
100.029
99.9957
99.9977
99.9989
99.9998
100
100
100
100.997
100.994
100.99
100.987
100.981
100.954
100.885
100.46
99.8416
100
100
100
100
100
100
100
100
100
100
100
100.997
100.993
100.986
100.972
100.95
100.86
100.503
100.018
100
100
100
100
100
100
100
100
100
100
100
100
100.99
100.992
100.987
100.966
100.904
100.615
100.029
99.9995
100
100
100
100
100
100
100
100
100
100
100
100
100.984
100.989
100.987
100.96
100.787
100.226
99.9966
100
100
100
100
100
100
100
100
100
100
100
100
100
100.979
100.987
100.985
100.93
100.575
99.992
100
100
100
100
100
100
100
100
100
100
100
100
100
100
100.976
100.988
100.983
100.839
100.296
100
100
100
100
100
100
100
100
100
100
100
100
100
100
100
100.975
100.988
100.973
100.695
99.9925
100
100
100
100
100
100
100
100
100
100
100
100
100
100
100
100.983
100.974
100.913
100.457
99.9998
100
100
100
100
100
100
100
100
100
100
100
100
100
100
100
101.004
100.966
100.817
100.154
100
100
100
100
100
100
100
100
100
100
100
100
100
100
100
100
101.017
100.946
100.675
99.9964
100
100
100
100
100
100
100
100
100
100
100
100
100
100
100
100
101.024
100.908
100.515
100
100
100
100
100
100
100
100
100
100
100
100
100
100
100
100
100
101.028
100.859
100.332
100
100
100
100
100
100
100
100
100
100
100
100
100
100
100
100
100
101.031
100.8
100.118
100
100
100
100
100
100
100
100
100
100
100
100
100
100
100
100
100
101.024
100.731
100.005
100
100
100
100
100
100
100
100
100
100
100
100
100
100
100
100
100
101.011
100.663
100
100
100
100
100
100
100
100
100
100
100
100
100
100
100
100
100
100
100.985
100.568
100
100
100
100
100
100
100
100
100
100
100
100
100
100
100
100
100
100
100.95
100.419
100
100
100
100
100
100
100
100
100
100
100
100
100
100
100
100
100
100
100.913
100.245
100
100
100
100
100
100
100
100
100
100
100
100
100
100
100
100
100
100
100.877
100.005
100
100
100
100
100
100
100
100
100
100
100
100
100
100
100
100
100
100
100.806
100
100
100
100
100
100
100
100
100
100
100
100
100
100
100
100
100
100
100
100.805
100
100
100
100
100
100
100
100
100
100
100
100
100
100
100
100
100
100
100
100.876
100.005
100
100
100
100
100
100
100
100
100
100
100
100
100
100
100
100
100
100
100.913
100.245
100
100
100
100
100
100
100
100
100
100
100
100
100
100
100
100
100
100
100.95
100.419
100
100
100
100
100
100
100
100
100
100
100
100
100
100
100
100
100
100
100.985
100.569
100
100
100
100
100
100
100
100
100
100
100
100
100
100
100
100
100
100
101.011
100.664
100
100
100
100
100
100
100
100
100
100
100
100
100
100
100
100
100
100
101.024
100.731
100.005
100
100
100
100
100
100
100
100
100
100
100
100
100
100
100
100
100
101.031
100.798
100.115
100
100
100
100
100
100
100
100
100
100
100
100
100
100
100
100
100
101.028
100.858
100.33
100
100
100
100
100
100
100
100
100
100
100
100
100
100
100
100
100
101.024
100.907
100.516
100
100
100
100
100
100
100
100
100
100
100
100
100
100
100
100
100
101.017
100.946
100.675
99.9964
100
100
100
100
100
100
100
100
100
100
100
100
100
100
100
100
101.004
100.967
100.818
100.155
100
100
100
100
100
100
100
100
100
100
100
100
100
100
100
100
100.983
100.974
100.913
100.459
99.9998
100
100
100
100
100
100
100
100
100
100
100
100
100
100
100
100.975
100.987
100.972
100.694
99.9925
100
100
100
100
100
100
100
100
100
100
100
100
100
100
100
100.976
100.989
100.983
100.837
100.295
100
100
100
100
100
100
100
100
100
100
100
100
100
100
100
100.979
100.987
100.985
100.93
100.575
99.992
100
100
100
100
100
100
100
100
100
100
100
100
100
100
100.984
100.989
100.987
100.961
100.787
100.226
99.9967
100
100
100
100
100
100
100
100
100
100
100
100
100
100.99
100.992
100.988
100.967
100.905
100.613
100.027
99.9995
100
100
100
100
100
100
100
100
100
100
100
100
100.998
100.994
100.987
100.973
100.95
100.857
100.5
100.017
100
100
100
100
100
100
100
100
100
100
100
100
100.997
100.994
100.991
100.987
100.98
100.952
100.886
100.462
99.8408
100
100
100
100
100
100
100
100
100
100
100
100.695
100.835
100.912
100.946
100.962
100.955
100.955
100.933
100.842
100.759
100.57
100.23
100.029
99.9957
99.9977
99.9989
99.9998
100
100
100
100.117
100.529
100.733
100.833
100.889
100.907
100.923
100.924
100.919
100.907
100.892
100.837
100.724
100.47
100.147
100.01
99.9967
99.9985
99.9992
99.9998
99.5281
100.127
100.492
100.664
100.757
100.808
100.841
100.865
100.875
100.881
100.88
100.881
100.881
100.858
100.773
100.622
100.358
100.101
100.006
99.9978
99.34
99.745
100.225
100.489
100.636
100.686
100.723
100.759
100.788
100.802
100.814
100.83
100.849
100.856
100.855
100.844
100.792
100.678
100.518
100.279
99.4332
99.5245
99.935
100.293
100.502
100.582
100.628
100.671
100.703
100.72
100.732
100.749
100.771
100.796
100.815
100.825
100.823
100.815
100.79
100.744
99.5226
99.4879
99.6751
100.009
100.307
100.484
100.532
100.581
100.622
100.643
100.653
100.665
100.679
100.699
100.725
100.749
100.77
100.783
100.779
100.774
99.6297
99.5166
99.6793
99.8886
100.095
100.326
100.384
100.433
100.495
100.531
100.551
100.565
100.58
100.598
100.627
100.658
100.687
100.712
100.727
100.735
99.7516
99.6012
99.7167
99.905
100.012
100.162
100.255
100.306
100.377
100.44
100.47
100.493
100.512
100.528
100.55
100.574
100.599
100.622
100.653
100.652
99.876
99.7437
99.8462
99.9572
100.026
100.142
100.233
100.281
100.341
100.393
100.415
100.433
100.449
100.46
100.473
100.489
100.509
100.53
100.573
100.57
99.9738
99.8599
99.9164
99.9772
100.037
100.124
100.186
100.236
100.277
100.314
100.332
100.353
100.367
100.377
100.385
100.402
100.433
100.461
100.506
100.498
100.068
99.9237
99.9093
99.941
100.006
100.058
100.094
100.146
100.173
100.202
100.215
100.243
100.277
100.304
100.33
100.359
100.385
100.403
100.422
100.454
100.194
99.9883
99.9096
99.9141
99.9539
99.9922
100.028
100.078
100.124
100.167
100.207
100.229
100.263
100.28
100.298
100.315
100.325
100.335
100.345
100.385
100.264
100.086
99.9447
99.9303
99.9616
100.005
100.039
100.084
100.138
100.181
100.21
100.217
100.235
100.24
100.246
100.249
100.25
100.254
100.261
100.309
100.255
100.128
100.032
99.9982
100.018
100.06
100.066
100.098
100.142
100.165
100.179
100.174
100.172
100.169
100.155
100.148
100.144
100.163
100.201
100.256
100.189
100.123
100.061
100.033
100.052
100.07
100.06
100.077
100.102
100.109
100.096
100.093
100.069
100.064
100.069
100.089
100.12
100.159
100.18
100.207
100.136
100.12
100.059
100.02
100.024
100.022
99.9901
99.9943
99.998
100.01
99.9785
99.9889
100.009
100.044
100.073
100.097
100.122
100.139
100.143
100.14
100.121
100.129
100.076
100.013
99.9411
99.9068
99.8778
99.8758
99.8864
99.9193
99.9593
99.9905
100.021
100.051
100.073
100.088
100.098
100.094
100.069
100.048
100.109
100.134
100.122
100.068
99.9832
99.9009
99.866
99.8715
99.896
99.9299
99.9735
100
100.02
100.037
100.045
100.044
100.036
100.019
100.009
100.02
100.135
100.216
100.285
100.408
100.457
100.48
100.529
100.638
100.722
100.705
100.607
100.529
100.528
100.536
100.521
100.507
100.527
100.543
100.531
100.42
100.474
100.674
100.711
100.819
100.945
101.039
101.091
101.134
101.147
101.133
101.11
101.093
101.114
101.124
101.117
101.112
101.108
101.099
101.088
101.049
101.061
101.008
101.006
101.003
100.979
100.945
100.912
100.899
100.89
100.879
100.864
100.852
100.843
100.84
100.842
100.836
100.822
100.802
100.785
100.763
100.629
100.6
100.684
100.745
100.784
100.792
100.794
100.801
100.807
100.807
100.803
100.799
100.795
100.795
100.795
100.792
100.783
100.773
100.759
100.736
100.034
100.035
100.166
100.284
100.431
100.509
100.57
100.618
100.641
100.659
100.676
100.681
100.687
100.692
100.694
100.696
100.695
100.694
100.687
100.67
100.076
100.091
100.103
100.098
100.121
100.21
100.364
100.452
100.482
100.519
100.558
100.569
100.576
100.581
100.585
100.59
100.596
100.596
100.592
100.581
100.122
100.136
100.13
100.136
100.143
100.138
100.166
100.252
100.351
100.418
100.472
100.5
100.51
100.511
100.51
100.513
100.52
100.52
100.515
100.504
100.186
100.18
100.169
100.166
100.168
100.172
100.176
100.169
100.188
100.266
100.367
100.448
100.473
100.478
100.475
100.474
100.477
100.476
100.467
100.456
100.246
100.232
100.209
100.2
100.206
100.211
100.211
100.206
100.184
100.174
100.222
100.34
100.427
100.46
100.457
100.456
100.454
100.448
100.439
100.429
100.305
100.288
100.251
100.227
100.228
100.237
100.24
100.234
100.217
100.18
100.17
100.204
100.315
100.413
100.44
100.441
100.435
100.427
100.421
100.412
100.368
100.343
100.306
100.267
100.257
100.262
100.264
100.257
100.24
100.212
100.173
100.171
100.195
100.299
100.395
100.42
100.408
100.406
100.405
100.397
100.433
100.406
100.364
100.316
100.289
100.278
100.279
100.271
100.256
100.231
100.201
100.177
100.177
100.192
100.29
100.372
100.375
100.389
100.389
100.379
100.525
100.457
100.419
100.369
100.314
100.291
100.289
100.288
100.278
100.258
100.229
100.203
100.188
100.18
100.185
100.233
100.304
100.347
100.345
100.341
100.62
100.534
100.481
100.444
100.399
100.344
100.314
100.302
100.286
100.265
100.244
100.222
100.204
100.184
100.168
100.158
100.17
100.207
100.244
100.277
100.609
100.587
100.535
100.477
100.434
100.393
100.334
100.299
100.289
100.281
100.268
100.245
100.22
100.197
100.173
100.154
100.146
100.129
100.125
100.17
100.488
100.547
100.541
100.514
100.467
100.426
100.385
100.332
100.307
100.294
100.273
100.242
100.212
100.188
100.166
100.154
100.138
100.118
100.1
100.075
100.25
100.377
100.446
100.482
100.474
100.447
100.412
100.367
100.32
100.29
100.26
100.235
100.214
100.188
100.171
100.161
100.143
100.12
100.094
100.056
100.043
100.145
100.254
100.337
100.389
100.415
100.405
100.381
100.344
100.304
100.267
100.243
100.225
100.197
100.169
100.145
100.12
100.1
100.085
100.054
100.002
100.015
100.065
100.156
100.233
100.29
100.328
100.349
100.34
100.315
100.282
100.246
100.216
100.187
100.16
100.135
100.108
100.095
100.088
100.061
100
100
100.003
100.025
100.079
100.149
100.208
100.25
100.28
100.29
100.282
100.26
100.227
100.196
100.17
100.147
100.123
100.104
100.086
100.052
100
100
100
100.001
100.006
100.031
100.08
100.139
100.187
100.216
100.242
100.244
100.235
100.216
100.187
100.156
100.132
100.103
100.076
100.042
100
100
100
100
100
100.001
100.007
100.032
100.079
100.128
100.17
100.192
100.21
100.209
100.202
100.183
100.157
100.127
100.098
100.06
100
100
100
100
100
100
100
100.001
100.008
100.032
100.072
100.118
100.154
100.173
100.186
100.184
100.177
100.16
100.136
100.092
100
100
100
100
100
100
100
100
100
100.002
100.008
100.028
100.066
100.107
100.14
100.16
100.168
100.166
100.159
100.132
100
100
100
100
100
100
100
100
100
100
100
100.001
100.007
100.025
100.056
100.096
100.127
100.148
100.151
100.143
100
100
100
100
100
100
100
100
100
100
100
100
100
100.001
100.005
100.02
100.048
100.085
100.113
100.129
100
100
100
100
100
100
100
100
100
100
100
100
100
100
100
100.001
100.004
100.016
100.04
100.093
100.599
100.654
100.61
100.417
100.143
100.017
100.001
100
100
100
100
100
100
100
100
100.672
100.663
100.519
100.218
100.022
100
100
100
100
100
100
100
100
100
100
100.704
100.636
100.374
100.074
100.002
100
100
100
100
100
100
100
100
100
100
100.719
100.518
100.167
100.009
100
100
100
100
100
100
100
100
100
100
100
100.651
100.284
100.025
100
100
100
100
100
100
100
100
100
100
100
100
100.392
100.037
100
100
100
100
100
100
100
100
100
100
100
100
100
100.043
100
100
100
100
100
100
100
100
100
100
100
100
100
100
99.9995
100
100
100
100
100
100
100
100
100
100
100
100
100
100
100
100
100
100
100
100
100
100
100
100
100
100
100
100
100
100
100
100
100
100
100
100
100
100
100
100
100
100
100
100
100
100
100
100
100
100
100
100
100
100
100
100
100
100
100
100
100
100
100
100
100
100
100
100
100
100
100
100
100
100
100
100
100
100
100
100
100
100
100
100
100
100
100
100
100
100
100
100
100
100
100
100
100
100
100
100
100
100
100
100
100
100
100
100
100
100
100
100
100
100
100
100
100
100
100
100
100
100
100
100
100
100
100
100
100
100
100
100
100
100
100
100
100
100
100
100
100
100
100
100
100
100
100
100
100
100
100
100
100
100
100
100
100
100
100
100
100
100
100
100
100
100
100
100
100
100
100
100
100
100
100
100
100
100
100
100
100
100
100
100
100
100
100
100
100
100
100
100
100
100
100
100
100
100
100
100
100
100
100
100
100
100
100
100
100
100
100
100
100
100
100
100
100
100
100
100
100
100
100
100
100
100
100
100
100
100
100
100
100
100
100
100
100
100
100
100
100
100
100
100
100
100
100
100
100
100
100
100
100
100
100
100
100
100
100
100
100
100
100
100
100
100
100
100
100
100
100
100
100
100
100
100
100
100
100
100
100
100
100
100
100
100
100
100
100
100
100
100
100
100
100
100
100
100
100
100
100
100
100
100
100
100
100
100
100
100
100
100
100
100
100
100
100
100
100
100
100
100
100
100
100
100
100
100
100
100
100
100
100
100
100
100
100
100
100
100
100
100
100
100
100
100
100
100
100
100
100
100
100
100
100
100
100
100
100
100
100
100
100
100
100
100
100
100
100
100
100
100
100
100
100
100
100
100
100
100
100
100
100
100
100
100
100
100
100
100
100
100
100
100
100
100
100
100
100
100
100
100
100
100
100
100
100
100
100
100
100
100
100
100
100
100
100
100
100
100
100
100
100
100
100
100
100
100
100
100
100
100
100
100
100
100
100
100
100
100
100
100
100
100
100
100
100
100
100
100
100
100
100
100
100
100
100
100
100
100
100
100
100
100
100
100
100
100
100
100
100
100
100
100
100
100
100
100
100
100
100
100
100
100
100
100
100
100
100
100
100
100
100
100
100
100
100
100
100
100
100
100
100
100
100
100
100
100
100
100
100
100
100
100
100
100
100
100
100
100
100
100
100
100
100
100
100
100
100
100
100
100
100
100
100
100
100
100
100
100
100
100
100
100
100
100
100
100
100
100
100
100
100
100
100
100
100
100
100
100
100
100
100
100
100
100
100
100
100
100
100
100
100
100
100
100
100
100
100
100
100
100
100
100
100
100
100
100
100
100
100
100
100
100
100
100
100
100
100
100
100
100
100
100
100
100
100
100
100
100
100
100
100
100
100
100
100
100
100
100
100
100
100
100
100
100
100
100
100
100
100
100
100
100
100
100
100
100
100
100
100
100
100
100
100
100
100
100
100
100
100
100
100
100
100
100
100
100
100
100
100
100
100
100
100
100
100
100
100
100
100
100
100
100
100
100
100
100
100
100
100
100
100
100
100
100
100
100
100
100
100
100
100
100
100
100
100
100
100
100
100
100
100
100
100
100
100
100
100
100
100
100
100
100
100
100
100
100
100
100
100
100
100
100
100
100
100
100
100
100
100
100
100
100
100
100
100
100
100
100
100
100
100
100
100
100
100
100
100
100
100
100
100
100
100
100
100
100
100
100
100
100
100
100
100
100
100
100
100
100
100
100
100
100
100
100
100
100
100
100
100
100
100
100
100
100
100
100
100
100
100
100
100
100
100
100
100
100
100
100
100
100
100
100
100
100
100
100
100
100
100
100
100
100
100
100
100
100
100
100
100
100
100
100
100
100
100
100
100
100
100
100
100
100
100
100
100
100
100
100
100
100
100
100
100
100
100
100
100
100
100
100
100
100
100
100
100
100
100
100
100
100
100
100
100
100
100
100
100
100
100
100
100
100
99.9995
100
100
100
100
100
100
100
100
100
100
100
100
100
100
100.043
100
100
100
100
100
100
100
100
100
100
100
100
100
100
100.392
100.037
100
100
100
100
100
100
100
100
100
100
100
100
100
100.651
100.284
100.025
100
100
100
100
100
100
100
100
100
100
100
100
100.719
100.518
100.167
100.009
100
100
100
100
100
100
100
100
100
100
100
100.704
100.636
100.374
100.074
100.002
100
100
100
100
100
100
100
100
100
100
100.672
100.663
100.519
100.218
100.022
100
100
100
100
100
100
100
100
100
100
100.598
100.654
100.61
100.417
100.143
100.017
100.001
100
100
100
100
100
100
100
100
100.528
100.619
100.609
100.488
100.25
100.043
100.002
100
100
100
100
100
100
100
100
100.458
100.535
100.587
100.547
100.377
100.145
100.015
100
100
100
100
100
100
100
100
100.417
100.483
100.534
100.541
100.446
100.254
100.065
100.003
100
100
100
100
100
100
100
100.365
100.445
100.477
100.514
100.482
100.337
100.156
100.025
100.001
100
100
100
100
100
100
100.311
100.396
100.435
100.467
100.474
100.389
100.233
100.079
100.006
100
100
100
100
100
100
100.292
100.342
100.394
100.426
100.447
100.415
100.29
100.149
100.031
100.001
100
100
100
100
100
100.294
100.314
100.335
100.385
100.412
100.405
100.328
100.208
100.08
100.007
100
100
100
100
100
100.292
100.303
100.299
100.333
100.367
100.381
100.349
100.25
100.139
100.032
100.001
100
100
100
100
100.281
100.286
100.288
100.307
100.32
100.344
100.34
100.28
100.187
100.079
100.008
100
100
100
100
100.259
100.264
100.28
100.294
100.29
100.304
100.315
100.29
100.216
100.128
100.032
100.002
100
100
100
100.228
100.244
100.267
100.272
100.26
100.267
100.282
100.282
100.242
100.17
100.072
100.008
100
100
100
100.202
100.223
100.246
100.242
100.235
100.243
100.246
100.26
100.244
100.192
100.118
100.028
100.001
100
100
100.187
100.205
100.221
100.212
100.214
100.225
100.216
100.227
100.235
100.21
100.154
100.066
100.007
100
100
100.181
100.184
100.197
100.188
100.188
100.197
100.187
100.196
100.216
100.209
100.173
100.107
100.025
100.001
100
100.185
100.168
100.173
100.166
100.171
100.169
100.16
100.17
100.188
100.202
100.186
100.14
100.056
100.005
100
100.232
100.158
100.154
100.154
100.161
100.145
100.135
100.147
100.156
100.183
100.184
100.16
100.096
100.02
100.001
100.303
100.17
100.146
100.138
100.143
100.12
100.108
100.123
100.131
100.157
100.177
100.168
100.127
100.048
100.004
100.347
100.206
100.129
100.118
100.12
100.1
100.095
100.104
100.103
100.127
100.16
100.166
100.148
100.085
100.016
100.345
100.244
100.125
100.1
100.094
100.085
100.088
100.086
100.076
100.098
100.136
100.159
100.151
100.113
100.04
100.341
100.277
100.17
100.076
100.056
100.054
100.061
100.052
100.042
100.06
100.092
100.132
100.143
100.129
100.093
100.432
100.406
100.362
100.314
100.291
100.28
100.274
100.266
100.256
100.231
100.2
100.177
100.177
100.192
100.291
100.372
100.375
100.389
100.389
100.38
100.366
100.343
100.307
100.267
100.261
100.261
100.257
100.249
100.234
100.209
100.171
100.17
100.195
100.3
100.396
100.42
100.408
100.406
100.405
100.397
100.305
100.286
100.254
100.234
100.237
100.24
100.237
100.228
100.213
100.179
100.171
100.201
100.313
100.413
100.441
100.441
100.435
100.427
100.421
100.412
100.245
100.234
100.207
100.199
100.206
100.209
100.207
100.202
100.183
100.176
100.222
100.336
100.425
100.46
100.458
100.456
100.453
100.448
100.439
100.429
100.188
100.179
100.176
100.173
100.174
100.175
100.177
100.17
100.189
100.269
100.368
100.447
100.472
100.478
100.475
100.474
100.477
100.475
100.467
100.456
100.126
100.131
100.13
100.139
100.14
100.134
100.164
100.25
100.351
100.42
100.473
100.499
100.509
100.51
100.509
100.514
100.521
100.521
100.516
100.506
100.077
100.083
100.096
100.097
100.12
100.221
100.372
100.449
100.479
100.518
100.561
100.572
100.577
100.58
100.584
100.592
100.599
100.599
100.596
100.585
100.029
100.107
100.179
100.26
100.418
100.53
100.589
100.618
100.632
100.653
100.679
100.687
100.691
100.694
100.697
100.701
100.701
100.699
100.692
100.676
100.543
100.709
100.713
100.716
100.75
100.807
100.811
100.802
100.8
100.802
100.806
100.805
100.8
100.798
100.798
100.797
100.79
100.779
100.764
100.742
101.036
101.045
101.021
100.992
100.959
100.942
100.92
100.9
100.892
100.884
100.872
100.859
100.846
100.842
100.843
100.841
100.829
100.809
100.788
100.765
)
;

boundaryField
{
    inlet
    {
        type            fixedValue;
        value           uniform 100;
    }
    outlet
    {
        type            inletOutlet;
        inletValue      uniform 100;
        value           nonuniform List<scalar> 
50
(
100.341
100.277
100.17
100.075
100.056
100.054
100.061
100.052
100.042
100.06
100.092
100.132
100.143
100.129
100.093
100.763
100.736
100.669
100.581
100.504
100.456
100.429
100.412
100.397
100.379
100.38
100.397
100.412
100.429
100.455
100.505
100.585
100.676
100.742
100.765
100.341
100.277
100.169
100.076
100.056
100.054
100.061
100.052
100.042
100.06
100.092
100.132
100.143
100.129
100.093
)
;
    }
    airfoil
    {
        type            zeroGradient;
    }
    top
    {
        type            symmetryPlane;
    }
    bottom
    {
        type            symmetryPlane;
    }
    defaultFaces
    {
        type            empty;
    }
}


// ************************************************************************* //
