/*--------------------------------*- C++ -*----------------------------------*\
  =========                 |
  \\      /  F ield         | OpenFOAM: The Open Source CFD Toolbox
   \\    /   O peration     | Website:  https://openfoam.org
    \\  /    A nd           | Version:  7
     \\/     M anipulation  |
\*---------------------------------------------------------------------------*/
FoamFile
{
    version     2.0;
    format      ascii;
    class       volVectorField;
    location    "3.6";
    object      U;
}
// * * * * * * * * * * * * * * * * * * * * * * * * * * * * * * * * * * * * * //

dimensions      [0 1 -1 0 0 0 0];

internalField   nonuniform List<vector> 
3700
(
(1.40726 -0.346691 0)
(1.28221 -0.518687 0)
(1.31699 -0.254193 0)
(1.43358 -0.318353 0)
(1.54513 -0.337449 0)
(1.57789 -0.219745 0)
(1.62779 -0.151956 0)
(1.64943 -0.157779 0)
(1.66648 -0.284608 0)
(1.61243 -0.376442 0)
(1.54344 -0.359434 0)
(1.55112 -0.308423 0)
(1.60359 -0.304458 0)
(1.61278 -0.265632 0)
(1.62543 -0.175868 0)
(1.68139 -0.113743 0)
(1.72066 -0.153477 0)
(1.7447 -0.232465 0)
(1.77209 -0.272407 0)
(1.76864 -0.223741 0)
(1.78258 -1.26013 0)
(1.6298 -1.27789 0)
(1.68576 -1.0254 0)
(1.8665 -1.11972 0)
(1.9824 -1.43465 0)
(1.89201 -1.42338 0)
(1.88601 -1.3505 0)
(1.96191 -1.411 0)
(1.93845 -1.83964 0)
(1.90186 -1.80646 0)
(1.82019 -1.73834 0)
(1.87175 -1.55941 0)
(1.9404 -1.4732 0)
(1.98648 -1.33627 0)
(2.03325 -1.1445 0)
(2.12425 -0.98447 0)
(2.20175 -0.979033 0)
(2.28086 -1.06058 0)
(2.26931 -1.10149 0)
(2.25638 -1.18636 0)
(1.64051 -1.31553 0)
(1.68517 -1.42801 0)
(1.76256 -1.51074 0)
(1.85676 -1.66956 0)
(1.90533 -1.97051 0)
(1.89329 -2.20858 0)
(1.96491 -2.29471 0)
(2.02222 -2.23182 0)
(1.95692 -2.26862 0)
(2.06021 -2.10909 0)
(2.06552 -2.12916 0)
(2.15216 -2.00301 0)
(2.21044 -1.9378 0)
(2.28318 -1.88908 0)
(2.37318 -1.80383 0)
(2.50005 -1.75643 0)
(2.60035 -1.68725 0)
(2.67416 -1.61395 0)
(2.71413 -1.55915 0)
(2.70036 -1.56389 0)
(1.47156 -1.38054 0)
(1.59196 -1.56 0)
(1.68637 -1.82528 0)
(1.7421 -2.07474 0)
(1.7851 -2.18734 0)
(1.82067 -2.26474 0)
(1.92264 -2.24719 0)
(2.0724 -2.07708 0)
(2.14546 -2.07448 0)
(2.34072 -1.94396 0)
(2.35423 -1.9494 0)
(2.38678 -1.88527 0)
(2.38763 -1.85028 0)
(2.37266 -1.83284 0)
(2.41972 -1.72238 0)
(2.51206 -1.64564 0)
(2.58017 -1.51976 0)
(2.67396 -1.42034 0)
(2.75546 -1.26424 0)
(2.84964 -1.16715 0)
(1.34394 -1.39671 0)
(1.48142 -1.67325 0)
(1.6642 -1.96111 0)
(1.6964 -2.17562 0)
(1.68804 -2.27935 0)
(1.7339 -2.28962 0)
(1.89542 -2.12568 0)
(2.02287 -1.99374 0)
(2.11798 -1.91749 0)
(2.32775 -1.84495 0)
(2.48319 -1.63988 0)
(2.57551 -1.58547 0)
(2.62678 -1.52096 0)
(2.57756 -1.57945 0)
(2.58379 -1.53265 0)
(2.57872 -1.54203 0)
(2.58875 -1.41564 0)
(2.62079 -1.33275 0)
(2.68617 -1.28116 0)
(2.78598 -1.04216 0)
(1.29213 -1.41777 0)
(1.49281 -1.79829 0)
(1.69993 -2.08203 0)
(1.74895 -2.22848 0)
(1.91469 -2.30187 0)
(1.97349 -2.32143 0)
(2.01549 -2.08992 0)
(2.02833 -1.97727 0)
(2.08716 -1.88901 0)
(2.24443 -1.78051 0)
(2.38555 -1.59862 0)
(2.5802 -1.5297 0)
(2.67618 -1.34745 0)
(2.75524 -1.25039 0)
(2.76769 -1.14385 0)
(2.73804 -1.16307 0)
(2.71763 -1.15123 0)
(2.70382 -1.06598 0)
(2.67953 -1.14915 0)
(2.70637 -0.984236 0)
(1.34964 -1.52111 0)
(1.58839 -1.90784 0)
(1.86859 -2.19456 0)
(2.01045 -2.2663 0)
(2.25085 -2.21512 0)
(2.23606 -2.26574 0)
(2.26798 -1.96272 0)
(2.1862 -1.93637 0)
(2.21589 -1.84239 0)
(2.24578 -1.75561 0)
(2.35368 -1.57693 0)
(2.50961 -1.47508 0)
(2.57856 -1.28241 0)
(2.7255 -1.19307 0)
(2.75555 -0.973294 0)
(2.8133 -0.798689 0)
(2.79886 -0.723402 0)
(2.79579 -0.622144 0)
(2.74194 -0.756809 0)
(2.71563 -0.706368 0)
(1.51772 -1.65438 0)
(1.80657 -2.02878 0)
(1.98996 -2.25379 0)
(2.11785 -2.265 0)
(2.31485 -2.15684 0)
(2.4027 -2.11683 0)
(2.45036 -1.74085 0)
(2.42909 -1.67189 0)
(2.45542 -1.66155 0)
(2.46246 -1.62517 0)
(2.47831 -1.52811 0)
(2.54563 -1.38285 0)
(2.57207 -1.21535 0)
(2.64922 -1.12769 0)
(2.68476 -0.940191 0)
(2.7459 -0.791874 0)
(2.79403 -0.631994 0)
(2.8204 -0.409544 0)
(2.78162 -0.376526 0)
(2.72198 -0.356071 0)
(1.6817 -1.76602 0)
(1.86584 -2.06742 0)
(1.89018 -2.27241 0)
(2.03657 -2.27274 0)
(2.20602 -2.04111 0)
(2.3386 -1.87961 0)
(2.51386 -1.59704 0)
(2.61775 -1.42609 0)
(2.64913 -1.42675 0)
(2.72196 -1.21958 0)
(2.7157 -1.28103 0)
(2.73298 -1.07255 0)
(2.6872 -1.00975 0)
(2.69297 -0.903651 0)
(2.6903 -0.776452 0)
(2.69343 -0.662275 0)
(2.72583 -0.569131 0)
(2.7493 -0.405137 0)
(2.73605 -0.212649 0)
(2.68332 -0.0874108 0)
(1.79986 -1.84896 0)
(1.7397 -2.0762 0)
(1.70059 -2.26816 0)
(1.75606 -2.14798 0)
(1.94991 -1.91996 0)
(2.11204 -1.73362 0)
(2.29067 -1.60567 0)
(2.47616 -1.3871 0)
(2.62487 -1.31964 0)
(2.71379 -0.966131 0)
(2.77409 -0.821538 0)
(2.78072 -0.598999 0)
(2.76589 -0.551872 0)
(2.7577 -0.451089 0)
(2.74143 -0.38354 0)
(2.70646 -0.341307 0)
(2.68229 -0.312623 0)
(2.68906 -0.302212 0)
(2.64967 -0.144513 0)
(2.61155 0.0288827 0)
(1.71652 -1.80675 0)
(1.60615 -2.02597 0)
(1.54258 -2.16874 0)
(1.68344 -2.02707 0)
(1.89379 -1.83727 0)
(2.04919 -1.60867 0)
(2.14877 -1.55091 0)
(2.29505 -1.36083 0)
(2.39284 -1.23017 0)
(2.50028 -1.04237 0)
(2.61774 -0.806342 0)
(2.67328 -0.557345 0)
(2.69951 -0.343852 0)
(2.71258 -0.173355 0)
(2.67732 0.00166003 0)
(2.65207 0.05249 0)
(2.62421 0.10798 0)
(2.61382 0.00708766 0)
(2.55578 0.0926269 0)
(2.58521 0.0490669 0)
(1.5325 -1.6561 0)
(1.47894 -1.79356 0)
(1.42989 -1.80405 0)
(1.6809 -1.75357 0)
(1.94743 -1.61607 0)
(2.13798 -1.38181 0)
(2.21182 -1.45183 0)
(2.34014 -1.25432 0)
(2.42154 -1.02011 0)
(2.47226 -0.884197 0)
(2.5413 -0.690302 0)
(2.58048 -0.488516 0)
(2.60381 -0.297273 0)
(2.63996 -0.148909 0)
(2.59111 0.0814366 0)
(2.58182 0.195709 0)
(2.51802 0.367237 0)
(2.47929 0.357273 0)
(2.43634 0.372655 0)
(2.47205 0.287321 0)
(1.34988 -1.41826 0)
(1.45743 -1.47288 0)
(1.64228 -1.38916 0)
(1.7358 -1.61547 0)
(1.98941 -1.41169 0)
(2.18475 -1.22813 0)
(2.443 -1.02293 0)
(2.59124 -0.804159 0)
(2.59749 -0.489375 0)
(2.60284 -0.398291 0)
(2.60524 -0.213524 0)
(2.59086 -0.0691121 0)
(2.56436 0.0488257 0)
(2.54599 0.132992 0)
(2.49412 0.246243 0)
(2.48177 0.293953 0)
(2.41912 0.415437 0)
(2.35587 0.532636 0)
(2.29435 0.609381 0)
(2.30188 0.565514 0)
(1.14729 -1.20446 0)
(1.39352 -1.20849 0)
(1.73439 -1.16747 0)
(1.78674 -1.5984 0)
(2.2516 -1.09309 0)
(2.61513 -0.879915 0)
(2.72978 -0.503894 0)
(2.67155 -0.148955 0)
(2.62515 -0.0711536 0)
(2.58582 0.0866573 0)
(2.55456 0.236167 0)
(2.49223 0.390036 0)
(2.44822 0.480298 0)
(2.3914 0.5671 0)
(2.34824 0.593059 0)
(2.31487 0.595503 0)
(2.27225 0.622313 0)
(2.23756 0.662315 0)
(2.16985 0.754261 0)
(2.13091 0.796245 0)
(0.913522 -1.00981 0)
(1.27893 -1.09298 0)
(1.78994 -0.991966 0)
(2.3467 -1.13671 0)
(2.62276 -0.600986 0)
(2.54593 -0.646299 0)
(2.55285 -0.469888 0)
(2.51869 -0.119334 0)
(2.48636 0.0203573 0)
(2.47069 0.206931 0)
(2.4238 0.393549 0)
(2.34133 0.571626 0)
(2.28714 0.681687 0)
(2.20788 0.794699 0)
(2.15557 0.839523 0)
(2.11309 0.857055 0)
(2.06866 0.901055 0)
(2.06647 0.894894 0)
(2.04251 0.923166 0)
(2.06211 0.949439 0)
(0.7496 -0.666796 0)
(1.25632 -1.09887 0)
(2.2998 -0.45287 0)
(2.35668 -0.606696 0)
(2.37093 -0.58757 0)
(2.43683 -0.313389 0)
(2.42426 0.022268 0)
(2.38853 0.217635 0)
(2.33453 0.384597 0)
(2.31731 0.534732 0)
(2.21905 0.701226 0)
(2.1417 0.81528 0)
(2.08478 0.884405 0)
(2.02567 0.94942 0)
(1.98792 0.966938 0)
(1.95367 0.992628 0)
(1.95485 1.02011 0)
(1.96898 0.999629 0)
(1.99438 0.998468 0)
(2.07251 0.979047 0)
(0.898061 -0.441879 0)
(1.69688 -0.163756 0)
(2.19117 -0.651022 0)
(2.29138 -0.179238 0)
(2.34322 0.00757536 0)
(2.34696 0.305484 0)
(2.26843 0.571129 0)
(2.18722 0.720646 0)
(2.13396 0.799501 0)
(2.07721 0.920498 0)
(1.96867 1.01807 0)
(1.91075 1.06659 0)
(1.88064 1.08158 0)
(1.86642 1.08717 0)
(1.87293 1.05523 0)
(1.89894 1.04708 0)
(1.96274 1.02093 0)
(2.16203 0.905962 0)
(2.37906 0.797297 0)
(2.77844 0.44533 0)
(1.137 -0.130684 0)
(1.92107 0.0956259 0)
(2.27267 0.225695 0)
(2.23811 0.517127 0)
(2.19666 0.679795 0)
(2.12473 0.797211 0)
(2.04335 0.894797 0)
(1.96232 0.969079 0)
(1.91593 1.03509 0)
(1.84695 1.12563 0)
(1.78705 1.15773 0)
(1.79071 1.15134 0)
(1.80814 1.13033 0)
(1.84841 1.08707 0)
(2.03845 0.95043 0)
(2.25798 0.82667 0)
(2.66382 0.502017 0)
(3.03658 0.0913273 0)
(3.0559 -0.0239597 0)
(3.00405 -0.00469223 0)
(0.999414 0.0434773 0)
(1.92334 0.759701 0)
(2.12047 0.812463 0)
(1.99101 0.976135 0)
(1.96689 0.970903 0)
(1.86903 1.07167 0)
(1.78336 1.13501 0)
(1.75789 1.1451 0)
(1.75728 1.1619 0)
(1.73761 1.20263 0)
(1.72076 1.19359 0)
(1.86614 1.06563 0)
(2.09723 0.882251 0)
(2.50292 0.573735 0)
(2.98767 0.133082 0)
(3.07352 -0.0298581 0)
(3.00816 -0.00770819 0)
(3.00294 -0.00385321 0)
(3.00123 -0.00220034 0)
(3.00008 -0.000487352 0)
(1.17337 0.760108 0)
(1.83123 1.16006 0)
(1.84337 1.15916 0)
(1.74253 1.19934 0)
(1.70503 1.19848 0)
(1.6555 1.24255 0)
(1.65049 1.21488 0)
(1.7231 1.16651 0)
(1.75858 1.2363 0)
(1.797 1.14347 0)
(2.27825 0.735632 0)
(2.86194 0.205281 0)
(3.09759 -0.0290963 0)
(3.02063 -0.0124225 0)
(3.00468 -0.00547408 0)
(3.00189 -0.00303667 0)
(3.00006 -0.000589925 0)
(2.99998 -2.30603e-05 0)
(2.99999 1.43668e-05 0)
(3 5.90456e-06 0)
(1.58378 1.26109 0)
(1.58725 1.26651 0)
(1.59438 1.27047 0)
(1.60026 1.26466 0)
(1.60054 1.24968 0)
(1.58881 1.26707 0)
(1.89305 1.17871 0)
(2.97143 0.406932 0)
(3.34887 -0.631663 0)
(3 -6.62862e-12 0)
(3 7.57336e-11 0)
(3 -1.27409e-12 0)
(3 6.09488e-11 0)
(3 -5.62303e-11 0)
(3 9.12375e-14 0)
(3 8.54864e-14 0)
(3 2.69839e-14 0)
(3 6.51927e-15 0)
(3 6.97845e-16 0)
(3 -3.0346e-15 0)
(1.58206 1.2449 0)
(1.59392 1.25775 0)
(1.6063 1.266 0)
(1.61325 1.27623 0)
(1.66305 1.26763 0)
(1.74359 1.2137 0)
(2.25741 0.743422 0)
(2.99595 0.0146459 0)
(3 4.67951e-08 0)
(3 1.00937e-10 0)
(3 -1.2224e-13 0)
(3 1.91232e-15 0)
(3 -1.67685e-14 0)
(3 1.70209e-14 0)
(3 -4.49703e-16 0)
(3 -3.00194e-16 0)
(3 -1.06341e-16 0)
(3 -1.41262e-15 0)
(3 -1.39698e-15 0)
(3 -1.72502e-15 0)
(1.57629 1.24455 0)
(1.59891 1.25101 0)
(1.61343 1.2567 0)
(1.61388 1.27773 0)
(1.68496 1.22736 0)
(2.2429 0.766744 0)
(3.00343 -0.00834485 0)
(3.0001 -0.000443387 0)
(3 8.43209e-07 0)
(3 5.25733e-11 0)
(3 5.33416e-14 0)
(3 -1.60084e-15 0)
(3 -1.95522e-16 0)
(3 -1.86611e-15 0)
(3 -9.77903e-16 0)
(3 -6.34439e-16 0)
(3 -1.96767e-16 0)
(3 -3.94284e-16 0)
(3 -4.5117e-16 0)
(3 -2.15089e-15 0)
(1.57706 1.2558 0)
(1.59541 1.25694 0)
(1.61916 1.25903 0)
(1.64754 1.26267 0)
(1.88669 1.07833 0)
(2.75717 0.216728 0)
(3.00462 -0.000816312 0)
(2.99992 7.14695e-05 0)
(3 -9.53251e-07 0)
(3 9.03528e-10 0)
(3 -6.33447e-13 0)
(3 -1.94545e-15 0)
(3 -1.04489e-15 0)
(3 -1.43858e-15 0)
(3 -1.01108e-15 0)
(3 -5.13401e-16 0)
(3 1.45484e-16 0)
(3 6.60811e-17 0)
(3 1.06505e-15 0)
(3 -1.32905e-15 0)
(1.5823 1.26687 0)
(1.5917 1.26696 0)
(1.62472 1.26579 0)
(1.69057 1.22643 0)
(2.35452 0.644131 0)
(3.01993 -0.0187776 0)
(2.99975 0.000141233 0)
(3 -4.18864e-06 0)
(3 8.33987e-08 0)
(3 -9.20756e-10 0)
(3 7.24695e-13 0)
(3 -2.99306e-15 0)
(3 -2.01848e-15 0)
(3 -1.87951e-15 0)
(3 -7.8203e-16 0)
(3 -2.27527e-17 0)
(3 -2.23898e-16 0)
(3 4.87517e-16 0)
(3 -1.45091e-16 0)
(3 -8.10809e-16 0)
(1.58347 1.27953 0)
(1.58468 1.28245 0)
(1.64592 1.26156 0)
(1.73853 1.18476 0)
(2.65174 0.296687 0)
(3 -5.8505e-10 0)
(3 1.41145e-08 0)
(3 -1.27335e-08 0)
(3 5.4471e-10 0)
(3 2.79839e-12 0)
(3 -1.27614e-13 0)
(3 -2.69085e-15 0)
(3 -1.89706e-15 0)
(3 -1.52922e-15 0)
(3 -1.23835e-15 0)
(3 -6.67173e-16 0)
(3 -3.56535e-16 0)
(3 -5.01835e-16 0)
(3 -1.76751e-15 0)
(3 -2.33972e-15 0)
(1.58108 1.30023 0)
(1.56054 1.29935 0)
(1.68258 1.23878 0)
(2.21392 0.822485 0)
(3.02292 -0.0235888 0)
(3 -8.98823e-13 0)
(3 -3.09812e-11 0)
(3 3.43406e-11 0)
(3 -3.45169e-12 0)
(3 -2.93572e-15 0)
(3 -3.26727e-15 0)
(3 -3.67392e-15 0)
(3 -2.46039e-15 0)
(3 -1.48872e-15 0)
(3 -1.76266e-15 0)
(3 -1.52364e-15 0)
(3 -1.53443e-15 0)
(3 -2.50765e-15 0)
(3 -2.3252e-15 0)
(3 -2.60989e-15 0)
(1.5911 1.32095 0)
(1.49402 1.33006 0)
(1.76008 1.18003 0)
(2.42308 0.545424 0)
(3 -2.85821e-06 0)
(3 -7.24219e-12 0)
(3 2.4513e-13 0)
(3 -1.66253e-13 0)
(3 2.12854e-14 0)
(3 -2.9647e-15 0)
(3 -4.01916e-15 0)
(3 -3.23526e-15 0)
(3 -2.45435e-15 0)
(3 -2.22874e-15 0)
(3 -2.4279e-15 0)
(3 -2.99901e-15 0)
(3 -2.5726e-15 0)
(3 -2.79458e-15 0)
(3 -2.31926e-15 0)
(3 -2.18382e-15 0)
(1.58813 1.30588 0)
(1.47344 1.36166 0)
(1.93235 1.04464 0)
(2.85483 0.125647 0)
(3 -1.54127e-08 0)
(3 1.36863e-12 0)
(3 -9.34018e-15 0)
(3 2.94773e-16 0)
(3 -9.14851e-16 0)
(3 -2.10268e-15 0)
(3 -2.23833e-15 0)
(3 -2.66904e-15 0)
(3 -2.44579e-15 0)
(3 -2.07976e-15 0)
(3 -2.4644e-15 0)
(3 -3.03918e-15 0)
(3 -2.8422e-15 0)
(3 -2.4339e-15 0)
(3 -1.8752e-15 0)
(3 -2.41854e-15 0)
(1.60256 1.29084 0)
(1.48457 1.37019 0)
(2.1968 0.808552 0)
(3.01043 -0.00893483 0)
(3 3.50526e-08 0)
(3 -1.47535e-13 0)
(3 -1.50098e-17 0)
(3 3.16828e-16 0)
(3 -7.94772e-17 0)
(3 -8.0678e-16 0)
(3 -1.11704e-15 0)
(3 -7.34002e-16 0)
(3 -1.44156e-15 0)
(3 -1.70178e-15 0)
(3 -2.31603e-15 0)
(3 -2.4472e-15 0)
(3 -2.3463e-15 0)
(3 -2.66616e-15 0)
(3 -2.88253e-15 0)
(3 -3.31221e-15 0)
(1.617 1.28035 0)
(1.56234 1.32363 0)
(2.39687 0.565983 0)
(3 -2.82218e-12 0)
(3 -3.474e-11 0)
(3 3.56286e-14 0)
(3 -2.19067e-17 0)
(3 1.80915e-16 0)
(3 4.64415e-16 0)
(3 5.37742e-16 0)
(3 4.93772e-16 0)
(3 2.17556e-16 0)
(3 -3.55277e-16 0)
(3 -7.71943e-16 0)
(3 -1.95565e-15 0)
(3 -2.3675e-15 0)
(3 -2.81763e-15 0)
(3 -2.67256e-15 0)
(3 -2.60704e-15 0)
(3 -2.87217e-15 0)
(1.63345 1.26565 0)
(1.62265 1.24871 0)
(2.63292 0.305257 0)
(3 1.4071e-13 0)
(3 -6.14942e-14 0)
(3 -8.68725e-16 0)
(3 -1.50682e-16 0)
(3 7.10569e-16 0)
(3 1.27316e-15 0)
(3 1.88898e-15 0)
(3 1.79302e-15 0)
(3 1.99525e-15 0)
(3 1.97418e-15 0)
(3 1.09429e-15 0)
(3 3.88723e-16 0)
(3 -1.02505e-15 0)
(3 -1.72972e-15 0)
(3 -2.51838e-15 0)
(3 -2.54164e-15 0)
(3 -2.45456e-15 0)
(1.65257 1.24904 0)
(1.82959 1.10221 0)
(2.86947 0.0963613 0)
(3 2.0762e-15 0)
(3 -7.58748e-16 0)
(3 -8.87956e-16 0)
(3 -1.28622e-15 0)
(3 -8.09943e-16 0)
(3 -1.81093e-16 0)
(3 1.96237e-16 0)
(3 5.99637e-16 0)
(3 6.18915e-16 0)
(3 4.35531e-16 0)
(3 -6.87053e-17 0)
(3 1.95932e-16 0)
(3 -6.66393e-16 0)
(3 -1.19562e-15 0)
(3 -1.85756e-15 0)
(3 -1.97922e-15 0)
(3 -2.013e-15 0)
(1.67809 1.19893 0)
(1.88892 0.980846 0)
(2.99166 0.00583097 0)
(3 -3.35824e-15 0)
(3 -8.19265e-16 0)
(3 -1.74352e-15 0)
(3 -2.80844e-15 0)
(3 -1.64916e-15 0)
(3 -9.04679e-16 0)
(3 -5.98737e-16 0)
(3 -9.07618e-16 0)
(3 -6.04484e-16 0)
(3 -2.41086e-16 0)
(3 -1.37315e-16 0)
(3 -2.6862e-16 0)
(3 -7.71981e-17 0)
(3 -7.32525e-16 0)
(3 -1.22613e-15 0)
(3 -1.48524e-15 0)
(3 -1.19453e-15 0)
(1.71969 1.16275 0)
(2.06444 0.818018 0)
(3 -1.57512e-15 0)
(3 -1.46168e-15 0)
(3 -1.6854e-15 0)
(3 -2.1015e-15 0)
(3 -3.24396e-15 0)
(3 -3.10999e-15 0)
(3 -2.74969e-15 0)
(3 -1.94926e-15 0)
(3 -1.8665e-15 0)
(3 -1.33471e-15 0)
(3 -9.9636e-16 0)
(3 -5.67542e-16 0)
(3 4.39831e-17 0)
(3 3.83477e-16 0)
(3 2.64084e-16 0)
(3 -5.37492e-17 0)
(3 -1.63544e-16 0)
(3 -8.46607e-16 0)
(1.75384 1.10086 0)
(2.23365 0.643004 0)
(3 -1.42434e-15 0)
(3 -2.21632e-15 0)
(3 -2.16462e-15 0)
(3 -1.88798e-15 0)
(3 -1.72954e-15 0)
(3 -1.81882e-15 0)
(3 -2.11588e-15 0)
(3 -2.49821e-15 0)
(3 -2.75069e-15 0)
(3 -2.6706e-15 0)
(3 -2.20955e-15 0)
(3 -1.56648e-15 0)
(3 -9.84586e-16 0)
(3 -9.34668e-16 0)
(3 -8.91865e-16 0)
(3 -1.14824e-15 0)
(3 -1.03054e-15 0)
(3 -9.21564e-16 0)
(1.85468 1.00969 0)
(2.4693 0.4401 0)
(3 -1.42335e-15 0)
(3 -2.07268e-15 0)
(3 -2.25058e-15 0)
(3 -2.13753e-15 0)
(3 -2.33968e-15 0)
(3 -2.69095e-15 0)
(3 -3.13891e-15 0)
(3 -3.56676e-15 0)
(3 -3.6561e-15 0)
(3 -3.62681e-15 0)
(3 -3.47327e-15 0)
(3 -3.1449e-15 0)
(3 -2.62837e-15 0)
(3 -1.97389e-15 0)
(3 -1.58718e-15 0)
(3 -1.72875e-15 0)
(3 -1.72693e-15 0)
(3 -1.60699e-15 0)
(1.90223 0.865949 0)
(2.69617 0.213679 0)
(3 -2.32073e-15 0)
(3 -3.18694e-15 0)
(3 -3.47935e-15 0)
(3 -3.01473e-15 0)
(3 -2.14901e-15 0)
(3 -1.39347e-15 0)
(3 -1.01831e-15 0)
(3 -1.6393e-15 0)
(3 -1.84184e-15 0)
(3 -1.75816e-15 0)
(3 -1.86187e-15 0)
(3 -1.87993e-15 0)
(3 -2.12411e-15 0)
(3 -2.27605e-15 0)
(3 -2.00679e-15 0)
(3 -1.78469e-15 0)
(3 -1.73326e-15 0)
(3 -1.57882e-15 0)
(2.08393 0.689983 0)
(2.98978 -8.79793e-05 0)
(3 -1.74243e-15 0)
(3 -1.81012e-15 0)
(3 -2.07409e-15 0)
(3 -2.49263e-15 0)
(3 -2.25964e-15 0)
(3 -1.42633e-15 0)
(3 -8.3918e-16 0)
(3 -7.85478e-16 0)
(3 -1.02062e-15 0)
(3 -1.05064e-15 0)
(3 -9.37794e-16 0)
(3 -7.49814e-16 0)
(3 -9.95739e-16 0)
(3 -1.33014e-15 0)
(3 -1.53543e-15 0)
(3 -1.78653e-15 0)
(3 -1.75011e-15 0)
(3 -1.66218e-15 0)
(1.99403 0.366739 0)
(2.99989 -1.39311e-05 0)
(3 1.32006e-15 0)
(3 -9.33436e-18 0)
(3 3.16772e-17 0)
(3 -6.05348e-16 0)
(3 -7.76568e-16 0)
(3 -5.51353e-16 0)
(3 -2.02613e-16 0)
(3 2.07287e-16 0)
(3 2.83622e-16 0)
(3 2.13457e-17 0)
(3 1.85137e-16 0)
(3 2.35553e-16 0)
(3 3.19985e-16 0)
(3 4.26422e-16 0)
(3 4.16236e-16 0)
(3 1.37828e-17 0)
(3 -6.98138e-17 0)
(3 -1.23214e-16 0)
(1.99399 -0.367015 0)
(2.99989 1.38952e-05 0)
(3 1.83756e-15 0)
(3 1.57102e-15 0)
(3 1.02029e-15 0)
(3 1.09974e-15 0)
(3 1.30373e-15 0)
(3 1.20942e-15 0)
(3 1.27097e-15 0)
(3 1.2225e-15 0)
(3 1.09815e-15 0)
(3 9.98501e-16 0)
(3 8.52809e-16 0)
(3 8.7015e-16 0)
(3 9.22888e-16 0)
(3 9.19706e-16 0)
(3 8.21371e-16 0)
(3 9.0718e-16 0)
(3 8.93229e-16 0)
(3 7.47089e-16 0)
(2.08608 -0.690785 0)
(2.98982 8.19459e-05 0)
(3 1.09924e-15 0)
(3 7.36885e-16 0)
(3 6.37778e-16 0)
(3 1.15385e-15 0)
(3 1.4421e-15 0)
(3 1.55352e-15 0)
(3 1.44421e-15 0)
(3 9.26724e-16 0)
(3 7.47608e-16 0)
(3 8.07152e-16 0)
(3 7.0173e-16 0)
(3 5.43194e-16 0)
(3 3.36448e-16 0)
(3 9.18255e-17 0)
(3 -1.86406e-18 0)
(3 4.75535e-17 0)
(3 3.03888e-17 0)
(3 1.00364e-16 0)
(1.90322 -0.866397 0)
(2.69634 -0.213723 0)
(3 4.61781e-17 0)
(3 1.37499e-16 0)
(3 4.81769e-16 0)
(3 1.06441e-15 0)
(3 1.114e-15 0)
(3 1.03812e-15 0)
(3 7.06117e-16 0)
(3 2.87621e-16 0)
(3 3.59834e-16 0)
(3 2.30106e-16 0)
(3 -1.03761e-16 0)
(3 -4.22726e-16 0)
(3 -5.61939e-16 0)
(3 -4.13238e-16 0)
(3 -6.98218e-17 0)
(3 1.19473e-16 0)
(3 1.93883e-16 0)
(3 1.78673e-16 0)
(1.85344 -1.00938 0)
(2.46836 -0.440277 0)
(3 1.01121e-15 0)
(3 1.19971e-15 0)
(3 1.58388e-15 0)
(3 2.1904e-15 0)
(3 2.22563e-15 0)
(3 1.88945e-15 0)
(3 1.17717e-15 0)
(3 6.45484e-16 0)
(3 1.92133e-16 0)
(3 -1.55689e-16 0)
(3 -4.03649e-16 0)
(3 -8.33882e-16 0)
(3 -1.18028e-15 0)
(3 -9.15874e-16 0)
(3 -2.75416e-16 0)
(3 -2.50218e-16 0)
(3 5.54297e-16 0)
(3 8.74888e-16 0)
(1.75398 -1.10023 0)
(2.23266 -0.643393 0)
(3 2.40362e-16 0)
(3 8.49458e-16 0)
(3 1.64454e-15 0)
(3 2.13104e-15 0)
(3 1.79187e-15 0)
(3 8.71719e-16 0)
(3 4.17716e-16 0)
(3 7.69047e-17 0)
(3 -3.39452e-17 0)
(3 -5.03663e-16 0)
(3 -3.4288e-16 0)
(3 1.38643e-16 0)
(3 9.70534e-16 0)
(3 2.28185e-15 0)
(3 2.66692e-15 0)
(3 2.78351e-15 0)
(3 1.73511e-15 0)
(3 1.8649e-15 0)
(1.71552 -1.1625 0)
(2.06291 -0.818033 0)
(3 -2.88045e-17 0)
(3 3.38015e-16 0)
(3 1.13811e-15 0)
(3 1.2946e-15 0)
(3 1.30113e-15 0)
(3 9.56764e-16 0)
(3 4.92659e-16 0)
(3 3.83808e-16 0)
(3 -3.2169e-17 0)
(3 -7.75435e-16 0)
(3 -6.09432e-16 0)
(3 -1.71541e-16 0)
(3 1.37168e-15 0)
(3 1.92258e-15 0)
(3 1.98566e-15 0)
(3 2.15134e-15 0)
(3 2.5532e-15 0)
(3 3.37129e-15 0)
(1.67931 -1.198 0)
(1.8898 -0.980764 0)
(2.99336 -0.00470557 0)
(3 1.68058e-15 0)
(3 1.60639e-15 0)
(3 2.11718e-15 0)
(3 2.03621e-15 0)
(3 7.0875e-16 0)
(3 -1.21672e-16 0)
(3 -1.65057e-16 0)
(3 -1.56627e-16 0)
(3 6.54027e-16 0)
(3 1.30079e-15 0)
(3 1.82895e-15 0)
(3 2.96761e-15 0)
(3 2.51631e-15 0)
(3 2.25593e-15 0)
(3 2.10956e-15 0)
(3 1.56955e-15 0)
(3 1.32419e-15 0)
(1.65348 -1.24849 0)
(1.83149 -1.10105 0)
(2.87167 -0.0947102 0)
(3 3.47111e-16 0)
(3 1.10558e-15 0)
(3 2.00873e-15 0)
(3 2.2934e-15 0)
(3 6.78366e-16 0)
(3 3.05218e-17 0)
(3 -5.22661e-16 0)
(3 -1.08573e-16 0)
(3 1.21365e-15 0)
(3 1.9409e-15 0)
(3 2.37443e-15 0)
(3 2.0897e-15 0)
(3 1.9941e-15 0)
(3 1.77784e-15 0)
(3 1.3546e-15 0)
(3 1.62111e-16 0)
(3 -1.38579e-15 0)
(1.63416 -1.26553 0)
(1.62467 -1.24662 0)
(2.6353 -0.301764 0)
(3 -2.4129e-13 0)
(3 6.94823e-14 0)
(3 1.58251e-15 0)
(3 1.24941e-15 0)
(3 7.64944e-16 0)
(3 -4.20364e-16 0)
(3 -4.82074e-16 0)
(3 -2.92166e-18 0)
(3 4.4354e-16 0)
(3 1.11946e-15 0)
(3 1.1174e-15 0)
(3 7.68266e-16 0)
(3 1.24842e-15 0)
(3 8.70963e-16 0)
(3 -1.08285e-16 0)
(3 -1.35061e-15 0)
(3 -2.59991e-15 0)
(1.6168 -1.2805 0)
(1.55838 -1.32481 0)
(2.39302 -0.568272 0)
(3 2.25855e-12 0)
(3 2.21081e-11 0)
(3 -4.79785e-13 0)
(3 1.47989e-15 0)
(3 -6.27598e-16 0)
(3 -5.52626e-16 0)
(3 -4.00611e-16 0)
(3 -8.1007e-16 0)
(3 -6.69538e-16 0)
(3 -6.37824e-16 0)
(3 -2.39548e-16 0)
(3 1.2346e-16 0)
(3 4.3536e-16 0)
(3 1.81162e-16 0)
(3 -1.49218e-15 0)
(3 -2.63058e-15 0)
(3 -2.43501e-15 0)
(1.6022 -1.29085 0)
(1.4853 -1.36867 0)
(2.19888 -0.807064 0)
(3.0104 0.00892786 0)
(3 -2.35398e-08 0)
(3 8.18045e-11 0)
(3 -1.25866e-13 0)
(3 2.06713e-16 0)
(3 -2.87459e-16 0)
(3 -4.3521e-16 0)
(3 -8.81573e-16 0)
(3 -1.26515e-15 0)
(3 -1.00102e-15 0)
(3 -2.05359e-16 0)
(3 -2.0764e-16 0)
(3 -9.94738e-16 0)
(3 -1.33307e-15 0)
(3 -1.83392e-15 0)
(3 -2.31729e-15 0)
(3 -1.41048e-15 0)
(1.58801 -1.30617 0)
(1.47553 -1.36098 0)
(1.93244 -1.04462 0)
(2.85374 -0.125941 0)
(3 8.86098e-09 0)
(3 -1.13704e-10 0)
(3 2.39446e-13 0)
(3 -4.53803e-15 0)
(3 -8.83821e-16 0)
(3 -8.92695e-16 0)
(3 -1.34388e-15 0)
(3 -1.4e-15 0)
(3 -3.94996e-16 0)
(3 -3.2041e-16 0)
(3 -5.75134e-16 0)
(3 -1.06116e-15 0)
(3 -8.12754e-16 0)
(3 -1.21663e-15 0)
(3 -2.70313e-15 0)
(3 -1.3249e-15 0)
(1.59094 -1.32082 0)
(1.49352 -1.33106 0)
(1.75525 -1.18128 0)
(2.41921 -0.547063 0)
(3.00007 4.83152e-05 0)
(3 2.51579e-11 0)
(3 -3.74577e-13 0)
(3 1.26592e-13 0)
(3 -1.08755e-14 0)
(3 -1.42919e-15 0)
(3 -1.16938e-15 0)
(3 -1.06287e-15 0)
(3 -3.69632e-16 0)
(3 -5.86477e-16 0)
(3 -3.74693e-16 0)
(3 -2.4975e-16 0)
(3 -1.03959e-15 0)
(3 -1.04272e-15 0)
(3 -9.59088e-16 0)
(3 5.50066e-17 0)
(1.58105 -1.29969 0)
(1.55809 -1.30019 0)
(1.68374 -1.23772 0)
(2.21727 -0.821718 0)
(3.02301 0.0236898 0)
(3 3.34749e-11 0)
(3 6.24437e-11 0)
(3 -6.30921e-11 0)
(3 4.26855e-12 0)
(3 2.07193e-15 0)
(3 -2.24992e-15 0)
(3 -4.7009e-16 0)
(3 -3.60131e-16 0)
(3 -7.76125e-16 0)
(3 -2.18622e-16 0)
(3 -1.86162e-16 0)
(3 -1.36761e-15 0)
(3 3.56969e-16 0)
(3 4.33549e-16 0)
(3 5.36738e-16 0)
(1.58401 -1.28068 0)
(1.58705 -1.28252 0)
(1.64683 -1.26189 0)
(1.73832 -1.18377 0)
(2.65107 -0.296136 0)
(3 6.40953e-10 0)
(3 -1.44182e-08 0)
(3 1.28387e-08 0)
(3 -5.39641e-10 0)
(3 -2.52972e-12 0)
(3 1.22547e-13 0)
(3 -1.57933e-15 0)
(3 -3.9006e-16 0)
(3 -1.03137e-15 0)
(3 -9.22984e-16 0)
(3 -4.06462e-17 0)
(3 -8.46938e-16 0)
(3 1.13702e-15 0)
(3 1.582e-15 0)
(3 1.37036e-15 0)
(1.58338 -1.26711 0)
(1.59257 -1.26765 0)
(1.62498 -1.26561 0)
(1.68309 -1.23044 0)
(2.3554 -0.642762 0)
(3.02002 0.0190172 0)
(2.99975 -0.000131357 0)
(3 4.15428e-06 0)
(3 -8.28237e-08 0)
(3 9.28948e-10 0)
(3 -1.19075e-12 0)
(3 4.1102e-15 0)
(3 -5.08154e-16 0)
(3 -4.56335e-16 0)
(3 -8.57749e-16 0)
(3 -1.67132e-17 0)
(3 -5.08473e-16 0)
(3 1.18232e-15 0)
(3 2.63832e-15 0)
(3 2.65464e-15 0)
(1.57789 -1.2565 0)
(1.59593 -1.25753 0)
(1.61944 -1.25996 0)
(1.64922 -1.26342 0)
(1.88505 -1.081 0)
(2.75591 -0.218653 0)
(3.00452 0.000545479 0)
(2.99992 -6.82731e-05 0)
(3 9.5069e-07 0)
(3 -9.23144e-10 0)
(3 1.16822e-12 0)
(3 -6.39696e-15 0)
(3 -1.93757e-16 0)
(3 1.41209e-16 0)
(3 -7.57777e-16 0)
(3 2.27071e-16 0)
(3 -3.75425e-16 0)
(3 2.03388e-15 0)
(3 2.98862e-15 0)
(3 3.28824e-15 0)
(1.57523 -1.24549 0)
(1.59767 -1.25125 0)
(1.61302 -1.25657 0)
(1.61525 -1.27607 0)
(1.68826 -1.22689 0)
(2.25531 -0.762635 0)
(3.00528 0.00967413 0)
(3.00005 0.000380315 0)
(3 -8.35509e-07 0)
(3 -5.18904e-11 0)
(3 -1.56773e-14 0)
(3 2.85183e-15 0)
(3 6.00056e-16 0)
(3 1.47837e-15 0)
(3 -8.42243e-16 0)
(3 9.33982e-16 0)
(3 -3.90857e-17 0)
(3 2.06976e-15 0)
(3 2.54036e-15 0)
(3 3.02038e-15 0)
(1.57894 -1.24233 0)
(1.59158 -1.25602 0)
(1.60583 -1.26472 0)
(1.61479 -1.27427 0)
(1.6651 -1.26879 0)
(1.74388 -1.21489 0)
(2.25721 -0.742269 0)
(2.99624 -0.0142365 0)
(3 -5.35049e-08 0)
(3 -9.27379e-11 0)
(3 3.42184e-13 0)
(3 8.44918e-16 0)
(3 2.7906e-15 0)
(3 1.51591e-15 0)
(3 6.71496e-16 0)
(3 2.37482e-15 0)
(3 1.34816e-15 0)
(3 1.37272e-15 0)
(3 1.66334e-15 0)
(3 1.58265e-15 0)
(1.58285 -1.26054 0)
(1.58672 -1.26562 0)
(1.59475 -1.26903 0)
(1.60151 -1.2635 0)
(1.60058 -1.24852 0)
(1.58711 -1.26691 0)
(1.89239 -1.17719 0)
(2.9712 -0.406933 0)
(3.35089 0.634158 0)
(3 1.00995e-11 0)
(3 -7.87713e-11 0)
(3 5.54876e-14 0)
(3 -3.96867e-14 0)
(3 2.74481e-13 0)
(3 -1.30369e-15 0)
(3 1.14486e-15 0)
(3 1.68824e-15 0)
(3 3.23109e-15 0)
(3 2.19452e-15 0)
(3 3.1139e-15 0)
(1.17496 -0.756921 0)
(1.83015 -1.16007 0)
(1.84217 -1.1587 0)
(1.74499 -1.19646 0)
(1.70624 -1.19805 0)
(1.65477 -1.24201 0)
(1.64994 -1.21447 0)
(1.72233 -1.16593 0)
(1.75741 -1.2359 0)
(1.79543 -1.14366 0)
(2.27666 -0.736929 0)
(2.86115 -0.206168 0)
(3.09754 0.0289034 0)
(3.02061 0.0124125 0)
(3.00468 0.00547539 0)
(3.00189 0.00303907 0)
(3.00006 0.000591315 0)
(2.99998 2.30982e-05 0)
(2.99999 -1.43368e-05 0)
(3 -5.89367e-06 0)
(1.0021 -0.0407074 0)
(1.92429 -0.757568 0)
(2.11902 -0.819174 0)
(1.99084 -0.981585 0)
(1.96849 -0.97214 0)
(1.86959 -1.07161 0)
(1.78313 -1.13503 0)
(1.75719 -1.14479 0)
(1.75649 -1.16165 0)
(1.73658 -1.20256 0)
(1.72032 -1.19358 0)
(1.86648 -1.06561 0)
(2.09736 -0.882408 0)
(2.50273 -0.573915 0)
(2.98764 -0.133049 0)
(3.07348 0.029877 0)
(3.00813 0.00769968 0)
(3.00293 0.0038485 0)
(3.00122 0.00219717 0)
(3.00008 0.000487134 0)
(1.14459 0.14263 0)
(1.91279 -0.0741217 0)
(2.27073 -0.216334 0)
(2.24075 -0.510038 0)
(2.19833 -0.683698 0)
(2.12542 -0.800434 0)
(2.0442 -0.895378 0)
(1.96232 -0.968615 0)
(1.91613 -1.03456 0)
(1.84582 -1.12537 0)
(1.78735 -1.15559 0)
(1.79108 -1.15201 0)
(1.80862 -1.13147 0)
(1.84841 -1.08783 0)
(2.03846 -0.950901 0)
(2.25808 -0.827046 0)
(2.6644 -0.501847 0)
(3.03686 -0.0910684 0)
(3.05578 0.0239368 0)
(3.00403 0.00467713 0)
(0.88886 0.433595 0)
(1.73596 0.181371 0)
(2.19324 0.701907 0)
(2.29604 0.147942 0)
(2.34807 -0.0122052 0)
(2.34645 -0.313016 0)
(2.27006 -0.573416 0)
(2.18598 -0.724859 0)
(2.13455 -0.800356 0)
(2.07566 -0.921379 0)
(1.96783 -1.0184 0)
(1.91078 -1.06757 0)
(1.88072 -1.08279 0)
(1.86658 -1.08808 0)
(1.87293 -1.05548 0)
(1.89904 -1.0472 0)
(1.96311 -1.0208 0)
(2.16259 -0.905549 0)
(2.37955 -0.796685 0)
(2.77883 -0.444539 0)
(0.670445 0.606916 0)
(1.25343 0.968743 0)
(2.36081 0.526171 0)
(2.32835 0.67738 0)
(2.36468 0.599971 0)
(2.43495 0.305112 0)
(2.42278 -0.0294314 0)
(2.38792 -0.220284 0)
(2.33277 -0.389705 0)
(2.31558 -0.537768 0)
(2.21818 -0.703205 0)
(2.14171 -0.816077 0)
(2.08514 -0.884636 0)
(2.02642 -0.949133 0)
(1.98879 -0.965932 0)
(1.95401 -0.991922 0)
(1.95503 -1.01978 0)
(1.9691 -0.999489 0)
(1.99444 -0.998361 0)
(2.07255 -0.978909 0)
(0.868859 0.932972 0)
(1.24805 1.0109 0)
(1.8253 1.03089 0)
(2.3914 1.21544 0)
(2.62028 0.606561 0)
(2.5281 0.672988 0)
(2.54138 0.479278 0)
(2.5122 0.130304 0)
(2.48121 -0.0106081 0)
(2.46825 -0.195813 0)
(2.42372 -0.383867 0)
(2.34235 -0.563884 0)
(2.28919 -0.675747 0)
(2.20956 -0.790877 0)
(2.15635 -0.838147 0)
(2.11267 -0.857414 0)
(2.06786 -0.902157 0)
(2.06574 -0.896018 0)
(2.04265 -0.923302 0)
(2.06224 -0.949224 0)
(1.09679 1.15703 0)
(1.35368 1.16064 0)
(1.75148 1.20966 0)
(1.81112 1.66052 0)
(2.30383 1.06136 0)
(2.625 0.902824 0)
(2.73086 0.520799 0)
(2.6683 0.15545 0)
(2.62427 0.0873944 0)
(2.58608 -0.0824715 0)
(2.55661 -0.233931 0)
(2.49259 -0.392143 0)
(2.44838 -0.484114 0)
(2.39048 -0.572795 0)
(2.34685 -0.599722 0)
(2.31328 -0.600791 0)
(2.27151 -0.625116 0)
(2.23891 -0.661157 0)
(2.17088 -0.752114 0)
(2.13116 -0.795098 0)
(1.31443 1.38565 0)
(1.43252 1.44023 0)
(1.65315 1.40556 0)
(1.75878 1.6537 0)
(2.0044 1.42337 0)
(2.19792 1.22812 0)
(2.44831 1.01213 0)
(2.60142 0.773003 0)
(2.60522 0.460633 0)
(2.61 0.378559 0)
(2.60962 0.194671 0)
(2.5941 0.0545779 0)
(2.56618 -0.0604342 0)
(2.54656 -0.140867 0)
(2.49468 -0.248551 0)
(2.48149 -0.292416 0)
(2.42075 -0.408871 0)
(2.3571 -0.528205 0)
(2.29442 -0.608784 0)
(2.3011 -0.56649 0)
(1.51255 1.64451 0)
(1.46582 1.77682 0)
(1.42246 1.80523 0)
(1.69755 1.75894 0)
(1.9638 1.64117 0)
(2.1502 1.35944 0)
(2.21054 1.45498 0)
(2.34525 1.25057 0)
(2.42922 1.01228 0)
(2.47613 0.884209 0)
(2.54187 0.688844 0)
(2.57933 0.490288 0)
(2.60134 0.302788 0)
(2.63757 0.158075 0)
(2.58998 -0.0701638 0)
(2.58243 -0.185569 0)
(2.51846 -0.362468 0)
(2.47855 -0.358917 0)
(2.43515 -0.375339 0)
(2.47078 -0.289427 0)
(1.71397 1.79609 0)
(1.6045 2.01388 0)
(1.50938 2.17527 0)
(1.68461 2.0337 0)
(1.8956 1.86076 0)
(2.05723 1.5897 0)
(2.13871 1.55338 0)
(2.28486 1.365 0)
(2.38104 1.23432 0)
(2.48622 1.05576 0)
(2.60503 0.825107 0)
(2.66382 0.577499 0)
(2.69408 0.360998 0)
(2.71132 0.187368 0)
(2.675 0.00260297 0)
(2.6503 -0.0544352 0)
(2.6231 -0.115884 0)
(2.61219 -0.0147963 0)
(2.55577 -0.0939431 0)
(2.58602 -0.0491474 0)
(1.827 1.84077 0)
(1.74673 2.05977 0)
(1.65457 2.28613 0)
(1.73886 2.15894 0)
(1.94301 1.93612 0)
(2.10725 1.71585 0)
(2.26795 1.61367 0)
(2.44621 1.41103 0)
(2.60157 1.33817 0)
(2.69802 0.983035 0)
(2.764 0.819616 0)
(2.77459 0.596858 0)
(2.7635 0.542001 0)
(2.75685 0.439213 0)
(2.74209 0.370439 0)
(2.7084 0.331177 0)
(2.68394 0.304412 0)
(2.6902 0.301873 0)
(2.64928 0.145904 0)
(2.61649 -0.0216134 0)
(1.74115 1.78137 0)
(1.87503 2.04963 0)
(1.87463 2.30889 0)
(1.99775 2.30223 0)
(2.17318 2.04215 0)
(2.30488 1.87972 0)
(2.49922 1.60134 0)
(2.62516 1.4214 0)
(2.67551 1.41585 0)
(2.73625 1.2048 0)
(2.72985 1.26768 0)
(2.74461 1.05919 0)
(2.69675 1.00155 0)
(2.69966 0.896062 0)
(2.69494 0.771373 0)
(2.69507 0.66149 0)
(2.72453 0.573821 0)
(2.74937 0.418531 0)
(2.73511 0.219886 0)
(2.68728 0.0932591 0)
(1.55492 1.65387 0)
(1.86115 2.02027 0)
(1.97463 2.27169 0)
(2.10807 2.294 0)
(2.30045 2.16314 0)
(2.38681 2.10988 0)
(2.45504 1.7338 0)
(2.44417 1.66026 0)
(2.46143 1.6571 0)
(2.47828 1.614 0)
(2.48975 1.53157 0)
(2.55405 1.38454 0)
(2.57608 1.21877 0)
(2.64775 1.13179 0)
(2.68245 0.948841 0)
(2.74207 0.804554 0)
(2.792 0.64521 0)
(2.81938 0.419802 0)
(2.78497 0.372592 0)
(2.72381 0.347872 0)
(1.41099 1.55548 0)
(1.6374 1.90575 0)
(1.91105 2.20962 0)
(2.04356 2.28018 0)
(2.25276 2.22058 0)
(2.26422 2.2317 0)
(2.28457 1.94129 0)
(2.18702 1.92454 0)
(2.21285 1.84478 0)
(2.24516 1.76114 0)