/*--------------------------------*- C++ -*----------------------------------*\
  =========                 |
  \\      /  F ield         | OpenFOAM: The Open Source CFD Toolbox
   \\    /   O peration     | Website:  https://openfoam.org
    \\  /    A nd           | Version:  7
     \\/     M anipulation  |
\*---------------------------------------------------------------------------*/
FoamFile
{
    version     2.0;
    format      ascii;
    class       volVectorField;
    location    "0.1";
    object      U;
}
// * * * * * * * * * * * * * * * * * * * * * * * * * * * * * * * * * * * * * //

dimensions      [0 1 -1 0 0 0 0];

internalField   nonuniform List<vector> 
3700
(
(0.609299 -0.27864 0)
(0.681867 -0.382427 0)
(0.972931 -0.407184 0)
(1.17015 -0.609334 0)
(1.41564 -0.544029 0)
(1.60639 -0.551071 0)
(1.7658 -0.506277 0)
(1.89767 -0.45596 0)
(2.01647 -0.399349 0)
(2.13555 -0.343596 0)
(2.26226 -0.290737 0)
(2.39179 -0.232917 0)
(2.51097 -0.166218 0)
(2.63592 -0.11435 0)
(2.77855 -0.0672872 0)
(2.91045 -0.0250757 0)
(2.98345 -0.00409659 0)
(2.99914 -0.000185544 0)
(2.99999 -2.0122e-06 0)
(3 -1.67717e-08 0)
(0.796431 -0.778251 0)
(0.898687 -1.07786 0)
(1.27936 -1.16207 0)
(1.51206 -1.51666 0)
(1.78585 -1.55847 0)
(1.96037 -1.54863 0)
(2.06856 -1.44582 0)
(2.13856 -1.28314 0)
(2.19507 -1.08726 0)
(2.26028 -0.887063 0)
(2.34785 -0.705019 0)
(2.46477 -0.544632 0)
(2.61484 -0.386632 0)
(2.77143 -0.21798 0)
(2.90173 -0.0861685 0)
(2.97719 -0.0184719 0)
(2.99815 -0.00146746 0)
(2.99996 -3.41082e-05 0)
(3 -3.84954e-07 0)
(3 -4.75762e-08 0)
(0.756737 -0.953754 0)
(0.901487 -1.35734 0)
(1.37441 -1.36844 0)
(1.6407 -1.60081 0)
(1.91354 -1.5792 0)
(2.09334 -1.52651 0)
(2.21498 -1.39421 0)
(2.30386 -1.20917 0)
(2.38343 -1.00077 0)
(2.46955 -0.787268 0)
(2.57042 -0.579895 0)
(2.68707 -0.38498 0)
(2.81112 -0.211067 0)
(2.92055 -0.0792998 0)
(2.98354 -0.0147019 0)
(2.99898 -0.000887073 0)
(2.99999 -1.55706e-05 0)
(3 -7.45161e-07 0)
(3 -3.89768e-07 0)
(3 -6.57646e-08 0)
(0.749379 -0.897285 0)
(0.87479 -1.31897 0)
(1.40312 -1.29059 0)
(1.70429 -1.51801 0)
(1.98148 -1.51336 0)
(2.15313 -1.44707 0)
(2.26508 -1.29506 0)
(2.35306 -1.08867 0)
(2.44233 -0.859473 0)
(2.54641 -0.631492 0)
(2.66848 -0.417088 0)
(2.80037 -0.22683 0)
(2.91705 -0.0845937 0)
(2.98309 -0.0156378 0)
(2.99898 -0.000925378 0)
(2.99999 -1.53068e-05 0)
(3 -8.24178e-07 0)
(3 -2.4508e-07 0)
(3 3.57989e-08 0)
(3 4.7062e-09 0)
(0.742484 -0.864995 0)
(0.878307 -1.29613 0)
(1.43559 -1.28431 0)
(1.77147 -1.48049 0)
(2.04268 -1.4654 0)
(2.20908 -1.36239 0)
(2.31909 -1.1763 0)
(2.41171 -0.950071 0)
(2.51146 -0.713922 0)
(2.6288 -0.486805 0)
(2.76101 -0.282036 0)
(2.88763 -0.119992 0)
(2.97108 -0.0284158 0)
(2.99745 -0.00245239 0)
(2.99996 -5.62978e-05 0)
(3 -2.35404e-06 0)
(3 -1.20605e-06 0)
(3 -1.82383e-07 0)
(3 -2.79017e-09 0)
(3 -8.09199e-10 0)
(0.74834 -0.837631 0)
(0.889861 -1.28848 0)
(1.46905 -1.29519 0)
(1.81576 -1.48605 0)
(2.07689 -1.45914 0)
(2.23604 -1.33163 0)
(2.34834 -1.11834 0)
(2.45192 -0.868751 0)
(2.56654 -0.617174 0)
(2.69733 -0.385039 0)
(2.8333 -0.190729 0)
(2.94196 -0.0607817 0)
(2.99136 -0.00863522 0)
(2.99967 -0.000350438 0)
(3 -3.8955e-06 0)
(3 4.8352e-07 0)
(3 6.16467e-07 0)
(3 1.66472e-07 0)
(3 4.12239e-09 0)
(3 -7.35456e-10 0)
(0.760478 -0.818232 0)
(0.917479 -1.26433 0)
(1.51055 -1.28572 0)
(1.86562 -1.4542 0)
(2.11446 -1.40928 0)
(2.26255 -1.26029 0)
(2.37206 -1.03445 0)
(2.48243 -0.780702 0)
(2.60915 -0.530191 0)
(2.75025 -0.304704 0)
(2.88394 -0.128889 0)
(2.97065 -0.0305416 0)
(2.99744 -0.00264439 0)
(2.99995 -6.03347e-05 0)
(3 -2.25059e-06 0)
(3 -4.86659e-07 0)
(3 -9.98101e-08 0)
(3 -1.3904e-08 0)
(3 -2.3622e-09 0)
(3 -2.87979e-10 0)
(0.777508 -0.817246 0)
(0.945455 -1.27762 0)
(1.54631 -1.31256 0)
(1.89589 -1.47056 0)
(2.13269 -1.40631 0)
(2.27423 -1.23248 0)
(2.3848 -0.987837 0)
(2.50282 -0.724097 0)
(2.63991 -0.471058 0)
(2.78817 -0.250566 0)
(2.91637 -0.0912388 0)
(2.98434 -0.0163775 0)
(2.99914 -0.000918048 0)
(2.99999 -1.27844e-05 0)
(3 -8.6572e-08 0)
(3 -6.24689e-09 0)
(3 -2.62401e-09 0)
(3 -1.57048e-09 0)
(3 -3.03848e-10 0)
(3 -1.20049e-11 0)
(0.80121 -0.82921 0)
(0.985286 -1.29367 0)
(1.59614 -1.33458 0)
(1.93991 -1.46903 0)
(2.1617 -1.38415 0)
(2.29006 -1.19693 0)
(2.39625 -0.947584 0)
(2.5174 -0.683109 0)
(2.66066 -0.43164 0)
(2.81252 -0.216723 0)
(2.93491 -0.0702045 0)
(2.99039 -0.0101326 0)
(2.99962 -0.000413553 0)
(3 -4.37168e-06 0)
(3 -2.09738e-08 0)
(3 -9.9969e-10 0)
(3 -9.79468e-11 0)
(3 -4.78753e-12 0)
(3 -8.46061e-14 0)
(3 -7.54456e-16 0)
(0.831577 -0.873912 0)
(1.03624 -1.34698 0)
(1.67165 -1.38124 0)
(2.03608 -1.5426 0)
(2.25221 -1.40199 0)
(2.35806 -1.18337 0)
(2.4338 -0.921554 0)
(2.5399 -0.658366 0)
(2.67851 -0.410274 0)
(2.82785 -0.19964 0)
(2.94444 -0.0604059 0)
(2.99285 -0.00765274 0)
(2.99977 -0.000258462 0)
(3 -2.33575e-06 0)
(3 -1.14011e-08 0)
(3 -7.51575e-11 0)
(3 -3.90181e-12 0)
(3 -2.11756e-13 0)
(3 -4.97851e-15 0)
(3 1.3175e-16 0)
(0.876954 -0.967371 0)
(1.08942 -1.41476 0)
(1.74596 -1.39707 0)
(2.2078 -1.6664 0)
(2.48825 -1.47491 0)
(2.60822 -1.215 0)
(2.62483 -0.910942 0)
(2.64285 -0.639962 0)
(2.72098 -0.401758 0)
(2.84296 -0.196413 0)
(2.94906 -0.0588768 0)
(2.99349 -0.0073431 0)
(2.99979 -0.00024517 0)
(3 -2.24274e-06 0)
(3 -1.0392e-08 0)
(3 -2.86674e-11 0)
(3 6.88518e-14 0)
(3 2.9548e-14 0)
(3 4.84918e-15 0)
(3 -1.07042e-16 0)
(0.921931 -1.07585 0)
(1.1484 -1.44524 0)
(1.92307 -1.31024 0)
(2.3757 -1.76457 0)
(2.742 -1.53987 0)
(2.93057 -1.23868 0)
(2.9759 -0.877672 0)
(2.91345 -0.56162 0)
(2.87145 -0.343333 0)
(2.89441 -0.177273 0)
(2.956 -0.0578761 0)
(2.9933 -0.00790756 0)
(2.99975 -0.000282891 0)
(3 -2.48292e-06 0)
(3 -1.03563e-08 0)
(3 -4.06322e-11 0)
(3 -1.8007e-13 0)
(3 5.59109e-14 0)
(3 2.04334e-14 0)
(3 7.3489e-16 0)
(0.960823 -1.13752 0)
(1.33802 -1.39163 0)
(2.06139 -1.09098 0)
(2.55899 -1.61699 0)
(2.98511 -1.45819 0)
(3.17106 -1.11961 0)
(3.22898 -0.74216 0)
(3.14191 -0.406264 0)
(3.04292 -0.209437 0)
(2.9912 -0.106602 0)
(2.98125 -0.0422836 0)
(2.99349 -0.00880374 0)
(2.99933 -0.000678317 0)
(2.99998 -1.437e-05 0)
(3 -1.11659e-07 0)
(3 -1.49076e-09 0)
(3 -1.00741e-11 0)
(3 3.87055e-14 0)
(3 2.98939e-14 0)
(3 3.90504e-15 0)
(0.938664 -1.14449 0)
(1.47943 -1.35119 0)
(2.21883 -0.856461 0)
(2.56062 -1.29662 0)
(3.08741 -0.858728 0)
(3.24322 -0.562395 0)
(3.27813 -0.356485 0)
(3.19494 -0.145093 0)
(3.10413 -0.0313456 0)
(3.05267 -0.0175907 0)
(3.00517 -0.00953328 0)
(2.99815 -0.0058774 0)
(2.99869 -0.00175882 0)
(2.99988 -0.000142729 0)
(3 -3.59727e-06 0)
(3 -2.87642e-08 0)
(3 -1.10741e-10 0)
(3 -2.94955e-13 0)
(3 6.71276e-15 0)
(3 2.63171e-15 0)
(0.683258 -0.967253 0)
(1.40837 -1.31158 0)
(2.35623 -0.798483 0)
(3.09403 -0.33472 0)
(3.04247 -0.0897493 0)
(3.09028 0.0334981 0)
(3.14812 0.0871621 0)
(3.12189 0.126602 0)
(3.10053 0.0990234 0)
(3.04993 0.0563621 0)
(3.00872 0.0109877 0)
(3.00022 -0.00092772 0)
(2.99979 -0.000963614 0)
(2.99983 -0.000357988 0)
(2.99999 -2.38179e-05 0)
(3 -2.43418e-07 0)
(3 -8.35622e-10 0)
(3 -2.01432e-12 0)
(3 -3.88301e-15 0)
(3 1.89929e-16 0)
(0.717101 -0.294252 0)
(1.44613 -0.673226 0)
(2.69019 -0.330556 0)
(2.90233 -0.343051 0)
(2.90572 0.0781312 0)
(2.98366 0.288108 0)
(3.03182 0.321676 0)
(3.05592 0.268529 0)
(3.0691 0.172767 0)
(3.03835 0.0794959 0)
(3.00715 0.0146554 0)
(3.00034 0.000229588 0)
(3.00003 -0.000242752 0)
(2.99998 -0.00015468 0)
(2.99999 -3.06324e-05 0)
(3 -9.13033e-07 0)
(3 -3.93025e-09 0)
(3 -8.18281e-12 0)
(3 -1.5287e-14 0)
(3 -3.36973e-18 0)
(0.716936 -0.186653 0)
(2.27939 0.646157 0)
(2.66145 -0.009991 0)
(2.76069 0.26055 0)
(2.78189 0.462423 0)
(2.8753 0.507079 0)
(2.9348 0.451058 0)
(3.01363 0.324513 0)
(3.02064 0.189048 0)
(3.00695 0.0559428 0)
(3.00092 0.0062099 0)
(3.00009 0.000129522 0)
(3.00002 -4.69393e-05 0)
(3 -3.27036e-05 0)
(3 -8.16424e-06 0)
(3 -4.56481e-07 0)
(3 -4.22221e-09 0)
(3 -1.19432e-11 0)
(3 -2.43136e-14 0)
(3 1.28426e-16 0)
(0.9489 -0.0503296 0)
(2.39354 0.523457 0)
(2.61748 0.608914 0)
(2.60202 0.757398 0)
(2.7041 0.688331 0)
(2.77566 0.63264 0)
(2.89772 0.481433 0)
(2.97383 0.268882 0)
(2.99796 0.0744101 0)
(2.99986 0.00913433 0)
(3 0.000399038 0)
(3.00001 -1.50559e-06 0)
(3 -5.45028e-06 0)
(3 -3.39828e-06 0)
(3 -6.43891e-07 0)
(3 -2.38356e-08 0)
(3 -1.24421e-10 0)
(3 -2.81557e-13 0)
(3 -8.9351e-16 0)
(3 9.85652e-17 0)
(1.36064 0.646969 0)
(2.45404 1.05306 0)
(2.48206 0.969197 0)
(2.52888 0.902236 0)
(2.61049 0.787446 0)
(2.76489 0.557744 0)
(2.92558 0.250647 0)
(2.99228 0.051529 0)
(2.99967 0.00518271 0)
(2.99999 0.000197022 0)
(3 7.79343e-07 0)
(3 -2.50976e-07 0)
(3 -2.77934e-07 0)
(3 -8.80003e-08 0)
(3 -5.68816e-09 0)
(3 1.85746e-11 0)
(3 7.34753e-13 0)
(3 -1.34115e-14 0)
(3 -2.13533e-15 0)
(3 2.53856e-16 0)
(2.27685 1.22463 0)
(2.30382 1.16676 0)
(2.34539 1.08566 0)
(2.45786 0.863629 0)
(2.72868 0.461879 0)
(2.95121 0.119864 0)
(2.99975 0.0142449 0)
(3.00019 0.000621933 0)
(3 -2.26627e-05 0)
(3 -8.06603e-06 0)
(3 -1.53861e-06 0)
(3 -6.37071e-08 0)
(3 4.05822e-09 0)
(3 2.29972e-09 0)
(3 8.56145e-10 0)
(3 6.62948e-11 0)
(3 6.95565e-13 0)
(3 1.44275e-15 0)
(3 -2.29241e-16 0)
(3 -1.87223e-16 0)
(1.9705 1.26872 0)
(2.05551 1.01804 0)
(3.73636 -1.02322 0)
(2.99977 2.12029e-05 0)
(3.00035 7.00294e-05 0)
(2.9999 -2.86111e-05 0)
(3 1.9507e-08 0)
(3 2.39051e-08 0)
(3 -1.70797e-08 0)
(3 4.13256e-16 0)
(3 4.94663e-16 0)
(3 -3.06501e-15 0)
(3 4.0213e-16 0)
(3 4.63369e-16 0)
(3 4.46142e-16 0)
(3 3.04998e-16 0)
(3 -1.11982e-15 0)
(3 -8.21674e-16 0)
(3 2.70938e-16 0)
(3 1.61501e-16 0)
(2.03159 1.22476 0)
(2.16061 1.10121 0)
(2.99955 0.000220426 0)
(3.00001 -4.83585e-06 0)
(3 -1.94142e-07 0)
(3 1.86825e-08 0)
(3 3.212e-10 0)
(3 -1.13037e-10 0)
(3 5.14886e-11 0)
(3 1.32563e-16 0)
(3 -3.45691e-16 0)
(3 -4.56012e-16 0)
(3 -5.61347e-16 0)
(3 2.04068e-16 0)
(3 1.6465e-16 0)
(3 2.09991e-16 0)
(3 -3.33304e-16 0)
(3 -6.41113e-16 0)
(3 2.18935e-16 0)
(3 3.76044e-17 0)
(2.04524 1.18591 0)
(2.32509 0.862931 0)
(3.0008 -0.000333033 0)
(2.99999 1.56674e-06 0)
(3 2.1931e-09 0)
(3 4.57792e-11 0)
(3 -2.22542e-12 0)
(3 5.50441e-13 0)
(3 -1.9487e-13 0)
(3 -1.72724e-16 0)
(3 5.26272e-17 0)
(3 -2.54963e-16 0)
(3 -2.91979e-16 0)
(3 1.14623e-16 0)
(3 2.25436e-17 0)
(3 4.05528e-16 0)
(3 3.02766e-16 0)
(3 -2.77758e-16 0)
(3 -3.1355e-16 0)
(3 1.84332e-16 0)
(2.07541 1.15081 0)
(2.39189 0.777251 0)
(2.9998 6.8397e-05 0)
(3 -2.25779e-07 0)
(3 -1.28158e-09 0)
(3 3.8054e-13 0)
(3 1.09856e-13 0)
(3 -2.97808e-15 0)
(3 1.40037e-15 0)
(3 -9.53857e-17 0)
(3 2.24766e-17 0)
(3 6.32076e-17 0)
(3 -2.69784e-16 0)
(3 2.94825e-16 0)
(3 -6.34121e-16 0)
(3 2.42384e-16 0)
(3 3.91967e-16 0)
(3 -2.13254e-18 0)
(3 -3.74421e-16 0)
(3 2.69435e-16 0)
(2.09537 1.12953 0)
(2.468 0.678432 0)
(3.00001 -2.33922e-07 0)
(3 3.06403e-10 0)
(3 -8.80606e-12 0)
(3 8.32164e-14 0)
(3 -3.9674e-16 0)
(3 3.23573e-16 0)
(3 1.14467e-18 0)
(3 8.67858e-17 0)
(3 -2.17596e-16 0)
(3 -1.64623e-16 0)
(3 -1.74436e-16 0)
(3 3.45272e-16 0)
(3 -4.46415e-16 0)
(3 -2.81602e-16 0)
(3 -1.33539e-16 0)
(3 5.97692e-16 0)
(3 -2.40603e-16 0)
(3 4.45039e-17 0)
(2.11165 1.11157 0)
(2.52093 0.611393 0)
(3 2.28822e-09 0)
(3 2.88156e-12 0)
(3 -1.98769e-14 0)
(3 -2.80021e-16 0)
(3 4.26018e-16 0)
(3 4.35022e-16 0)
(3 -3.72719e-16 0)
(3 -8.29898e-17 0)
(3 -1.53276e-16 0)
(3 -1.8216e-16 0)
(3 -6.37444e-17 0)
(3 1.17892e-16 0)
(3 -2.04387e-16 0)
(3 -5.29391e-16 0)
(3 8.72808e-16 0)
(3 4.71656e-17 0)
(3 -1.29868e-16 0)
(3 -4.03032e-16 0)
(2.12175 1.10086 0)
(2.5613 0.560543 0)
(3 5.67977e-12 0)
(3 -3.78674e-14 0)
(3 2.17855e-16 0)
(3 -1.52553e-16 0)
(3 1.70999e-16 0)
(3 2.90704e-16 0)
(3 -2.62639e-16 0)
(3 -1.85988e-16 0)
(3 -2.68719e-16 0)
(3 -1.33946e-16 0)
(3 -8.10073e-17 0)
(3 -7.02157e-18 0)
(3 -2.24642e-16 0)
(3 -3.57541e-16 0)
(3 9.04178e-16 0)
(3 8.49581e-17 0)
(3 -2.05868e-16 0)
(3 -3.25705e-16 0)
(2.12433 1.09522 0)
(2.5874 0.528011 0)
(3 -1.36837e-11 0)
(3 3.91973e-14 0)
(3 8.59889e-17 0)
(3 -1.57257e-16 0)
(3 4.06816e-17 0)
(3 3.6025e-16 0)
(3 -5.6367e-19 0)
(3 -9.5253e-17 0)
(3 -3.88156e-17 0)
(3 -9.98927e-17 0)
(3 1.77731e-16 0)
(3 -5.42595e-16 0)
(3 -7.78883e-16 0)
(3 -4.23581e-16 0)
(3 1.60185e-16 0)
(3 6.56122e-17 0)
(3 -8.08253e-17 0)
(3 -5.09226e-16 0)
(2.11642 1.09641 0)
(2.59562 0.518791 0)
(3 1.79858e-16 0)
(3 1.14624e-16 0)
(3 2.91955e-16 0)
(3 -9.89411e-17 0)
(3 -2.1928e-16 0)
(3 -1.52284e-16 0)
(3 -2.92731e-16 0)
(3 4.96076e-17 0)
(3 3.95011e-16 0)
(3 3.302e-16 0)
(3 5.54767e-16 0)
(3 -3.39793e-17 0)
(3 -2.29322e-16 0)
(3 -2.11522e-16 0)
(3 -5.78471e-16 0)
(3 -1.25341e-16 0)
(3 -1.56019e-16 0)
(3 -2.44587e-16 0)
(2.09771 1.1096 0)
(2.58212 0.536504 0)
(3 2.52005e-17 0)
(3 2.2742e-16 0)
(3 3.66679e-16 0)
(3 2.39851e-16 0)
(3 -9.8734e-17 0)
(3 -5.20084e-16 0)
(3 -5.10369e-16 0)
(3 -1.4224e-16 0)
(3 1.06234e-16 0)
(3 3.36479e-17 0)
(3 7.82331e-17 0)
(3 1.06397e-16 0)
(3 -5.0341e-17 0)
(3 -1.78108e-16 0)
(3 1.85756e-16 0)
(3 -4.576e-17 0)
(3 -4.68998e-17 0)
(3 -1.22089e-18 0)
(2.07791 1.13654 0)
(2.554 0.571863 0)
(3 8.24577e-17 0)
(3 1.38762e-16 0)
(3 4.42409e-18 0)
(3 1.77508e-16 0)
(3 1.29548e-16 0)
(3 -5.07467e-16 0)
(3 -5.37186e-16 0)
(3 -4.76457e-16 0)
(3 4.4962e-16 0)
(3 3.96042e-16 0)
(3 3.4425e-16 0)
(3 2.57138e-16 0)
(3 3.3197e-17 0)
(3 -3.12359e-16 0)
(3 4.42147e-17 0)
(3 -1.86566e-16 0)
(3 -2.42404e-16 0)
(3 -3.01072e-16 0)
(2.05583 1.16255 0)
(2.52205 0.610027 0)
(3 1.72922e-16 0)
(3 1.61396e-16 0)
(3 -2.05755e-16 0)
(3 -5.27568e-19 0)
(3 2.73704e-16 0)
(3 -2.51763e-16 0)
(3 -1.62602e-17 0)
(3 -4.06551e-16 0)
(3 -3.84669e-16 0)
(3 2.88902e-16 0)
(3 4.02287e-16 0)
(3 3.20695e-16 0)
(3 -3.7639e-17 0)
(3 -2.63474e-16 0)
(3 -6.93375e-17 0)
(3 -2.26914e-16 0)
(3 -3.79503e-16 0)
(3 -3.47402e-16 0)
(2.02038 1.18213 0)
(2.48117 0.651112 0)
(3 4.40244e-16 0)
(3 5.93727e-16 0)
(3 3.26727e-16 0)
(3 -2.07338e-16 0)
(3 3.9474e-16 0)
(3 -1.57372e-16 0)
(3 6.06136e-17 0)
(3 -2.44345e-16 0)
(3 -1.21423e-16 0)
(3 2.18599e-16 0)
(3 2.95584e-16 0)
(3 4.57354e-16 0)
(3 3.10775e-16 0)
(3 -1.60094e-16 0)
(3 -3.96998e-16 0)
(3 -1.11773e-16 0)
(3 -3.02844e-16 0)
(3 2.08601e-17 0)
(1.98424 1.19915 0)
(2.43558 0.683286 0)
(3 4.01652e-16 0)
(3 6.76381e-16 0)
(3 7.13491e-16 0)
(3 2.44669e-16 0)
(3 2.11467e-16 0)
(3 5.68557e-19 0)
(3 5.2593e-16 0)
(3 2.07415e-16 0)
(3 7.21096e-18 0)
(3 2.13655e-16 0)
(3 4.44168e-16 0)
(3 6.48795e-16 0)
(3 9.03558e-16 0)
(3 8.41775e-16 0)
(3 4.26012e-16 0)
(3 3.64115e-16 0)
(3 4.52369e-17 0)
(3 -5.48107e-17 0)
(1.93379 1.19 0)
(2.40206 0.679639 0)
(3 5.15863e-16 0)
(3 7.11899e-16 0)
(3 7.48031e-16 0)
(3 4.32745e-16 0)
(3 2.03841e-16 0)
(3 1.92706e-16 0)
(3 3.81251e-16 0)
(3 3.54344e-16 0)
(3 1.66045e-16 0)
(3 -4.7822e-17 0)
(3 -3.11365e-16 0)
(3 -3.13674e-16 0)
(3 4.35714e-18 0)
(3 1.63486e-16 0)
(3 4.71895e-17 0)
(3 1.5709e-16 0)
(3 1.14965e-16 0)
(3 4.28747e-17 0)
(1.89658 1.12664 0)
(2.41372 0.587682 0)
(3 -4.01418e-16 0)
(3 3.42666e-16 0)
(3 4.05859e-16 0)
(3 1.96845e-16 0)
(3 -2.22703e-16 0)
(3 -3.68712e-17 0)
(3 4.16587e-16 0)
(3 4.17998e-16 0)
(3 3.37588e-16 0)
(3 3.85431e-16 0)
(3 -2.14542e-16 0)
(3 -6.90057e-16 0)
(3 -8.21517e-16 0)
(3 -6.52607e-16 0)
(3 -7.02946e-16 0)
(3 -4.91738e-16 0)
(3 -2.04607e-16 0)
(3 -8.1704e-18 0)
(1.90682 1.00995 0)
(2.56222 0.384965 0)
(3 -4.7912e-16 0)
(3 -5.6098e-16 0)
(3 -9.5563e-16 0)
(3 -1.29737e-15 0)
(3 -1.35129e-15 0)
(3 -8.02759e-16 0)
(3 -5.02927e-16 0)
(3 -3.26458e-16 0)
(3 2.94272e-16 0)
(3 1.71937e-16 0)
(3 -7.56605e-17 0)
(3 -1.54087e-16 0)
(3 -3.8592e-16 0)
(3 -5.3122e-16 0)
(3 -5.33552e-16 0)
(3 -2.8997e-16 0)
(3 -3.15642e-16 0)
(3 -4.54179e-16 0)
(2.0105 0.844033 0)
(2.80171 0.152093 0)
(3 1.13639e-16 0)
(3 3.57754e-16 0)
(3 6.19896e-16 0)
(3 7.45901e-16 0)
(3 4.84007e-17 0)
(3 -5.74518e-16 0)
(3 -5.26232e-16 0)
(3 -2.77382e-16 0)
(3 -4.32932e-17 0)
(3 6.38236e-16 0)
(3 9.11187e-16 0)
(3 6.20826e-16 0)
(3 2.90435e-16 0)
(3 2.63351e-16 0)
(3 2.21063e-16 0)
(3 2.1212e-16 0)
(3 4.01784e-16 0)
(3 2.69926e-16 0)
(2.16027 0.631264 0)
(2.99383 0.000223992 0)
(3 1.00411e-15 0)
(3 -2.49023e-16 0)
(3 -3.8221e-16 0)
(3 -1.3072e-16 0)
(3 -8.58003e-17 0)
(3 -4.38402e-16 0)
(3 -7.63718e-16 0)
(3 -7.59884e-16 0)
(3 -8.67462e-18 0)
(3 4.03748e-16 0)
(3 7.6073e-16 0)
(3 7.17728e-16 0)
(3 6.75395e-16 0)
(3 9.14877e-16 0)
(3 6.3201e-16 0)
(3 4.98914e-16 0)
(3 5.58446e-16 0)
(3 6.77822e-16 0)
(2.07243 0.374738 0)
(2.99952 -0.000118613 0)
(3 4.96076e-16 0)
(3 1.88049e-16 0)
(3 4.6939e-17 0)
(3 1.68785e-16 0)
(3 1.77767e-17 0)
(3 2.158e-16 0)
(3 1.43964e-17 0)
(3 -3.84889e-16 0)
(3 -3.95824e-16 0)
(3 -9.02671e-18 0)
(3 2.12942e-16 0)
(3 3.50643e-16 0)
(3 3.47849e-16 0)
(3 5.71012e-16 0)
(3 6.99596e-16 0)
(3 6.43384e-16 0)
(3 2.88741e-16 0)
(3 1.39658e-16 0)
(2.07243 -0.374738 0)
(2.99952 0.000118613 0)
(3 -4.68264e-16 0)
(3 4.38139e-16 0)
(3 4.14466e-16 0)
(3 3.24691e-16 0)
(3 6.57262e-16 0)
(3 8.89028e-16 0)
(3 7.95794e-16 0)
(3 7.56209e-17 0)
(3 -7.54547e-16 0)
(3 -8.4375e-16 0)
(3 -5.83592e-16 0)
(3 -1.41151e-16 0)
(3 5.32127e-18 0)
(3 4.37591e-18 0)
(3 -3.33217e-17 0)
(3 -1.02212e-16 0)
(3 -2.69777e-16 0)
(3 -2.93459e-16 0)
(2.16027 -0.631264 0)
(2.99383 -0.000223992 0)
(3 2.21206e-16 0)
(3 2.78751e-16 0)
(3 3.49538e-16 0)
(3 1.81612e-16 0)
(3 5.41393e-16 0)
(3 6.27887e-16 0)
(3 -4.69253e-18 0)
(3 -3.14546e-16 0)
(3 -1.98196e-16 0)
(3 -2.01462e-16 0)
(3 -2.94727e-16 0)
(3 -2.95663e-16 0)
(3 -1.84204e-16 0)
(3 -1.32341e-16 0)
(3 -1.65534e-16 0)
(3 -3.29888e-16 0)
(3 -2.294e-16 0)
(3 -5.77581e-17 0)
(2.0105 -0.844033 0)
(2.80171 -0.152093 0)
(3 3.71168e-16 0)
(3 1.02662e-15 0)
(3 8.42409e-16 0)
(3 5.97644e-16 0)
(3 5.69805e-16 0)
(3 2.85466e-16 0)
(3 1.70687e-16 0)
(3 3.78447e-16 0)
(3 2.87686e-16 0)
(3 -2.14501e-18 0)
(3 -1.82304e-16 0)
(3 1.94893e-16 0)
(3 4.88718e-16 0)
(3 2.9272e-16 0)
(3 -1.26033e-17 0)
(3 -4.7336e-17 0)
(3 9.58945e-17 0)
(3 1.65548e-17 0)
(1.90682 -1.00995 0)
(2.56222 -0.384965 0)
(3 -5.98364e-16 0)
(3 -4.24263e-16 0)
(3 7.00382e-17 0)
(3 -1.38801e-16 0)
(3 -3.92265e-16 0)
(3 -5.33979e-16 0)
(3 -9.17105e-16 0)
(3 -9.02535e-16 0)
(3 -4.56159e-16 0)
(3 -1.46771e-17 0)
(3 3.15279e-16 0)
(3 4.35879e-16 0)
(3 4.55063e-16 0)
(3 3.63508e-16 0)
(3 6.47585e-17 0)
(3 -1.9806e-16 0)
(3 -3.33647e-16 0)
(3 -3.00549e-16 0)
(1.89658 -1.12664 0)
(2.41372 -0.587682 0)
(3 -5.65155e-16 0)
(3 -2.42515e-16 0)
(3 -2.80826e-16 0)
(3 -6.11355e-16 0)
(3 -4.1574e-16 0)
(3 -4.00216e-16 0)
(3 -4.42196e-16 0)
(3 -2.51108e-16 0)
(3 -2.36597e-16 0)
(3 -3.5219e-16 0)
(3 -4.12616e-16 0)
(3 -3.19787e-16 0)
(3 1.65123e-16 0)
(3 2.60584e-16 0)
(3 5.21093e-17 0)
(3 -2.51068e-16 0)
(3 -2.93397e-16 0)
(3 -1.74904e-16 0)
(1.93379 -1.19 0)
(2.40206 -0.679639 0)
(3 -5.92013e-16 0)
(3 -3.85485e-16 0)
(3 -7.18443e-16 0)
(3 -8.50342e-16 0)
(3 -4.92501e-16 0)
(3 -3.01895e-16 0)
(3 -2.98168e-16 0)
(3 1.44142e-16 0)
(3 -1.8525e-16 0)
(3 -3.66694e-16 0)
(3 -7.56518e-16 0)
(3 -7.94719e-16 0)
(3 -6.29939e-16 0)
(3 -5.24863e-16 0)
(3 -3.42127e-16 0)
(3 -4.66294e-16 0)
(3 -4.17696e-16 0)
(3 -2.11073e-16 0)
(1.98424 -1.19915 0)
(2.43558 -0.683286 0)
(3 -1.38798e-16 0)
(3 -1.25037e-16 0)
(3 -1.44641e-16 0)
(3 2.53681e-16 0)
(3 2.98334e-16 0)
(3 6.12642e-17 0)
(3 -1.58819e-18 0)
(3 1.96048e-16 0)
(3 1.37118e-16 0)
(3 3.66148e-16 0)
(3 2.86644e-16 0)
(3 1.32626e-16 0)
(3 -2.00268e-16 0)
(3 2.58689e-16 0)
(3 2.18395e-16 0)
(3 1.54579e-16 0)
(3 9.11834e-17 0)
(3 1.5038e-16 0)
(2.02038 -1.18213 0)
(2.48117 -0.651112 0)
(3 -3.70713e-16 0)
(3 1.97808e-18 0)
(3 -2.21388e-16 0)
(3 -1.83233e-16 0)
(3 -4.24691e-16 0)
(3 -2.38445e-16 0)
(3 -1.45093e-17 0)
(3 2.82237e-16 0)
(3 2.31924e-16 0)
(3 5.21381e-16 0)
(3 1.2598e-16 0)
(3 -1.15437e-16 0)
(3 2.49902e-16 0)
(3 6.82881e-16 0)
(3 3.65242e-16 0)
(3 4.54766e-16 0)
(3 1.05316e-16 0)
(3 -1.35787e-17 0)
(2.05583 -1.16255 0)
(2.52205 -0.610027 0)
(3 -1.42566e-16 0)
(3 -1.41996e-17 0)
(3 2.22854e-16 0)
(3 2.55812e-16 0)
(3 2.00468e-18 0)
(3 1.83869e-16 0)
(3 4.05177e-17 0)
(3 3.60703e-16 0)
(3 2.47945e-16 0)
(3 2.03325e-16 0)
(3 5.14174e-18 0)
(3 2.35403e-17 0)
(3 -3.48207e-16 0)
(3 2.21574e-17 0)
(3 2.8637e-16 0)
(3 2.83739e-16 0)
(3 -2.50751e-16 0)
(3 -4.4073e-16 0)
(2.07791 -1.13654 0)
(2.554 -0.571863 0)
(3 -1.17467e-16 0)
(3 -3.81675e-17 0)
(3 -1.42439e-16 0)
(3 -1.97488e-16 0)
(3 1.21865e-17 0)
(3 5.63001e-16 0)
(3 2.61028e-16 0)
(3 1.56962e-16 0)
(3 9.63424e-17 0)
(3 1.76039e-16 0)
(3 -4.83308e-16 0)
(3 -1.8294e-16 0)
(3 -1.61483e-16 0)
(3 3.3107e-16 0)
(3 1.68914e-16 0)
(3 -7.82431e-17 0)
(3 -2.64093e-16 0)
(3 -5.80735e-16 0)
(2.09771 -1.1096 0)
(2.58212 -0.536504 0)
(3 1.12743e-15 0)
(3 -2.24638e-16 0)
(3 -2.40901e-16 0)
(3 1.56753e-16 0)
(3 3.25968e-16 0)
(3 5.22391e-16 0)
(3 9.81878e-17 0)
(3 -1.37069e-16 0)
(3 -4.46751e-17 0)
(3 -1.81777e-16 0)
(3 -4.28629e-16 0)
(3 5.7713e-18 0)
(3 -3.2182e-16 0)
(3 -1.23047e-16 0)
(3 -1.25965e-16 0)
(3 1.77e-16 0)
(3 -7.4626e-17 0)
(3 -1.32479e-16 0)
(2.11642 -1.09641 0)
(2.59562 -0.518791 0)
(3 -5.26265e-16 0)
(3 -3.03519e-17 0)
(3 9.72902e-17 0)
(3 4.00086e-16 0)
(3 -1.0148e-17 0)
(3 -9.19894e-17 0)
(3 2.86041e-16 0)
(3 -6.09759e-18 0)
(3 -1.03651e-16 0)
(3 -2.70114e-16 0)
(3 -2.99497e-16 0)
(3 1.93151e-17 0)
(3 1.58413e-16 0)
(3 -5.33609e-17 0)
(3 5.21914e-16 0)
(3 -3.44003e-18 0)
(3 -1.527e-16 0)
(3 -1.59248e-16 0)
(2.12433 -1.09522 0)
(2.5874 -0.528011 0)
(3 1.36833e-11 0)
(3 -3.93321e-14 0)
(3 2.3574e-16 0)
(3 1.98303e-16 0)
(3 -3.69376e-16 0)
(3 -4.85509e-16 0)
(3 2.98381e-16 0)
(3 7.64284e-17 0)
(3 -3.27072e-17 0)
(3 -2.73948e-16 0)
(3 -1.06406e-16 0)
(3 4.57759e-17 0)
(3 4.42105e-16 0)
(3 2.63584e-17 0)
(3 -2.6807e-16 0)
(3 -2.18716e-16 0)
(3 -4.15964e-16 0)
(3 -3.08008e-16 0)
(2.12175 -1.10086 0)
(2.5613 -0.560543 0)
(3 -5.67953e-12 0)
(3 3.81149e-14 0)
(3 -3.17138e-16 0)
(3 -4.4546e-16 0)
(3 -4.77755e-16 0)
(3 -1.55385e-16 0)
(3 9.91286e-17 0)
(3 5.88542e-17 0)
(3 -1.55135e-16 0)
(3 1.69088e-16 0)
(3 -6.24249e-17 0)
(3 -1.1914e-17 0)
(3 1.51447e-16 0)
(3 2.11784e-17 0)
(3 -4.60797e-16 0)
(3 -6.28007e-16 0)
(3 -3.81694e-16 0)
(3 1.74092e-16 0)
(2.11165 -1.11157 0)
(2.52093 -0.611393 0)
(3 -2.28822e-09 0)
(3 -2.88137e-12 0)
(3 1.91291e-14 0)
(3 3.27646e-16 0)
(3 -1.43914e-16 0)
(3 2.37133e-16 0)
(3 2.7949e-16 0)
(3 2.10127e-16 0)
(3 2.07355e-16 0)
(3 2.27263e-16 0)
(3 -2.43171e-16 0)
(3 1.505e-16 0)
(3 -1.53292e-16 0)
(3 2.45923e-16 0)
(3 -3.85155e-17 0)
(3 -5.51838e-16 0)
(3 -1.86553e-16 0)
(3 -1.40315e-16 0)
(2.09537 -1.12953 0)
(2.468 -0.678432 0)
(3.00001 2.33922e-07 0)
(3 -3.06403e-10 0)
(3 8.80551e-12 0)
(3 -8.35648e-14 0)
(3 6.78237e-16 0)
(3 6.97478e-16 0)
(3 -5.11679e-17 0)
(3 1.26507e-16 0)
(3 1.87123e-16 0)
(3 -4.2602e-16 0)
(3 8.82035e-17 0)
(3 5.6543e-17 0)
(3 -3.85381e-16 0)
(3 3.59961e-16 0)
(3 -7.05236e-16 0)
(3 1.97861e-16 0)
(3 -4.20268e-16 0)
(3 -1.37121e-16 0)
(2.07541 -1.15081 0)
(2.39189 -0.777251 0)
(2.9998 -6.8397e-05 0)
(3 2.25779e-07 0)
(3 1.28158e-09 0)
(3 -3.81291e-13 0)
(3 -1.09511e-13 0)
(3 4.58374e-15 0)
(3 -1.73038e-15 0)
(3 2.20932e-16 0)
(3 -5.64084e-16 0)
(3 -4.6197e-16 0)
(3 1.65449e-16 0)
(3 1.44264e-16 0)
(3 -7.45191e-16 0)
(3 6.88885e-16 0)
(3 -3.1492e-16 0)
(3 -1.89834e-16 0)
(3 -4.10493e-16 0)
(3 -8.07486e-17 0)
(2.04524 -1.18591 0)
(2.32509 -0.862931 0)
(3.0008 0.000333033 0)
(2.99999 -1.56674e-06 0)
(3 -2.1931e-09 0)
(3 -4.578e-11 0)
(3 2.22619e-12 0)
(3 -5.48708e-13 0)
(3 1.94496e-13 0)
(3 1.789e-16 0)
(3 -4.84217e-16 0)
(3 5.10383e-16 0)
(3 7.49254e-17 0)
(3 -2.10275e-16 0)
(3 -1.08104e-15 0)
(3 7.78087e-16 0)
(3 -1.38885e-16 0)
(3 -3.93435e-16 0)
(3 6.2238e-17 0)
(3 -1.2532e-16 0)
(2.03159 -1.22476 0)
(2.16061 -1.10121 0)
(2.99955 -0.000220426 0)
(3.00001 4.83585e-06 0)
(3 1.94142e-07 0)
(3 -1.86825e-08 0)
(3 -3.21199e-10 0)
(3 1.13039e-10 0)
(3 -5.14889e-11 0)
(3 -3.16107e-16 0)
(3 -1.88383e-16 0)
(3 3.53471e-16 0)
(3 1.01093e-16 0)
(3 -3.95235e-16 0)
(3 -5.59657e-16 0)
(3 2.10155e-16 0)
(3 -1.63416e-16 0)
(3 1.01813e-16 0)
(3 9.87206e-17 0)
(3 -8.06178e-17 0)
(1.9705 -1.26872 0)
(2.05551 -1.01804 0)
(3.73636 1.02322 0)
(2.99977 -2.12029e-05 0)
(3.00035 -7.00294e-05 0)
(2.9999 2.86111e-05 0)
(3 -1.9507e-08 0)
(3 -2.39051e-08 0)
(3 1.70797e-08 0)
(3 -3.59721e-16 0)
(3 5.33061e-16 0)
(3 1.184e-15 0)
(3 -7.53738e-16 0)
(3 -5.4827e-17 0)
(3 -6.28506e-16 0)
(3 4.34776e-16 0)
(3 1.06976e-16 0)
(3 -3.85345e-16 0)
(3 1.4335e-17 0)
(3 1.29715e-16 0)
(2.27685 -1.22463 0)
(2.30382 -1.16676 0)
(2.34539 -1.08566 0)
(2.45786 -0.863629 0)
(2.72868 -0.461879 0)
(2.95121 -0.119864 0)
(2.99975 -0.0142449 0)
(3.00019 -0.000621933 0)
(3 2.26627e-05 0)
(3 8.06603e-06 0)
(3 1.53861e-06 0)
(3 6.37071e-08 0)
(3 -4.05822e-09 0)
(3 -2.29972e-09 0)
(3 -8.56145e-10 0)
(3 -6.62942e-11 0)
(3 -6.95888e-13 0)
(3 -2.84309e-15 0)
(3 1.38861e-16 0)
(3 1.13395e-16 0)
(1.36064 -0.646969 0)
(2.45404 -1.05306 0)
(2.48206 -0.969197 0)
(2.52888 -0.902236 0)
(2.61049 -0.787446 0)
(2.76489 -0.557744 0)
(2.92558 -0.250647 0)
(2.99228 -0.051529 0)
(2.99967 -0.00518271 0)
(2.99999 -0.000197022 0)
(3 -7.79343e-07 0)
(3 2.50976e-07 0)
(3 2.77934e-07 0)
(3 8.80003e-08 0)
(3 5.68815e-09 0)
(3 -1.85743e-11 0)
(3 -7.35322e-13 0)
(3 1.22052e-14 0)
(3 2.30914e-15 0)
(3 -7.83289e-17 0)
(0.9489 0.0503296 0)
(2.39354 -0.523457 0)
(2.61748 -0.608914 0)
(2.60202 -0.757398 0)
(2.7041 -0.688331 0)
(2.77566 -0.63264 0)
(2.89772 -0.481433 0)
(2.97383 -0.268882 0)
(2.99796 -0.0744101 0)
(2.99986 -0.00913433 0)
(3 -0.000399038 0)
(3.00001 1.50559e-06 0)
(3 5.45028e-06 0)
(3 3.39828e-06 0)
(3 6.43891e-07 0)
(3 2.38356e-08 0)
(3 1.24419e-10 0)
(3 2.83206e-13 0)
(3 1.26095e-15 0)
(3 -2.35923e-16 0)
(0.716936 0.186653 0)
(2.27939 -0.646157 0)
(2.66145 0.009991 0)
(2.76069 -0.26055 0)
(2.78189 -0.462423 0)
(2.8753 -0.507079 0)
(2.9348 -0.451058 0)
(3.01363 -0.324513 0)
(3.02064 -0.189048 0)
(3.00695 -0.0559428 0)
(3.00092 -0.0062099 0)
(3.00009 -0.000129522 0)
(3.00002 4.69393e-05 0)
(3 3.27036e-05 0)
(3 8.16424e-06 0)
(3 4.56481e-07 0)
(3 4.22221e-09 0)
(3 1.19433e-11 0)
(3 2.44182e-14 0)
(3 6.43928e-17 0)
(0.717101 0.294252 0)
(1.44613 0.673226 0)
(2.69019 0.330556 0)
(2.90233 0.343051 0)
(2.90572 -0.0781312 0)
(2.98366 -0.288108 0)
(3.03182 -0.321676 0)
(3.05592 -0.268529 0)
(3.0691 -0.172767 0)
(3.03835 -0.0794959 0)
(3.00715 -0.0146554 0)
(3.00034 -0.000229588 0)
(3.00003 0.000242752 0)
(2.99998 0.00015468 0)
(2.99999 3.06324e-05 0)
(3 9.13033e-07 0)
(3 3.93026e-09 0)
(3 8.18309e-12 0)
(3 1.50255e-14 0)
(3 -5.90451e-17 0)
(0.683258 0.967253 0)
(1.40837 1.31158 0)
(2.35623 0.798483 0)
(3.09403 0.33472 0)
(3.04247 0.0897493 0)
(3.09028 -0.0334981 0)
(3.14812 -0.0871621 0)
(3.12189 -0.126602 0)
(3.10053 -0.0990234 0)
(3.04993 -0.0563621 0)
(3.00872 -0.0109877 0)
(3.00022 0.00092772 0)
(2.99979 0.000963614 0)
(2.99983 0.000357988 0)
(2.99999 2.38179e-05 0)
(3 2.43418e-07 0)
(3 8.35626e-10 0)
(3 2.01388e-12 0)
(3 3.21489e-15 0)
(3 -7.69451e-16 0)
(0.938664 1.14449 0)
(1.47943 1.35119 0)
(2.21883 0.856461 0)
(2.56062 1.29662 0)
(3.08741 0.858728 0)
(3.24322 0.562395 0)
(3.27813 0.356485 0)
(3.19494 0.145093 0)
(3.10413 0.0313456 0)
(3.05267 0.0175907 0)
(3.00517 0.00953328 0)
(2.99815 0.0058774 0)
(2.99869 0.00175882 0)
(2.99988 0.000142729 0)
(3 3.59727e-06 0)
(3 2.87642e-08 0)
(3 1.10745e-10 0)
(3 2.93797e-13 0)
(3 -6.88159e-15 0)
(3 -2.74531e-15 0)
(0.960823 1.13752 0)
(1.33802 1.39163 0)
(2.06139 1.09098 0)
(2.55899 1.61699 0)
(2.98511 1.45819 0)
(3.17106 1.11961 0)
(3.22898 0.74216 0)
(3.14191 0.406264 0)
(3.04292 0.209437 0)
(2.9912 0.106602 0)
(2.98125 0.0422836 0)
(2.99349 0.00880374 0)
(2.99933 0.000678317 0)
(2.99998 1.437e-05 0)
(3 1.11659e-07 0)
(3 1.49076e-09 0)
(3 1.00738e-11 0)
(3 -3.99082e-14 0)
(3 -2.99585e-14 0)
(3 -4.01808e-15 0)
(0.921931 1.07585 0)
(1.1484 1.44524 0)
(1.92307 1.31024 0)
(2.3757 1.76457 0)
(2.742 1.53987 0)
(2.93057 1.23868 0)
(2.9759 0.877672 0)
(2.91345 0.56162 0)
(2.87145 0.343333 0)
(2.89441 0.177273 0)
(2.956 0.0578761 0)
(2.9933 0.00790756 0)
(2.99975 0.000282891 0)
(3 2.48292e-06 0)
(3 1.03563e-08 0)
(3 4.06086e-11 0)
(3 1.77272e-13 0)
(3 -5.73255e-14 0)
(3 -2.01769e-14 0)
(3 -1.08764e-15 0)
(0.876954 0.967371 0)
(1.08942 1.41476 0)
(1.74596 1.39707 0)
(2.2078 1.6664 0)
(2.48825 1.47491 0)
(2.60822 1.215 0)
(2.62483 0.910942 0)
(2.64285 0.639962 0)
(2.72098 0.401758 0)
(2.84296 0.196413 0)
(2.94906 0.0588768 0)
(2.99349 0.0073431 0)
(2.99979 0.00024517 0)
(3 2.24274e-06 0)
(3 1.0392e-08 0)
(3 2.86674e-11 0)
(3 -7.06897e-14 0)
(3 -3.06488e-14 0)
(3 -5.73656e-15 0)
(3 -2.80088e-16 0)
(0.831577 0.873912 0)
(1.03624 1.34698 0)
(1.67165 1.38124 0)
(2.03608 1.5426 0)
(2.25221 1.40199 0)
(2.35806 1.18337 0)
(2.4338 0.921554 0)
(2.5399 0.658366 0)
(2.67851 0.410274 0)
(2.82785 0.19964 0)
(2.94444 0.0604059 0)
(2.99285 0.00765274 0)
(2.99977 0.000258462 0)
(3 2.33575e-06 0)
(3 1.14011e-08 0)
(3 7.51704e-11 0)
(3 3.89535e-12 0)
(3 2.09903e-13 0)
(3 4.49263e-15 0)
(3 -1.01765e-16 0)
(0.80121 0.82921 0)
(0.985286 1.29367 0)
(1.59614 1.33458 0)
(1.93991 1.46903 0)
(2.1617 1.38415 0)
(2.29006 1.19693 0)
(2.39625 0.947584 0)
(2.5174 0.683109 0)
(2.66066 0.43164 0)
(2.81252 0.216723 0)
(2.93491 0.0702045 0)
(2.99039 0.0101326 0)
(2.99962 0.000413553 0)
(3 4.37168e-06 0)
(3 2.09739e-08 0)
(3 9.99676e-10 0)
(3 9.79462e-11 0)
(3 4.78752e-12 0)
(3 8.46153e-14 0)
(3 4.97803e-16 0)
(0.777508 0.817246 0)
(0.945455 1.27762 0)
(1.54631 1.31256 0)
(1.89589 1.47056 0)
(2.13269 1.40631 0)
(2.27423 1.23248 0)
(2.3848 0.987837 0)
(2.50282 0.724097 0)
(2.63991 0.471058 0)
(2.78817 0.250566 0)
(2.91637 0.0912388 0)
(2.98434 0.0163775 0)
(2.99914 0.000918048 0)
(2.99999 1.27844e-05 0)
(3 8.65721e-08 0)
(3 6.24687e-09 0)
(3 2.624e-09 0)
(3 1.57048e-09 0)
(3 3.03849e-10 0)
(3 1.20041e-11 0)
(0.760478 0.818232 0)
(0.917479 1.26433 0)
(1.51055 1.28572 0)
(1.86562 1.4542 0)
(2.11446 1.40928 0)
(2.26255 1.26029 0)
(2.37206 1.03445 0)
(2.48243 0.780702 0)
(2.60915 0.530191 0)
(2.75025 0.304704 0)
(2.88394 0.128889 0)
(2.97065 0.0305416 0)
(2.99744 0.00264438 0)
(2.99995 6.03347e-05 0)
(3 2.25059e-06 0)
(3 4.86659e-07 0)
(3 9.98101e-08 0)
(3 1.3904e-08 0)
(3 2.3622e-09 0)
(3 2.87978e-10 0)
(0.74834 0.837631 0)
(0.889861 1.28848 0)
(1.46905 1.29519 0)
(1.81576 1.48605 0)
(2.07689 1.45914 0)
(2.23604 1.33163 0)
(2.34834 1.11834 0)
(2.45192 0.868751 0)
(2.56654 0.617174 0)
(2.69733 0.385039 0)
(2.8333 0.190729 0)