/*--------------------------------*- C++ -*----------------------------------*\
  =========                 |
  \\      /  F ield         | OpenFOAM: The Open Source CFD Toolbox
   \\    /   O peration     | Website:  https://openfoam.org
    \\  /    A nd           | Version:  7
     \\/     M anipulation  |
\*---------------------------------------------------------------------------*/
FoamFile
{
    version     2.0;
    format      ascii;
    class       volScalarField;
    location    "1.4";
    object      p;
}
// * * * * * * * * * * * * * * * * * * * * * * * * * * * * * * * * * * * * * //

dimensions      [1 -1 -2 0 0 0 0];

internalField   nonuniform List<scalar> 
3700
(
0.0890564
0.166384
0.210121
0.257215
0.292725
0.328259
0.370761
0.398252
0.40913
0.41475
0.445567
0.467509
0.471985
0.477346
0.489248
0.502136
0.507795
0.513116
0.526609
0.527981
0.0535749
0.0749875
0.100703
0.124648
0.132681
0.13622
0.140464
0.136132
0.115482
0.111258
0.122316
0.134627
0.149189
0.169435
0.188401
0.196096
0.193923
0.194437
0.200367
0.196477
0.0494438
0.0656038
0.0807973
0.0786278
0.0680643
0.0571591
0.0538261
0.049481
0.0503573
0.0570584
0.0669994
0.0782758
0.0916058
0.104662
0.110915
0.112994
0.114471
0.115458
0.116833
0.120188
0.0554029
0.0703724
0.0772061
0.0700602
0.0615922
0.0608145
0.0643157
0.0586344
0.0596322
0.0665672
0.0717093
0.0831739
0.0994485
0.118955
0.135804
0.149651
0.161497
0.167783
0.171219
0.171282
0.0627673
0.0691002
0.0683954
0.0606501
0.0590707
0.0635331
0.0694605
0.078698
0.0900234
0.104973
0.0980416
0.100254
0.10408
0.121167
0.142762
0.165299
0.186684
0.2059
0.224642
0.240775
0.0753819
0.0650309
0.0589828
0.0526607
0.053118
0.0627422
0.0681569
0.086552
0.114247
0.133879
0.143714
0.152623
0.147587
0.151344
0.159104
0.178239
0.204237
0.237764
0.270476
0.323773
0.0876018
0.0590242
0.0499899
0.0486386
0.0497067
0.0582505
0.0653165
0.086938
0.121984
0.151131
0.180994
0.197143
0.21349
0.227793
0.237132
0.24961
0.263712
0.28472
0.319546
0.405132
0.0904498
0.0520809
0.0451969
0.0475546
0.0505558
0.0590756
0.0674452
0.0871249
0.119034
0.157291
0.200491
0.228022
0.265889
0.297162
0.32699
0.357213
0.383502
0.409328
0.43329
0.525062
0.0871996
0.0475626
0.0442032
0.0513308
0.0620725
0.0734251
0.0899242
0.11293
0.128728
0.159427
0.205532
0.247623
0.304745
0.352516
0.402171
0.45742
0.511979
0.568933
0.605115
0.72231
0.0806862
0.0433044
0.0436118
0.0567674
0.0700385
0.0862643
0.124235
0.166455
0.196605
0.234836
0.262804
0.309923
0.367665
0.426879
0.48758
0.564896
0.658387
0.749726
0.839838
0.962427
0.0646981
0.0367545
0.0394588
0.0499994
0.0653513
0.0888692
0.152528
0.216364
0.283185
0.357544
0.425042
0.493351
0.554408
0.616572
0.670592
0.744565
0.852666
0.969151
1.17154
1.1554
0.0473115
0.0298454
0.029309
0.0391283
0.0594014
0.0866799
0.163722
0.244421
0.343234
0.462953
0.575912
0.678104
0.782254
0.872142
0.96313
1.06857
1.18674
1.31484
1.54706
1.52047
0.0330761
0.0226378
0.0221895
0.0351551
0.0590439
0.0935178
0.171649
0.267358
0.410616
0.58935
0.754729
0.899784
1.04693
1.17228
1.32826
1.49801
1.66929
1.83767
2.09892
2.08382
0.0241661
0.0170177
0.017659
0.0332589
0.0724846
0.22099
0.378402
0.513516
0.710621
0.92803
1.12254
1.30099
1.47445
1.63889
1.85146
2.08726
2.3306
2.58351
2.795
3.0117
0.0182098
0.0139464
0.015831
0.0585665
0.185848
0.456212
0.674252
0.930286
1.23587
1.52141
1.75129
1.9703
2.18926
2.41872
2.70621
2.98163
3.2544
3.50033
3.65398
3.7835
0.00853497
0.0145972
0.0345859
0.177362
0.441036
0.743887
1.04529
1.45683
1.9202
2.31074
2.59448
2.86268
3.12985
3.42291
3.7477
3.96468
4.09225
4.13727
4.04428
3.91814
0.0059726
0.0302233
0.157882
0.423845
0.890862
1.42137
1.98814
2.5548
3.13839
3.52555
3.76566
4.00354
4.2042
4.36145
4.45505
4.3823
4.16756
3.63558
2.78547
1.89191
0.0266512
0.163121
0.536249
1.18977
2.05853
2.8842
3.58613
4.29561
4.8334
4.84151
4.74053
4.7365
4.6961
4.53096
4.02145
3.06074
2.08254
1.32656
1.01719
0.992853
0.310646
0.857409
1.94765
3.16989
4.19808
4.88674
5.46844
5.9242
5.77828
5.31351
4.86745
4.32572
3.40455
2.33102
1.42616
1.02928
0.989507
0.994991
0.997342
0.999442
2.30496
3.6347
4.883
5.6927
6.21627
6.51274
6.63216
6.27876
4.55662
3.20934
2.36946
1.56401
1.08104
0.987469
0.992895
0.9963
0.99917
0.999974
1.00002
1.00001
6.93899
6.89387
6.83708
6.88538
7.04251
6.88077
5.98667
2.19842
0.670981
1
1
1
1
1
1
1
1
1
1
1
6.9215
6.87829
6.76887
6.68124
6.78601
5.7346
2.58752
1.01211
1
1
1
1
1
1
1
1
1
1
1
1
6.79345
6.85641
6.8345
6.6283
6.29538
3.39975
1.06039
0.998775
1
1
1
1
1
1
1
1
1
1
1
1
6.66639
6.84576
6.8391
6.61579
4.74842
1.39928
0.993615
1.00012
0.999999
1
1
1
1
1
1
1
1
1
1
1
6.53031
6.79962
6.79955
6.06355
2.67513
0.97599
1.00036
0.999994
1
1
1
1
1
1
1
1
1
1
1
1
6.43176
6.74685
6.7523
4.95849
1.4617
1
1
1
1
1
1
1
1
1
1
1
1
1
1
1
6.3887
6.68394
6.68896
3.58762
0.972952
1
1
1
1
1
1
1
1
1
1
1
1
1
1
1
6.51442
6.64251
6.0227
2.0821
1
1
1
1
1
1
1
1
1
1
1
1
1
1
1
1
6.98343
6.71121
4.91902
1.17274
1
1
1
1
1
1
1
1
1
1
1
1
1
1
1
1
7.26196
6.35481
3.47498
0.987795
1
1
1
1
1
1
1
1
1
1
1
1
1
1
1
1
7.46485
6.02043
2.28221
1
1
1
1
1
1
1
1
1
1
1
1
1
1
1
1
1
7.52581
5.36373
1.61545
1
1
1
1
1
1
1
1
1
1
1
1
1
1
1
1
1
7.57197
4.75439
1.15964
1
1
1
1
1
1
1
1
1
1
1
1
1
1
1
1
1
7.38564
3.98691
1.0012
1
1
1
1
1
1
1
1
1
1
1
1
1
1
1
1
1
7.15834
3.20607
1
1
1
1
1
1
1
1
1
1
1
1
1
1
1
1
1
1
6.96846
2.46836
1
1
1
1
1
1
1
1
1
1
1
1
1
1
1
1
1
1
6.60049
1.91344
1
1
1
1
1
1
1
1
1
1
1
1
1
1
1
1
1
1
6.37004
1.39573
1
1
1
1
1
1
1
1
1
1
1
1
1
1
1
1
1
1
5.73215
1.00673
1
1
1
1
1
1
1
1
1
1
1
1
1
1
1
1
1
1
4.622
1.00006
1
1
1
1
1
1
1
1
1
1
1
1
1
1
1
1
1
1
4.622
1.00006
1
1
1
1
1
1
1
1
1
1
1
1
1
1
1
1
1
1
5.73215
1.00673
1
1
1
1
1
1
1
1
1
1
1
1
1
1
1
1
1
1
6.37005
1.39573
1
1
1
1
1
1
1
1
1
1
1
1
1
1
1
1
1
1
6.60049
1.91344
1
1
1
1
1
1
1
1
1
1
1
1
1
1
1
1
1
1
6.96846
2.46836
1
1
1
1
1
1
1
1
1
1
1
1
1
1
1
1
1
1
7.15834
3.20607
1
1
1
1
1
1
1
1
1
1
1
1
1
1
1
1
1
1
7.38564
3.98691
1.0012
1
1
1
1
1
1
1
1
1
1
1
1
1
1
1
1
1
7.57197
4.75439
1.15964
1
1
1
1
1
1
1
1
1
1
1
1
1
1
1
1
1
7.52581
5.36374
1.61545
1
1
1
1
1
1
1
1
1
1
1
1
1
1
1
1
1
7.46485
6.02043
2.28221
1
1
1
1
1
1
1
1
1
1
1
1
1
1
1
1
1
7.26196
6.35481
3.47498
0.987795
1
1
1
1
1
1
1
1
1
1
1
1
1
1
1
1
6.98343
6.71121
4.91902
1.17274
1
1
1
1
1
1
1
1
1
1
1
1
1
1
1
1
6.51442
6.64251
6.02271
2.0821
1
1
1
1
1
1
1
1
1
1
1
1
1
1
1
1
6.3887
6.68393
6.68896
3.58762
0.972953
1
1
1
1
1
1
1
1
1
1
1
1
1
1
1
6.43176
6.74685
6.7523
4.95849
1.46169
1
1
1
1
1
1
1
1
1
1
1
1
1
1
1
6.53031
6.79962
6.79955
6.06356
2.67514
0.97599
1.00036
0.999994
1
1
1
1
1
1
1
1
1
1
1
1
6.66639
6.84576
6.8391
6.61578
4.74839
1.39928
0.993615
1.00012
0.999999
1
1
1
1
1
1
1
1
1
1
1
6.79345
6.85641
6.8345
6.62828
6.2954
3.39975
1.06038
0.998775
1
1
1
1
1
1
1
1
1
1
1
1
6.9215
6.87829
6.76887
6.68124
6.78605
5.73461
2.58753
1.01211
1
1
1
1
1
1
1
1
1
1
1
1
6.939
6.89387
6.83709
6.88537
7.0425
6.88074
5.98665
2.19844
0.670979
1
1
1
1
1
1
1
1
1
1
1
2.30495
3.63476
4.88343
5.69314
6.21618
6.51258
6.63209
6.27871
4.55663
3.2093
2.36942
1.56401
1.08105
0.987471
0.992896
0.996301
0.99917
0.999974
1.00002
1.00001
0.310658
0.856913
1.94603
3.16898
4.19895
4.8874
5.46839
5.92414
5.7783
5.31358
4.86746
4.32568
3.40451
2.33098
1.42613
1.02928
0.989507
0.994991
0.997342
0.999442
0.026726
0.163787
0.538073
1.19049
2.05599
2.88254
3.5861
4.29595
4.83333
4.84138
4.74032
4.73648
4.69602
4.53089
4.02137
3.06068
2.08252
1.32656
1.01719
0.992853
0.00595813
0.0300109
0.156606
0.424546
0.894834
1.42259
1.98727
2.5538
3.13781
3.52535
3.76552
4.00345
4.20421
4.36151
4.4551
4.38234
4.16759
3.6356
2.78548
1.89191
0.00858476
0.0147684
0.0336337
0.175606
0.440511
0.745554
1.04737
1.45819
1.92069
2.31072
2.59431
2.86264
3.12994
3.42304
3.7478
3.96474
4.09228
4.13728
4.04428
3.91814
0.018516
0.0140601
0.0159175
0.0576781
0.183488
0.456049
0.674791
0.930797
1.23625
1.52172
1.7515
1.9704
2.1893
2.41878
2.70628
2.98169
3.25445
3.50035
3.65399
3.78351
0.0245034
0.017186
0.0179171
0.0334488
0.071764
0.219014
0.376861
0.512689
0.710393
0.928069
1.12262
1.30099
1.47441
1.63887
1.85147
2.08727
2.33057
2.58347
2.79497
3.01164
0.0335113
0.0229559
0.0226585
0.0352081
0.0589682
0.0933181
0.171114
0.266799
0.410047
0.588789
0.754297
0.899552
1.0468
1.17217
1.32817
1.49793
1.66919
1.83757
2.09884
2.0838
0.0478773
0.0301907
0.0297137
0.0390207
0.0593393
0.0871311
0.164206
0.244573
0.343007
0.462598
0.575583
0.677882
0.782103
0.872009
0.963003
1.06847
1.18671
1.31487
1.54711
1.52051
0.0652357
0.037005
0.0397848
0.0502199
0.0657084
0.0893988
0.15304
0.216535
0.283191
0.357477
0.424911
0.493201
0.554309
0.616512
0.670539
0.744558
0.852752
0.969275
1.17168
1.1555
0.08096
0.0434753
0.0438327
0.0570199
0.0703869
0.0866107
0.124478
0.166495
0.196694
0.234928
0.262867
0.309908
0.367597
0.426817
0.487547
0.5649
0.658437
0.749764
0.839852
0.962437
0.0872666
0.0477161
0.0443577
0.0514526
0.0622353
0.0732941
0.0898831
0.112968
0.128821
0.159508
0.20557
0.24761
0.304674
0.352426
0.402102
0.457365
0.511932
0.56889
0.605034
0.722175
0.0903886
0.0523142
0.0453853
0.0476512
0.0505778
0.0589255
0.0674137
0.0872991
0.119194
0.15738
0.200503
0.227985
0.26582
0.297088
0.32693
0.357167
0.383448
0.409279
0.433249
0.524971
0.0870021
0.0592423
0.0503684
0.0487756
0.0497058
0.0582091
0.0654198
0.0872057
0.122132
0.151202
0.180991
0.19709
0.213434
0.227756
0.237099
0.249569
0.263644
0.284656
0.319524
0.405139
0.0743872
0.0651753
0.059453
0.0529307
0.0532098
0.062844
0.0682903
0.086769
0.114372
0.133904
0.143703
0.152607
0.147565
0.151311
0.159026
0.178115
0.204128
0.237705
0.270453
0.323775
0.0619137
0.0691943
0.0688465
0.0608968
0.0591433
0.0636144
0.0694906
0.0787587
0.0900588
0.104956
0.0980175
0.100226
0.104035
0.121089
0.142672
0.165216
0.186623
0.205864
0.224623
0.240736
0.0546325
0.070355
0.0777578
0.0704085
0.0616959
0.0607927
0.0642208
0.0586515
0.0596233
0.0664597
0.0715954
0.0830929
0.0993898
0.118891
0.135755
0.149634
0.161502
0.167794
0.171202
0.171241
0.0488375
0.0651058
0.0808988
0.0790106
0.0683575
0.0570857
0.0536598
0.0494057
0.0503614
0.0570465
0.0669728
0.0782475
0.0915843
0.104652
0.110937
0.113017
0.114493
0.115492
0.116839
0.120181
0.053053
0.0733663
0.0980289
0.120659
0.132229
0.135598
0.139872
0.129528
0.114648
0.117845
0.118656
0.130416
0.153913
0.173187
0.180021
0.185898
0.193229
0.195482
0.198958
0.195137
0.0887809
0.164647
0.20874
0.253287
0.290598
0.326933
0.372508
0.39361
0.409146
0.422099
0.438671
0.465196
0.475181
0.477024
0.482978
0.498255
0.511225
0.515182
0.524683
0.528147
0.566196
0.623493
0.67048
0.715322
0.755725
0.760809
0.756495
0.745856
0.717696
0.722914
0.747763
0.797193
0.882981
0.924161
0.896276
0.868005
0.855214
0.859354
0.89758
0.967318
0.278845
0.410097
0.506969
0.581185
0.669227
0.73361
0.75917
0.749664
0.718235
0.709599
0.733441
0.786809
0.867911
0.906654
0.88069
0.855635
0.847175
0.857083
0.897602
0.967366
0.139187
0.163914
0.214471
0.28088
0.380508
0.562315
0.693082
0.730029
0.708527
0.694664
0.71176
0.769067
0.866578
0.910046
0.886431
0.862445
0.852757
0.855069
0.894024
0.966185
0.186256
0.215803
0.228321
0.224458
0.226236
0.266176
0.441303
0.640191
0.685251
0.695041
0.704734
0.756029
0.853675
0.894631
0.876089
0.856417
0.850429
0.859429
0.899587
0.967953
0.234011
0.264101
0.263457
0.258994
0.263726
0.262012
0.265205
0.384197
0.591169
0.654876
0.70461
0.77022
0.848789
0.875071
0.861487
0.846903
0.844813
0.857473
0.900985
0.968675
0.315327
0.32958
0.324159
0.297717
0.293413
0.296688
0.279638
0.274552
0.358668
0.54392
0.662369
0.749832
0.838105
0.86472
0.850621
0.836258
0.834104
0.850677
0.900517
0.969813
0.40489
0.412214
0.390184
0.340647
0.336828
0.336166
0.319394
0.28379
0.286368
0.33985
0.47963
0.64684
0.794377
0.854203
0.840158
0.824012
0.824934
0.851572
0.903722
0.971435
0.521781
0.509922
0.473878
0.398037
0.371636
0.373884
0.356132
0.315921
0.303577
0.307318
0.327813
0.392259
0.525145
0.71502
0.799941
0.806921
0.817669
0.850369
0.906297
0.973374
0.673531
0.621936
0.564101
0.464992
0.425723
0.421916
0.397154
0.353479
0.333129
0.335118
0.341044
0.352417
0.391198
0.524561
0.710243
0.78436
0.812354
0.852355
0.910655
0.97594
0.854451
0.765089
0.688706
0.58287
0.498673
0.463206
0.43072
0.391592
0.366427
0.35397
0.354632
0.36007
0.388026
0.470395
0.616098
0.733683
0.796998
0.854357
0.916468
0.979009
1.25771
0.939028
0.803501
0.729366
0.65684
0.582444
0.505903
0.426668
0.37978
0.378107
0.390806
0.404133
0.429824
0.498979
0.61607
0.731057
0.806109
0.865802
0.927795
0.983639
2.05195
1.48363
1.08771
0.950182
0.82919
0.721857
0.659291
0.583278
0.484294
0.440462
0.428953
0.425849
0.437522
0.494173
0.605807
0.727261
0.81754
0.888044
0.947811
0.990188
2.49872
2.16608
1.69592
1.33218
1.02436
0.800306
0.757746
0.700239
0.604393
0.522244
0.510591
0.516196
0.536189
0.575852
0.645304
0.742026
0.838908
0.915833
0.968697
0.995608
2.36183
2.33866
2.20727
1.8793
1.52857
1.19736
0.963007
0.838949
0.718016
0.6405
0.63871
0.646954
0.671639
0.721317
0.786034
0.85304
0.915018
0.962376
0.989122
0.998893
1.68276
2.15612
2.15961
2.10465
1.96611
1.70876
1.39768
1.1798
1.01417
0.838319
0.767904
0.767943
0.785658
0.837808
0.909793
0.966128
0.99304
1.00076
1.00058
0.999943
1.10524
1.44957
1.81909
2.01282
1.97601
1.89502
1.76947
1.57773
1.3923
1.20954
1.06181
1.01721
1.02388
1.04705
1.06479
1.06286
1.03213
1.00566
1.00019
0.999985
1.00451
1.04466
1.20049
1.4914
1.73737
1.80883
1.75792
1.67267
1.56836
1.45882
1.34375
1.25654
1.20557
1.16532
1.11878
1.06514
1.02215
1.00294
1.00009
0.999997
1.0001
1.001
1.01074
1.06269
1.20389
1.39895
1.54224
1.57303
1.54153
1.46908
1.38395
1.3002
1.22689
1.16286
1.09979
1.04107
1.00804
1.00054
1.00001
1
1
1.00001
1.00015
1.00158
1.01205
1.04914
1.13617
1.23104
1.30316
1.30971
1.28398
1.23177
1.16733
1.10054
1.04338
1.01019
1.00092
1.00003
1
1
1
1
1
1.00001
1.00016
1.00118
1.00646
1.0209
1.046
1.0677
1.07233
1.06483
1.04533
1.02178
1.00599
1.00071
1.00003
1
1
1
1
1
1
1
1
1.00001
1.00007
1.00035
1.00121
1.0027
1.00361
1.00349
1.00251
1.00106
1.00021
1.00001
1
1
1
1
1
1
1
1
1
1
1
1
1.00001
1.00002
1.00004
1.00004
1.00003
1.00001
1
1
1
1
1
1
1
1
1
1
1
1
1
1
1
1
1
1
1
1
1
1
1
1
1
1
1
1
1
1
1
1
1
1
1
1
1
1
1
1
1
1
1
1
1
1
1
1
1
1
1
1
1
1
1
1
1
1
1
1
1
1
1
1
1
1
1.62649
2.46239
2.58192
2.08347
1.30971
1.03737
1.00192
1.00005
1
1
1
1
1
1
1
2.34965
2.81861
2.52699
1.54075
1.04825
1.0008
1
1
1
1
1
1
1
1
1
2.93822
2.87402
1.98049
1.15146
1.00515
1.00005
1
1
1
1
1
1
1
1
1
3.25855
2.55729
1.36388
1.01923
1.00019
1
1
1
1
1
1
1
1
1
1
3.3226
1.68423
1.04728
1.00051
1
1
1
1
1
1
1
1
1
1
1
2.06915
1.07311
1.00048
0.999999
1
1
1
1
1
1
1
1
1
1
1
1.1027
1.00057
0.999997
1
1
1
1
1
1
1
1
1
1
1
1
0.998141
0.999865
0.999996
1
1
1
1
1
1
1
1
1
1
1
1
0.999966
1
1
1
1
1
1
1
1
1
1
1
1
1
1
1
1
1
1
1
1
1
1
1
1
1
1
1
1
1
1
1
1
1
1
1
1
1
1
1
1
1
1
1
1
1
1
1
1
1
1
1
1
1
1
1
1
1
1
1
1
1
1
1
1
1
1
1
1
1
1
1
1
1
1
1
1
1
1
1
1
1
1
1
1
1
1
1
1
1
1
1
1
1
1
1
1
1
1
1
1
1
1
1
1
1
1
1
1
1
1
1
1
1
1
1
1
1
1
1
1
1
1
1
1
1
1
1
1
1
1
1
1
1
1
1
1
1
1
1
1
1
1
1
1
1
1
1
1
1
1
1
1
1
1
1
1
1
1
1
1
1
1
1
1
1
1
1
1
1
1
1
1
1
1
1
1
1
1
1
1
1
1
1
1
1
1
1
1
1
1
1
1
1
1
1
1
1
1
1
1
1
1
1
1
1
1
1
1
1
1
1
1
1
1
1
1
1
1
1
1
1
1
1
1
1
1
1
1
1
1
1
1
1
1
1
1
1
1
1
1
1
1
1
1
1
1
1
1
1
1
1
1
1
1
1
1
1
1
1
1
1
1
1
1
1
1
1
1
1
1
1
1
1
1
1
1
1
1
1
1
1
1
1
1
1
1
1
1
1
1
1
1
1
1
1
1
1
1
1
1
1
1
1
1
1
1
1
1
1
1
1
1
1
1
1
1
1
1
1
1
1
1
1
1
1
1
1
1
1
1
1
1
1
1
1
1
1
1
1
1
1
1
1
1
1
1
1
1
1
1
1
1
1
1
1
1
1
1
1
1
1
1
1
1
1
1
1
1
1
1
1
1
1
1
1
1
1
1
1
1
1
1
1
1
1
1
1
1
1
1
1
1
1
1
1
1
1
1
1
1
1
1
1
1
1
1
1
1
1
1
1
1
1
1
1
1
1
1
1
1
1
1
1
1
1
1
1
1
1
1
1
1
1
1
1
1
1
1
1
1
1
1
1
1
1
1
1
1
1
1
1
1
1
1
1
1
1
1
1
1
1
1
1
1
1
1
1
1
1
1
1
1
1
1
1
1
1
1
1
1
1
1
1
1
1
1
1
1
1
1
1
1
1
1
1
1
1
1
1
1
1
1
1
1
1
1
1
1
1
1
1
1
1
1
1
1
1
1
1
1
1
1
1
1
1
1
1
1
1
1
1
1
1
1
1
1
1
1
1
1
1
1
1
1
1
1
1
1
1
1
1
1
1
1
1
1
1
1
1
1
1
1
1
1
1
1
1
1
1
1
1
1
1
1
1
1
1
1
1
1
1
1
1
1
1
1
1
1
1
1
1
1
1
1
1
1
1
1
1
1
1
1
1
1
1
1
1
1
1
1
1
1
1
1
1
1
1
1
1
1
1
1
1
1
1
1
1
1
1
1
1
1
1
1
1
1
1
1
1
1
1
1
1
1
1
1
1
1
1
1
1
1
1
1
1
1
1
1
1
1
1
1
1
1
1
1
1
1
1
1
1
1
1
1
1
1
1
1
1
1
1
1
1
1
1
1
1
1
1
1
1
1
1
1
1
1
1
1
1
1
1
1
1
1
1
1
1
1
1
1
1
1
1
1
1
1
1
1
1
1
1
1
1
1
1
1
1
1
1
1
1
1
1
1
1
1
1
1
1
1
1
1
1
1
1
1
1
1
1
1
1
1
1
1
1
1
1
1
1
1
1
1
1
1
1
1
1
1
1
1
1
1
1
1
1
1
1
1
1
1
1
1
1
1
1
1
1
1
1
1
1
1
1
1
1
1
1
1
1
1
1
1
1
1
1
1
1
1
1
1
1
1
1
1
1
1
1
1
1
1
1
1
1
1
1
1
1
1
1
1
1
1
1
1
1
1
1
1
1
1
1
1
1
1
0.999966
1
1
1
1
1
1
1
1
1
1
1
1
1
1
0.998141
0.999865
0.999996
1
1
1
1
1
1
1
1
1
1
1
1
1.1027
1.00057
0.999997
1
1
1
1
1
1
1
1
1
1
1
1
2.06915
1.07311
1.00048
0.999999
1
1
1
1
1
1
1
1
1
1
1
3.32261
1.68421
1.04729
1.00051
1
1
1
1
1
1
1
1
1
1
1
3.25857
2.55736
1.36391
1.01921
1.00019
1
1
1
1
1
1
1
1
1
1
2.93816
2.87402
1.98046
1.15151
1.00515
1.00005
1
1
1
1
1
1
1
1
1
2.34971
2.8186
2.52702
1.5407
1.04824
1.0008
1
1
1
1
1
1
1
1
1
1.62639
2.46237
2.58201
2.08353
1.3097
1.03736
1.00192
1.00005
1
1
1
1
1
1
1
1.25821
2.05168
2.49856
2.36151
1.68263
1.10524
1.00451
1.0001
1
1
1
1
1
1
1
0.941795
1.48423
2.16473
2.3385
2.15599
1.44958
1.04467
1.001
1.00001
1
1
1
1
1
1
0.802479
1.08919
1.69784
2.20704
2.15954
1.81912
1.20054
1.01075
1.00015
1
1
1
1
1
1
0.726893
0.949499
1.33463
1.88005
2.10481
2.01296
1.49146
1.0627
1.00158
1.00001
1
1
1
1
1
0.657118
0.827366
1.02142
1.52853
1.96641
1.97613
1.73744
1.20389
1.01204
1.00016
1
1
1
1
1
0.583091
0.720034
0.798988
1.19791
1.70842
1.89504
1.80884
1.39893
1.04913
1.00118
1.00001
1
1
1
1
0.50855
0.661028
0.7573
0.963684
1.39765
1.76945
1.7579
1.54222
1.13616
1.00646
1.00007
1
1
1
1
0.42915
0.586892
0.699463
0.836791
1.18033
1.57777
1.67264
1.573
1.23103
1.0209
1.00035
1
1
1
1
0.378235
0.489107
0.604647
0.714357
1.01401
1.39216
1.56832
1.5415
1.30316
1.046
1.00121
1.00001
1
1
1
0.375574
0.441074
0.523573
0.639521
0.838624
1.20959
1.4588
1.46907
1.30971
1.0677
1.0027
1.00002
1
1
1
0.387633
0.427435
0.514066
0.638684
0.76721
1.06201
1.3438
1.38395
1.28397
1.07233
1.00361
1.00004
1
1
1
0.40179
0.423988
0.520891
0.647244
0.767003
1.01721
1.25657
1.30019
1.23177
1.06483
1.00349
1.00004
1
1
1
0.428087
0.435312
0.542836
0.672311
0.784311
1.02378
1.20551
1.22686
1.16732
1.04533
1.00251
1.00003
1
1
1
0.496765
0.491941
0.582213
0.722621
0.836026
1.04655
1.16521
1.1628
1.10053
1.02179
1.00106
1.00001
1
1
1
0.617178
0.603179
0.647826
0.786886
0.908012
1.0642
1.11867
1.09974
1.04338
1.006
1.00021
1
1
1
1
0.733237
0.726779
0.741228
0.852427
0.964838
1.0625
1.06502
1.04106
1.0102
1.00071
1.00001
1
1
1
1
0.808105
0.817752
0.837403
0.913967
0.992456
1.03205
1.02211
1.00803
1.00092
1.00003
1
1
1
1
1
0.866717
0.887904
0.91497
0.961927
1.00057
1.00567
1.00294
1.00054
1.00003
1
1
1
1
1
1
0.927904
0.947566
0.968436
0.9891
1.00059
1.00019
1.00009
1.00001
1
1
1
1
1
1
1
0.9836
0.99012
0.995587
0.998905
0.999951
0.999986
0.999997
1
1
1
1
1
1
1
1
0.854682
0.765624
0.687671
0.582491
0.499564
0.463701
0.427966
0.390491
0.362885
0.350842
0.35287
0.358623
0.386409
0.469563
0.618633
0.738341
0.799627
0.8549
0.916408
0.978979
0.673687
0.62239
0.563
0.465666
0.426207
0.422156
0.393814
0.352568
0.332728
0.332226
0.336552
0.348536
0.388571
0.525585
0.714804
0.787689
0.812985
0.852058
0.910478
0.975946
0.521894
0.510188
0.473021
0.398392
0.372336
0.374288
0.353363
0.312074
0.304729
0.30848
0.327752
0.39
0.5238
0.721602
0.806611
0.808356
0.81717
0.849542
0.905839
0.973301
0.40481
0.412408
0.390008
0.341017
0.337232
0.336075
0.318747
0.282838
0.286623
0.34301
0.480696
0.647405
0.798829
0.85741
0.840335
0.82273
0.823712
0.850798
0.903292
0.971337
0.315275
0.32974
0.324139
0.297781
0.293748
0.295882
0.280148
0.275108
0.358109
0.54605
0.668735
0.760586
0.84809
0.866186
0.850415
0.834065
0.831662
0.849282
0.90021
0.969811
0.233991
0.264152
0.263573
0.25902
0.263672
0.261622
0.265312
0.386689
0.589684
0.652451
0.711331
0.783509
0.860105
0.875339
0.860051
0.844578
0.842428
0.85477
0.900076
0.968837
0.186194
0.215823
0.228374
0.224394
0.22614
0.266025
0.442144
0.64312
0.684874
0.69061
0.704643
0.755191
0.847854
0.889657
0.872793
0.854482
0.849447
0.857456
0.896487
0.966673
0.139125
0.163971
0.214147
0.280689
0.380564
0.562588
0.694108
0.730484
0.710278
0.688571
0.70215
0.755873
0.852397
0.902802
0.882942
0.860538
0.851647
0.857654
0.897022
0.966981
0.279721
0.41067
0.506724
0.580541
0.66926
0.735083
0.759846
0.750157
0.717565
0.706394
0.724636
0.770373
0.855432
0.900988
0.878723
0.854705
0.845628
0.852411
0.89421
0.966457
0.566495
0.623531
0.670482
0.715191
0.755474
0.762631
0.759493
0.745901
0.71774
0.722961
0.740904
0.792387
0.881933
0.922811
0.895634
0.867729
0.855111
0.859108
0.897339
0.967234
)
;

boundaryField
{
    inlet
    {
        type            fixedValue;
        value           uniform 1;
    }
    outlet
    {
        type            zeroGradient;
    }
    airfoil
    {
        type            zeroGradient;
    }
    top
    {
        type            symmetryPlane;
    }
    bottom
    {
        type            symmetryPlane;
    }
    defaultFaces
    {
        type            empty;
    }
}


// ************************************************************************* //
