/*--------------------------------*- C++ -*----------------------------------*\
  =========                 |
  \\      /  F ield         | OpenFOAM: The Open Source CFD Toolbox
   \\    /   O peration     | Website:  https://openfoam.org
    \\  /    A nd           | Version:  7
     \\/     M anipulation  |
\*---------------------------------------------------------------------------*/
FoamFile
{
    version     2.0;
    format      ascii;
    class       volVectorField;
    location    "1.4";
    object      U;
}
// * * * * * * * * * * * * * * * * * * * * * * * * * * * * * * * * * * * * * //

dimensions      [0 1 -1 0 0 0 0];

internalField   nonuniform List<vector> 
3700
(
(1.39323 -0.321501 0)
(1.27221 -0.533337 0)
(1.29585 -0.28292 0)
(1.36325 -0.260723 0)
(1.47367 -0.271129 0)
(1.55783 -0.21338 0)
(1.55975 -0.177984 0)
(1.52329 -0.185091 0)
(1.51692 -0.249927 0)
(1.53957 -0.309767 0)
(1.54829 -0.312559 0)
(1.60311 -0.278726 0)
(1.66961 -0.303767 0)
(1.68819 -0.274746 0)
(1.70871 -0.193291 0)
(1.76956 -0.151135 0)
(1.79975 -0.187102 0)
(1.822 -0.20906 0)
(1.82374 -0.188963 0)
(1.8683 -0.224892 0)
(1.80004 -1.22788 0)
(1.58493 -1.28327 0)
(1.64599 -1.12701 0)
(1.76646 -1.07976 0)
(1.8976 -1.26486 0)
(1.91034 -1.24438 0)
(1.84336 -1.2341 0)
(1.82589 -1.29823 0)
(1.88684 -1.53947 0)
(1.88003 -1.69176 0)
(1.86019 -1.74108 0)
(1.91488 -1.6296 0)
(1.97422 -1.53528 0)
(2.01555 -1.41653 0)
(2.03971 -1.21059 0)
(2.14072 -1.08746 0)
(2.25904 -1.10118 0)
(2.31782 -1.1082 0)
(2.34517 -1.07787 0)
(2.37494 -1.17273 0)
(1.59256 -1.26355 0)
(1.58525 -1.46616 0)
(1.72318 -1.59003 0)
(1.77537 -1.83874 0)
(1.84249 -2.12416 0)
(1.99266 -2.30723 0)
(2.05289 -2.32568 0)
(2.08053 -2.3104 0)
(2.10036 -2.27393 0)
(2.08626 -2.25088 0)
(2.10184 -2.22504 0)
(2.15322 -2.11464 0)
(2.19425 -1.98287 0)
(2.24622 -1.92459 0)
(2.30854 -1.79897 0)
(2.40695 -1.72982 0)
(2.51446 -1.67112 0)
(2.62181 -1.60165 0)
(2.70681 -1.5364 0)
(2.74522 -1.52706 0)
(1.4131 -1.33149 0)
(1.51559 -1.6921 0)
(1.6855 -1.88908 0)
(1.75581 -2.21584 0)
(1.79109 -2.39894 0)
(1.83812 -2.45115 0)
(2.06551 -2.32816 0)
(2.19803 -2.09879 0)
(2.32067 -1.98822 0)
(2.41104 -1.99454 0)
(2.45068 -1.89111 0)
(2.42664 -1.91594 0)
(2.4088 -1.86996 0)
(2.35768 -1.8768 0)
(2.38892 -1.72011 0)
(2.44261 -1.63394 0)
(2.50351 -1.53037 0)
(2.58856 -1.41627 0)
(2.68979 -1.30569 0)
(2.81624 -1.14751 0)
(1.26685 -1.37668 0)
(1.47022 -1.8265 0)
(1.69284 -2.07365 0)
(1.76083 -2.30281 0)
(1.88312 -2.43274 0)
(2.01692 -2.48666 0)
(2.12112 -2.30328 0)
(2.20287 -2.05225 0)
(2.2752 -1.95591 0)
(2.40329 -1.9024 0)
(2.52847 -1.71211 0)
(2.62016 -1.60919 0)
(2.66565 -1.50956 0)
(2.59876 -1.5839 0)
(2.5911 -1.50909 0)
(2.57035 -1.48834 0)
(2.55991 -1.42017 0)
(2.57837 -1.30526 0)
(2.6267 -1.31032 0)
(2.71882 -1.10731 0)
(1.26727 -1.5202 0)
(1.54455 -1.96194 0)
(1.84404 -2.2008 0)
(1.96372 -2.28463 0)
(2.1953 -2.33241 0)
(2.17766 -2.41618 0)
(2.27596 -2.17757 0)
(2.27376 -2.02456 0)
(2.23627 -1.95139 0)
(2.34058 -1.82374 0)
(2.43903 -1.65677 0)
(2.59143 -1.57021 0)
(2.66801 -1.36511 0)
(2.74441 -1.25155 0)
(2.76522 -1.12808 0)
(2.75512 -1.07414 0)
(2.73278 -1.08597 0)
(2.73134 -0.9856 0)
(2.67146 -1.08078 0)
(2.67225 -0.987921 0)
(1.38081 -1.67594 0)
(1.70761 -2.08253 0)
(2.01538 -2.27996 0)
(2.09602 -2.28822 0)
(2.24132 -2.21333 0)
(2.31035 -2.21149 0)
(2.42128 -1.93868 0)
(2.41592 -1.89762 0)
(2.33445 -1.88759 0)
(2.35065 -1.75559 0)
(2.41592 -1.62065 0)
(2.50865 -1.50867 0)
(2.55769 -1.32003 0)
(2.66113 -1.23112 0)
(2.71054 -1.03285 0)
(2.77779 -0.855104 0)
(2.80522 -0.735746 0)
(2.81682 -0.580089 0)
(2.763 -0.621696 0)
(2.71976 -0.645624 0)
(1.53233 -1.77909 0)
(1.84725 -2.14762 0)
(1.99181 -2.28711 0)
(2.07089 -2.3084 0)
(2.2329 -2.14 0)
(2.35945 -2.05899 0)
(2.50424 -1.73987 0)
(2.48932 -1.73649 0)
(2.45707 -1.70574 0)
(2.49947 -1.55461 0)
(2.49778 -1.54145 0)
(2.55378 -1.34209 0)
(2.56361 -1.21675 0)
(2.60928 -1.12689 0)
(2.64418 -0.966621 0)
(2.69272 -0.852399 0)
(2.7523 -0.721477 0)
(2.79049 -0.517182 0)
(2.787 -0.358949 0)
(2.73602 -0.28432 0)
(1.62355 -1.83269 0)
(1.79572 -2.14055 0)
(1.86026 -2.23364 0)
(1.86634 -2.26145 0)
(2.09483 -1.97476 0)
(2.23168 -1.75972 0)
(2.42127 -1.51032 0)
(2.51658 -1.4924 0)
(2.56003 -1.48753 0)
(2.59582 -1.24772 0)
(2.6375 -1.25936 0)
(2.67607 -0.996451 0)
(2.66767 -0.95914 0)
(2.68637 -0.853996 0)
(2.68908 -0.737861 0)
(2.68387 -0.646863 0)
(2.6915 -0.574095 0)
(2.73188 -0.495492 0)
(2.71081 -0.292386 0)
(2.6784 -0.105763 0)
(1.68215 -1.86695 0)
(1.6417 -2.12163 0)
(1.68043 -2.1581 0)
(1.76598 -2.15535 0)
(1.99186 -1.93927 0)
(2.10704 -1.64558 0)
(2.21641 -1.55769 0)
(2.35527 -1.47832 0)
(2.50624 -1.24748 0)
(2.58339 -1.03923 0)
(2.62202 -0.800143 0)
(2.67088 -0.611161 0)
(2.70565 -0.523829 0)
(2.73249 -0.413052 0)
(2.73281 -0.315324 0)
(2.71039 -0.282683 0)
(2.68276 -0.239695 0)
(2.67864 -0.284429 0)
(2.64527 -0.18703 0)
(2.61166 -0.0100376 0)
(1.60445 -1.7373 0)
(1.56726 -1.96263 0)
(1.53999 -2.00223 0)
(1.80056 -1.84384 0)
(1.999 -1.80582 0)
(2.17986 -1.44411 0)
(2.11621 -1.54698 0)
(2.2595 -1.45898 0)
(2.38933 -1.21686 0)
(2.4845 -1.05716 0)
(2.57036 -0.788773 0)
(2.63074 -0.603239 0)
(2.66184 -0.389472 0)
(2.708 -0.246919 0)
(2.67134 -0.0277011 0)
(2.65554 0.0510466 0)
(2.62392 0.151232 0)
(2.60434 0.0720405 0)
(2.5534 0.114921 0)
(2.58392 0.0427951 0)
(1.46359 -1.5544 0)
(1.56622 -1.73502 0)
(1.78669 -1.779 0)
(1.91772 -1.50364 0)
(1.9644 -1.63352 0)
(2.18258 -1.26226 0)
(2.29782 -1.37688 0)
(2.41156 -1.28521 0)
(2.47133 -1.02924 0)
(2.50875 -0.862831 0)
(2.55784 -0.658719 0)
(2.58698 -0.461276 0)
(2.59972 -0.286453 0)
(2.62938 -0.164516 0)
(2.58647 0.0378889 0)
(2.58667 0.13511 0)
(2.52884 0.313819 0)
(2.48796 0.362023 0)
(2.43489 0.39738 0)
(2.4682 0.308453 0)
(1.32801 -1.39904 0)
(1.60833 -1.54289 0)
(1.89446 -1.64622 0)
(1.98523 -1.39545 0)
(1.98326 -1.52475 0)
(2.42378 -1.08435 0)
(2.74869 -0.877367 0)
(2.7349 -0.585923 0)
(2.66899 -0.386916 0)
(2.62976 -0.301828 0)
(2.62609 -0.177017 0)
(2.5908 -0.00629728 0)
(2.57 0.0874073 0)
(2.54297 0.178528 0)
(2.49476 0.266067 0)
(2.47323 0.297859 0)
(2.42441 0.383077 0)
(2.372 0.491371 0)
(2.30387 0.598734 0)
(2.29958 0.57614 0)
(1.19058 -1.30872 0)
(1.56392 -1.45452 0)
(1.88365 -1.33376 0)
(2.0714 -1.38718 0)
(2.45998 -0.992095 0)
(2.57027 -0.934479 0)
(2.65115 -0.870249 0)
(2.62868 -0.341127 0)
(2.60475 -0.136333 0)
(2.57646 0.0459011 0)
(2.55327 0.2051 0)
(2.47983 0.385496 0)
(2.44311 0.477348 0)
(2.3833 0.579558 0)
(2.33951 0.616573 0)
(2.30205 0.624827 0)
(2.25774 0.651617 0)
(2.24172 0.663041 0)
(2.17923 0.743798 0)
(2.13626 0.788993 0)
(1.0276 -1.30412 0)
(1.57141 -1.46386 0)
(2.0961 -0.896308 0)
(2.46854 -1.25962 0)
(2.51293 -0.671044 0)
(2.4575 -0.800229 0)
(2.48133 -0.513857 0)
(2.46917 -0.225369 0)
(2.45524 -0.0471333 0)
(2.46152 0.150627 0)
(2.42136 0.356554 0)
(2.34157 0.541523 0)
(2.28497 0.660031 0)
(2.21317 0.76736 0)
(2.15863 0.822145 0)
(2.11398 0.847685 0)
(2.0623 0.902503 0)
(2.05654 0.904595 0)
(2.04022 0.928282 0)
(2.06244 0.951485 0)
(1.20504 -0.986264 0)
(1.50171 -1.50032 0)
(2.52019 -0.310687 0)
(2.24303 -0.924519 0)
(2.32782 -0.562634 0)
(2.4628 -0.332277 0)
(2.41474 0.159969 0)
(2.38144 0.336344 0)
(2.32429 0.449779 0)
(2.30817 0.57207 0)
(2.21692 0.719606 0)
(2.1408 0.822477 0)
(2.08395 0.886087 0)
(2.02811 0.945905 0)
(1.99089 0.958822 0)
(1.95576 0.984241 0)
(1.95241 1.01516 0)
(1.96841 0.998083 0)
(1.99356 0.997851 0)
(2.07022 0.980459 0)
(1.11345 -0.459942 0)
(1.76958 -0.553156 0)
(2.20159 -0.727159 0)
(2.31394 -0.116943 0)
(2.35817 0.0621357 0)
(2.3181 0.390787 0)
(2.29382 0.526181 0)
(2.20305 0.696061 0)
(2.11967 0.81267 0)
(2.07396 0.93392 0)
(1.96379 1.02854 0)
(1.90445 1.07443 0)
(1.87734 1.08605 0)
(1.86799 1.08884 0)
(1.8739 1.05293 0)
(1.8995 1.04434 0)
(1.96373 1.01706 0)
(2.16247 0.900236 0)
(2.37689 0.791775 0)
(2.77508 0.44393 0)
(1.09101 -0.00458872 0)
(1.84875 -0.132477 0)
(2.24079 0.145576 0)
(2.23104 0.522216 0)
(2.18419 0.660198 0)
(2.14166 0.759052 0)
(2.03744 0.900162 0)
(1.97268 0.955631 0)
(1.90789 1.02618 0)
(1.85907 1.11985 0)
(1.78756 1.15554 0)
(1.78728 1.15119 0)
(1.80731 1.13135 0)
(1.84947 1.088 0)
(2.03926 0.952325 0)
(2.2595 0.828477 0)
(2.66797 0.499325 0)
(3.03897 0.0872371 0)
(3.05564 -0.0248284 0)
(3.00406 -0.00472286 0)
(1.01226 0.0284746 0)
(1.92908 0.752026 0)
(2.07968 0.892505 0)
(2.00768 0.954119 0)
(1.94351 0.991866 0)
(1.8782 1.07456 0)
(1.80006 1.13079 0)
(1.7622 1.14756 0)
(1.75793 1.16357 0)
(1.73298 1.20533 0)
(1.71101 1.1976 0)
(1.86666 1.06895 0)
(2.10355 0.884063 0)
(2.50607 0.577438 0)
(2.98775 0.136228 0)
(3.07289 -0.0288699 0)
(3.00797 -0.00755009 0)
(3.00289 -0.00379624 0)
(3.00122 -0.00218303 0)
(3.00008 -0.000481766 0)
(1.17199 0.738667 0)
(1.8098 1.17372 0)
(1.84387 1.14456 0)
(1.73408 1.19807 0)
(1.71256 1.19998 0)
(1.66981 1.2446 0)
(1.66507 1.21755 0)
(1.73072 1.169 0)
(1.76127 1.23038 0)
(1.78953 1.14206 0)
(2.27305 0.740866 0)
(2.85672 0.210984 0)
(3.09626 -0.0274966 0)
(3.02081 -0.0124699 0)
(3.00455 -0.00543944 0)
(3.00185 -0.00300401 0)
(3.00006 -0.000594216 0)
(2.99998 -2.30314e-05 0)
(2.99999 1.43159e-05 0)
(3 5.9064e-06 0)
(1.57472 1.25708 0)
(1.58054 1.26489 0)
(1.58611 1.2732 0)
(1.59833 1.27029 0)
(1.62128 1.25859 0)
(1.6192 1.26629 0)
(1.90029 1.17082 0)
(2.99595 0.34007 0)
(3.30799 -0.548004 0)
(3 -4.77498e-12 0)
(3 4.20124e-11 0)
(3 -1.55944e-13 0)
(3 -3.99989e-14 0)
(3 -2.29808e-13 0)
(3 -9.13499e-15 0)
(3 9.51647e-15 0)
(3 5.30216e-15 0)
(3 5.49531e-15 0)
(3 5.92908e-15 0)
(3 -1.77177e-15 0)
(1.58268 1.25056 0)
(1.59386 1.26021 0)
(1.59763 1.2755 0)
(1.59916 1.28428 0)
(1.65731 1.26083 0)
(1.74799 1.21248 0)
(2.30683 0.713609 0)
(3.00141 0.0102187 0)
(3 6.53249e-08 0)
(3 5.46866e-11 0)
(3 -8.96609e-13 0)
(3 6.91313e-15 0)
(3 -2.09473e-15 0)
(3 -2.95047e-16 0)
(3 -2.47588e-15 0)
(3 2.13307e-15 0)
(3 5.23386e-15 0)
(3 7.11029e-15 0)
(3 7.22539e-15 0)
(3 1.13693e-15 0)
(1.58867 1.25293 0)
(1.60658 1.25742 0)
(1.61429 1.262 0)
(1.59251 1.29065 0)
(1.69332 1.21868 0)
(2.1477 0.820867 0)
(2.9835 0.00654117 0)
(3.00049 -0.000887993 0)
(3 1.63895e-07 0)
(3 7.3581e-11 0)
(3 -6.25896e-14 0)
(3 9.64328e-15 0)
(3 -2.95205e-16 0)
(3 3.41411e-16 0)
(3 -1.42525e-16 0)
(3 3.29516e-15 0)
(3 5.44104e-15 0)
(3 7.48415e-15 0)
(3 3.17138e-15 0)
(3 1.47298e-16 0)
(1.59049 1.25406 0)
(1.6114 1.26014 0)
(1.63019 1.25391 0)
(1.61898 1.27482 0)
(1.90083 1.04628 0)
(2.7778 0.192443 0)
(3.00454 -0.00214234 0)
(2.99992 8.05288e-05 0)
(3 -4.77003e-07 0)
(3 7.94497e-10 0)
(3 -9.27715e-15 0)
(3 -1.46813e-15 0)
(3 5.20402e-16 0)
(3 1.62093e-15 0)
(3 2.37517e-15 0)
(3 3.93199e-15 0)
(3 5.49967e-15 0)
(3 6.13747e-15 0)
(3 8.80599e-16 0)
(3 3.4078e-16 0)
(1.58677 1.26477 0)
(1.60348 1.26583 0)
(1.63701 1.25177 0)
(1.68939 1.22543 0)
(2.33404 0.639561 0)
(3.02061 -0.0169801 0)
(2.99974 0.000175875 0)
(3 -4.21668e-06 0)
(3 8.10322e-08 0)
(3 -8.42112e-10 0)
(3 2.43159e-12 0)
(3 -1.61457e-14 0)
(3 1.61156e-15 0)
(3 2.23767e-15 0)
(3 3.79428e-15 0)
(3 6.21919e-15 0)
(3 6.3229e-15 0)
(3 1.7779e-15 0)
(3 -2.96452e-16 0)
(3 2.28813e-16 0)
(1.584 1.28059 0)
(1.58699 1.28209 0)
(1.64329 1.2556 0)
(1.78011 1.14931 0)
(2.68944 0.260501 0)
(3 -5.77707e-10 0)
(3 1.37903e-08 0)
(3 -1.24394e-08 0)
(3 5.27636e-10 0)
(3 2.83155e-12 0)
(3 -1.13252e-13 0)
(3 5.21323e-15 0)
(3 3.66316e-15 0)
(3 3.22324e-15 0)
(3 4.07689e-15 0)
(3 5.8108e-15 0)
(3 5.53702e-15 0)
(3 1.31768e-15 0)
(3 -1.16353e-16 0)
(3 2.8801e-16 0)
(1.58449 1.29501 0)
(1.55574 1.30093 0)
(1.68028 1.23585 0)
(2.1897 0.832594 0)
(3.02328 -0.0221962 0)
(3 9.86242e-14 0)
(3 3.13551e-12 0)
(3 7.47156e-13 0)
(3 -5.57159e-13 0)
(3 1.4892e-14 0)
(3 4.08405e-15 0)
(3 4.34737e-15 0)
(3 4.2513e-15 0)
(3 3.42104e-15 0)
(3 3.30557e-15 0)
(3 3.29406e-15 0)
(3 3.59597e-15 0)
(3 1.85303e-15 0)
(3 2.59343e-16 0)
(3 4.02343e-16 0)
(1.58931 1.32927 0)
(1.50274 1.32706 0)
(1.72165 1.19971 0)
(2.37334 0.573139 0)
(3 -1.23336e-09 0)
(3 2.28231e-11 0)
(3 -3.30332e-13 0)
(3 1.62532e-14 0)
(3 8.11538e-15 0)
(3 3.11946e-15 0)
(3 3.72224e-15 0)
(3 4.09396e-15 0)
(3 4.02849e-15 0)
(3 3.41633e-15 0)
(3 2.92985e-15 0)
(3 2.32389e-15 0)
(3 2.66795e-15 0)
(3 2.14505e-15 0)
(3 1.32017e-15 0)
(3 9.05371e-16 0)
(1.5918 1.30509 0)
(1.47826 1.33868 0)
(2.00072 1.02777 0)
(2.89304 0.108269 0)
(3 -1.0436e-10 0)
(3 -1.58759e-13 0)
(3 4.8143e-15 0)
(3 1.41433e-15 0)
(3 2.4955e-15 0)
(3 3.11931e-15 0)
(3 3.20269e-15 0)
(3 3.31356e-15 0)
(3 4.13829e-15 0)
(3 3.72341e-15 0)
(3 2.49696e-15 0)
(3 1.81785e-15 0)
(3 2.10156e-15 0)
(3 2.328e-15 0)
(3 2.56391e-15 0)
(3 8.31723e-16 0)
(1.6044 1.29479 0)
(1.48008 1.39412 0)
(2.12455 0.847228 0)
(3.01107 -0.00875054 0)
(3 9.66007e-10 0)
(3 -8.40117e-13 0)
(3 1.30856e-15 0)
(3 1.40638e-15 0)
(3 1.97305e-15 0)
(3 2.95108e-15 0)
(3 2.75358e-15 0)
(3 3.25173e-15 0)
(3 4.19949e-15 0)
(3 4.72978e-15 0)
(3 2.58829e-15 0)
(3 2.06739e-15 0)
(3 2.7828e-15 0)
(3 2.91183e-15 0)
(3 3.03877e-15 0)
(3 2.23668e-15 0)
(1.62071 1.27841 0)
(1.57343 1.30927 0)
(2.43724 0.523869 0)
(3 9.27697e-14 0)
(3 -1.175e-12 0)
(3 1.2784e-14 0)
(3 3.11905e-16 0)
(3 8.14787e-16 0)
(3 1.54122e-15 0)
(3 1.65563e-15 0)
(3 1.67191e-15 0)
(3 2.29051e-15 0)
(3 3.08423e-15 0)
(3 3.52749e-15 0)
(3 1.81774e-15 0)
(3 1.82756e-15 0)
(3 3.18803e-15 0)
(3 3.55689e-15 0)
(3 3.81643e-15 0)
(3 4.16004e-15 0)
(1.6376 1.2596 0)
(1.61723 1.25621 0)
(2.64061 0.301911 0)
(3 2.63441e-14 0)
(3 1.56856e-15 0)
(3 -9.48074e-16 0)
(3 -3.41107e-17 0)
(3 5.77986e-16 0)
(3 5.94295e-16 0)
(3 6.52399e-16 0)
(3 1.22e-15 0)
(3 1.4222e-15 0)
(3 1.86659e-15 0)
(3 2.14003e-15 0)
(3 3.39879e-16 0)
(3 2.88823e-16 0)
(3 1.02029e-15 0)
(3 2.17313e-15 0)
(3 2.13293e-15 0)
(3 3.04185e-15 0)
(1.65391 1.24297 0)
(1.82987 1.09979 0)
(2.87703 0.0899496 0)
(3 -1.39856e-13 0)
(3 -1.64104e-15 0)
(3 -1.46165e-15 0)
(3 -4.84936e-16 0)
(3 3.19679e-16 0)
(3 4.55675e-16 0)
(3 6.43304e-16 0)
(3 1.23345e-15 0)
(3 1.45793e-15 0)
(3 1.47873e-15 0)
(3 2.08915e-15 0)
(3 1.52555e-15 0)
(3 7.74112e-16 0)
(3 8.98996e-16 0)
(3 1.30116e-15 0)
(3 1.60822e-15 0)
(3 2.07254e-15 0)
(1.67851 1.19882 0)
(1.90014 0.97317 0)
(2.99869 0.00111549 0)
(3 -4.29405e-16 0)
(3 -3.52684e-16 0)
(3 -7.5942e-16 0)
(3 -2.60617e-16 0)
(3 -3.73588e-16 0)
(3 -1.36504e-16 0)
(3 1.00334e-16 0)
(3 8.22463e-16 0)
(3 1.28163e-15 0)
(3 1.33634e-15 0)
(3 1.93932e-15 0)
(3 1.64691e-15 0)
(3 1.48617e-15 0)
(3 1.58622e-15 0)
(3 1.64656e-15 0)
(3 1.69968e-15 0)
(3 2.14633e-15 0)
(1.70512 1.16895 0)
(2.0584 0.818626 0)
(3 1.22071e-16 0)
(3 6.26152e-16 0)
(3 6.69771e-16 0)
(3 3.24705e-16 0)
(3 -1.74492e-16 0)
(3 1.48945e-16 0)
(3 3.36586e-16 0)
(3 2.68736e-16 0)
(3 5.9976e-16 0)
(3 7.98222e-16 0)
(3 1.00622e-15 0)
(3 1.06585e-15 0)
(3 6.93804e-16 0)
(3 2.43007e-16 0)
(3 5.79791e-16 0)
(3 1.09059e-15 0)
(3 1.28136e-15 0)
(3 9.68766e-16 0)
(1.78386 1.1015 0)
(2.24576 0.648168 0)
(3 4.90416e-16 0)
(3 6.9994e-17 0)
(3 -1.58715e-16 0)
(3 -4.02536e-16 0)
(3 1.2892e-16 0)
(3 1.02657e-15 0)
(3 2.06912e-15 0)
(3 1.88806e-15 0)
(3 1.4431e-15 0)
(3 1.56633e-15 0)
(3 1.89747e-15 0)
(3 2.17846e-15 0)
(3 1.76654e-15 0)
(3 9.52981e-16 0)
(3 3.73027e-16 0)
(3 3.65768e-16 0)
(3 5.18013e-17 0)
(3 -2.13744e-16 0)
(1.80291 1.00777 0)
(2.43408 0.451082 0)
(3 -6.04314e-16 0)
(3 9.54328e-17 0)
(3 4.90048e-16 0)
(3 6.40116e-16 0)
(3 8.26709e-16 0)
(3 2.00082e-15 0)
(3 3.10273e-15 0)
(3 2.81767e-15 0)
(3 2.15615e-15 0)
(3 1.38929e-15 0)
(3 9.09706e-16 0)
(3 1.14175e-15 0)
(3 1.76053e-15 0)
(3 1.50708e-15 0)
(3 4.93362e-16 0)
(3 2.22002e-17 0)
(3 -3.38628e-16 0)
(3 -1.24119e-16 0)
(1.92125 0.884124 0)
(2.68683 0.225374 0)
(3 9.15867e-16 0)
(3 1.65837e-15 0)
(3 1.47025e-15 0)
(3 1.48164e-15 0)
(3 1.42931e-15 0)
(3 1.44456e-15 0)
(3 1.71273e-15 0)
(3 1.7754e-15 0)
(3 2.09569e-15 0)
(3 2.27474e-15 0)
(3 2.03503e-15 0)
(3 9.78539e-16 0)
(3 4.39327e-16 0)
(3 2.71992e-16 0)
(3 -4.4062e-17 0)
(3 -1.73641e-17 0)
(3 -5.52877e-17 0)
(3 -1.361e-16 0)
(2.10588 0.669161 0)
(2.98952 0.000152493 0)
(3 3.06609e-15 0)
(3 2.85752e-15 0)
(3 2.60991e-15 0)
(3 8.97651e-16 0)
(3 6.66476e-16 0)
(3 5.27149e-16 0)
(3 9.12787e-16 0)
(3 9.79832e-16 0)
(3 1.61814e-15 0)
(3 2.38264e-15 0)
(3 3.20688e-15 0)
(3 3.27394e-15 0)
(3 3.14001e-15 0)
(3 2.82257e-15 0)
(3 2.86849e-15 0)
(3 2.97963e-15 0)
(3 2.6464e-15 0)
(3 1.38615e-15 0)
(1.99545 0.368544 0)
(2.99992 -9.5375e-06 0)
(3 1.97646e-15 0)
(3 1.71068e-15 0)
(3 1.1006e-15 0)
(3 -9.53353e-17 0)
(3 -2.84331e-16 0)
(3 -2.72129e-16 0)
(3 -1.31398e-17 0)
(3 -2.35547e-16 0)
(3 -1.98742e-17 0)
(3 1.08324e-16 0)
(3 4.42955e-16 0)
(3 5.65245e-16 0)
(3 6.78972e-16 0)
(3 8.84621e-16 0)
(3 7.62849e-16 0)
(3 7.09585e-16 0)
(3 6.64371e-16 0)
(3 7.39106e-16 0)
(1.99545 -0.368544 0)
(2.99992 9.53726e-06 0)
(3 1.14677e-15 0)
(3 7.208e-16 0)
(3 -1.85264e-17 0)
(3 -7.37208e-16 0)
(3 -1.52358e-15 0)
(3 -1.54608e-15 0)
(3 -1.46143e-15 0)
(3 -7.05485e-16 0)
(3 -8.78674e-16 0)
(3 -1.73758e-15 0)
(3 -2.03294e-15 0)
(3 -2.18774e-15 0)
(3 -2.01291e-15 0)
(3 -1.78487e-15 0)
(3 -1.81508e-15 0)
(3 -1.92768e-15 0)
(3 -2.00542e-15 0)
(3 -1.94787e-15 0)
(2.10588 -0.669159 0)
(2.98952 -0.000152499 0)
(3 7.83469e-16 0)
(3 5.16996e-16 0)
(3 -4.73373e-16 0)
(3 -1.2222e-15 0)
(3 -1.19474e-15 0)
(3 -9.35476e-16 0)
(3 -5.12975e-16 0)
(3 -1.63697e-16 0)
(3 -7.75143e-16 0)
(3 -1.35025e-15 0)
(3 -1.21381e-15 0)
(3 -1.35729e-15 0)
(3 -1.61531e-15 0)
(3 -1.54945e-15 0)
(3 -1.33346e-15 0)
(3 -1.30193e-15 0)
(3 -1.54239e-15 0)
(3 -1.40138e-15 0)
(1.92125 -0.884124 0)
(2.68683 -0.225374 0)
(3 2.82023e-16 0)
(3 -2.4958e-16 0)
(3 -1.47158e-15 0)
(3 -1.9746e-15 0)
(3 -2.20357e-15 0)
(3 -1.85311e-15 0)
(3 -1.89637e-15 0)
(3 -2.13765e-15 0)
(3 -1.90621e-15 0)
(3 -1.52514e-15 0)
(3 -5.7235e-16 0)
(3 9.0278e-16 0)
(3 8.64628e-16 0)
(3 4.47964e-16 0)
(3 2.82389e-16 0)
(3 2.252e-16 0)
(3 2.74301e-16 0)
(3 1.06343e-16 0)
(1.80291 -1.00778 0)
(2.43408 -0.451083 0)
(3 -1.18213e-15 0)
(3 -2.17901e-15 0)
(3 -2.49242e-15 0)
(3 -2.33119e-15 0)
(3 -2.13981e-15 0)
(3 -1.82867e-15 0)
(3 -1.62982e-15 0)
(3 -1.36169e-15 0)
(3 -1.47433e-15 0)
(3 -1.76192e-15 0)
(3 -2.09044e-15 0)
(3 -2.48192e-15 0)
(3 -2.32949e-15 0)
(3 -2.0337e-15 0)
(3 -1.84708e-15 0)
(3 -1.50377e-15 0)
(3 -1.13018e-15 0)
(3 -7.6256e-16 0)
(1.78386 -1.1015 0)
(2.24576 -0.648168 0)
(3 -2.11193e-15 0)
(3 -2.43538e-15 0)
(3 -2.42894e-15 0)
(3 -1.7969e-15 0)
(3 -1.86716e-15 0)
(3 -1.40348e-15 0)
(3 -8.70371e-16 0)
(3 -5.21758e-16 0)
(3 -3.41547e-16 0)
(3 -3.76176e-16 0)
(3 -3.92362e-16 0)
(3 -9.13987e-16 0)
(3 -1.01164e-15 0)
(3 -9.33879e-16 0)
(3 -5.60595e-16 0)
(3 1.50721e-16 0)
(3 2.87124e-16 0)
(3 3.42674e-16 0)
(1.70512 -1.16895 0)
(2.0584 -0.818626 0)
(3 -1.22876e-15 0)
(3 -1.9081e-15 0)
(3 -1.69087e-15 0)
(3 -1.2904e-15 0)
(3 -1.26649e-15 0)
(3 -1.06566e-15 0)
(3 -5.0156e-16 0)
(3 -1.42881e-16 0)
(3 -1.19951e-16 0)
(3 -3.53854e-16 0)
(3 -6.44907e-16 0)
(3 -6.94751e-16 0)
(3 -8.88367e-16 0)
(3 -1.22477e-15 0)
(3 -9.2116e-16 0)
(3 -8.40995e-16 0)
(3 -9.95058e-16 0)
(3 -5.62526e-16 0)
(1.67851 -1.19882 0)
(1.90014 -0.97317 0)
(2.99869 -0.00111533 0)
(3 -6.42917e-16 0)
(3 -6.93191e-16 0)
(3 -7.58485e-16 0)
(3 -1.23957e-15 0)
(3 -1.12538e-15 0)
(3 -1.05975e-15 0)
(3 -1.21918e-15 0)
(3 -1.49841e-15 0)
(3 -1.69706e-15 0)
(3 -1.91461e-15 0)
(3 -1.60285e-15 0)
(3 -1.81828e-15 0)
(3 -1.90573e-15 0)
(3 -1.35854e-15 0)
(3 -1.08477e-15 0)
(3 -5.92719e-16 0)
(3 -3.58139e-16 0)
(1.65391 -1.24297 0)
(1.82987 -1.09979 0)
(2.87703 -0.0899495 0)
(3 1.36042e-13 0)
(3 -4.09239e-16 0)
(3 -4.53382e-16 0)
(3 -7.10718e-16 0)
(3 -1.4768e-15 0)
(3 -1.19853e-15 0)
(3 -1.47943e-15 0)
(3 -1.5197e-15 0)
(3 -1.70265e-15 0)
(3 -1.46055e-15 0)
(3 -1.41712e-15 0)
(3 -1.35686e-15 0)
(3 -1.26881e-15 0)
(3 -1.08352e-15 0)
(3 -5.18241e-17 0)
(3 1.62111e-16 0)
(3 -2.82599e-16 0)
(1.6376 -1.2596 0)
(1.61723 -1.25621 0)
(2.64061 -0.301911 0)
(3 -2.74891e-14 0)
(3 -3.03492e-15 0)
(3 -3.63032e-16 0)
(3 -8.24481e-16 0)
(3 -1.5415e-15 0)
(3 -1.64417e-15 0)
(3 -1.83592e-15 0)
(3 -1.4207e-15 0)
(3 -1.27377e-15 0)
(3 -1.30635e-15 0)
(3 -1.64225e-15 0)
(3 -1.59207e-15 0)
(3 -1.23586e-15 0)
(3 -1.21919e-15 0)
(3 -6.25522e-16 0)
(3 -9.30904e-16 0)
(3 -1.84641e-15 0)
(1.62071 -1.27841 0)
(1.57343 -1.30927 0)
(2.43724 -0.523869 0)
(3 -9.41577e-14 0)
(3 1.1759e-12 0)
(3 -1.36827e-14 0)
(3 -1.03716e-15 0)
(3 -1.18938e-15 0)
(3 -1.41821e-15 0)
(3 -1.61608e-15 0)
(3 -1.20997e-15 0)
(3 -1.50851e-15 0)
(3 -1.74021e-15 0)
(3 -1.70058e-15 0)
(3 -1.35981e-15 0)
(3 -1.6635e-15 0)
(3 -1.58189e-15 0)
(3 -1.82602e-15 0)
(3 -1.95365e-15 0)
(3 -3.11234e-15 0)
(1.6044 -1.29479 0)
(1.48008 -1.39412 0)
(2.12455 -0.847228 0)
(3.01107 0.00875053 0)
(3 -9.66117e-10 0)
(3 8.3831e-13 0)
(3 -1.19447e-15 0)
(3 -1.10298e-15 0)
(3 -1.51139e-15 0)
(3 -1.66836e-15 0)
(3 -1.33128e-15 0)
(3 -1.60653e-15 0)
(3 -1.61736e-15 0)
(3 -1.51808e-15 0)
(3 -1.70538e-15 0)
(3 -2.26505e-15 0)
(3 -2.35002e-15 0)
(3 -2.5759e-15 0)
(3 -3.10771e-15 0)
(3 -3.16759e-15 0)
(1.5918 -1.30509 0)
(1.47826 -1.33868 0)
(2.00072 -1.02777 0)
(2.89304 -0.108268 0)
(3 1.04373e-10 0)
(3 1.5996e-13 0)
(3 -4.36262e-15 0)
(3 -7.51077e-16 0)
(3 -1.48558e-15 0)
(3 -1.45854e-15 0)
(3 -1.60792e-15 0)
(3 -1.35244e-15 0)
(3 -1.17487e-15 0)
(3 -1.24848e-15 0)
(3 -1.90598e-15 0)
(3 -2.34913e-15 0)
(3 -2.22331e-15 0)
(3 -2.70516e-15 0)
(3 -2.78502e-15 0)
(3 -2.60333e-15 0)
(1.58931 -1.32927 0)
(1.50274 -1.32706 0)
(1.72165 -1.19971 0)
(2.37335 -0.573138 0)
(3 1.23349e-09 0)
(3 -2.28231e-11 0)
(3 3.31569e-13 0)
(3 -1.54034e-14 0)
(3 -6.85822e-15 0)
(3 -3.32825e-16 0)
(3 -1.20243e-15 0)
(3 -1.14991e-15 0)
(3 -7.68707e-16 0)
(3 -1.63215e-15 0)
(3 -2.33383e-15 0)
(3 -2.18955e-15 0)
(3 -2.98691e-15 0)
(3 -2.8082e-15 0)
(3 -2.36988e-15 0)
(3 -2.19313e-15 0)
(1.58449 -1.29501 0)
(1.55574 -1.30093 0)
(1.68028 -1.23585 0)
(2.1897 -0.832594 0)
(3.02328 0.0221962 0)
(3 -9.48027e-14 0)
(3 -3.14004e-12 0)
(3 -7.39703e-13 0)
(3 5.58171e-13 0)
(3 -1.20861e-14 0)
(3 -1.99903e-15 0)
(3 -1.35904e-15 0)
(3 -1.15846e-15 0)
(3 -2.01324e-15 0)
(3 -2.34163e-15 0)
(3 -1.60402e-15 0)
(3 -3.29725e-15 0)
(3 -2.65901e-15 0)
(3 -2.00176e-15 0)
(3 -1.72244e-15 0)
(1.584 -1.28059 0)
(1.58699 -1.28209 0)
(1.64329 -1.25559 0)
(1.78011 -1.14931 0)
(2.68944 -0.260501 0)
(3 5.77718e-10 0)
(3 -1.37904e-08 0)
(3 1.24395e-08 0)
(3 -5.27641e-10 0)
(3 -2.82909e-12 0)
(3 1.14904e-13 0)
(3 -3.72447e-15 0)
(3 -1.49747e-15 0)
(3 -2.0046e-15 0)
(3 -1.52559e-15 0)
(3 -2.18917e-15 0)
(3 -3.60413e-15 0)
(3 -2.47972e-15 0)
(3 -1.33611e-15 0)
(3 -8.73426e-16 0)
(1.58677 -1.26477 0)
(1.60348 -1.26583 0)
(1.63701 -1.25177 0)
(1.68939 -1.22543 0)
(2.33404 -0.639556 0)
(3.02061 0.0169806 0)
(2.99974 -0.000175869 0)
(3 4.21674e-06 0)
(3 -8.1033e-08 0)
(3 8.42139e-10 0)
(3 -2.40553e-12 0)
(3 1.86675e-14 0)
(3 -1.00891e-15 0)
(3 -1.449e-15 0)
(3 -1.54549e-15 0)
(3 -1.3426e-15 0)
(3 -3.81261e-15 0)
(3 -2.28793e-15 0)
(3 -1.19939e-15 0)
(3 -4.09287e-16 0)
(1.59049 -1.25406 0)
(1.6114 -1.26014 0)
(1.63019 -1.25391 0)
(1.61898 -1.27482 0)
(1.90082 -1.04629 0)
(2.7778 -0.192448 0)
(3.00454 0.00214216 0)
(2.99992 -8.05275e-05 0)
(3 4.77078e-07 0)
(3 -7.94518e-10 0)
(3 9.53896e-15 0)
(3 1.04332e-14 0)
(3 -9.80196e-16 0)
(3 -1.46293e-15 0)
(3 -7.42432e-16 0)
(3 2.16873e-17 0)
(3 -1.88469e-15 0)
(3 -2.62505e-15 0)
(3 -1.58272e-15 0)
(3 4.54523e-16 0)
(1.58867 -1.25293 0)
(1.60658 -1.25742 0)
(1.61429 -1.262 0)
(1.59251 -1.29065 0)
(1.69333 -1.21867 0)
(2.14772 -0.820856 0)
(2.98351 -0.00653922 0)
(3.00049 0.000887887 0)
(3 -1.63983e-07 0)
(3 -7.35739e-11 0)
(3 5.10824e-14 0)
(3 -1.69954e-14 0)
(3 -9.02099e-16 0)
(3 -1.80745e-15 0)
(3 -1.09087e-16 0)
(3 1.30052e-15 0)
(3 1.33234e-15 0)
(3 9.95785e-17 0)
(3 -4.68026e-16 0)
(3 1.28442e-15 0)
(1.58268 -1.25056 0)
(1.59386 -1.26021 0)
(1.59763 -1.27551 0)
(1.59916 -1.28428 0)
(1.65732 -1.26083 0)
(1.74799 -1.21248 0)
(2.30683 -0.713608 0)
(3.00141 -0.0102187 0)
(3 -6.53243e-08 0)
(3 -5.45266e-11 0)
(3 8.8988e-13 0)
(3 -1.54662e-14 0)
(3 -1.71704e-15 0)
(3 -2.29277e-15 0)
(3 3.95775e-16 0)
(3 1.86886e-15 0)
(3 2.43368e-15 0)
(3 2.39134e-15 0)
(3 1.4294e-15 0)
(3 2.55441e-15 0)
(1.57472 -1.25708 0)
(1.58054 -1.26488 0)
(1.58611 -1.2732 0)
(1.59833 -1.27028 0)
(1.62128 -1.25859 0)
(1.6192 -1.26629 0)
(1.90027 -1.17083 0)
(2.9959 -0.340086 0)
(3.30798 0.548 0)
(3 4.70389e-12 0)
(3 -4.19744e-11 0)
(3 1.50961e-13 0)
(3 3.66665e-14 0)
(3 2.27753e-13 0)
(3 5.71184e-15 0)
(3 -5.65888e-15 0)
(3 -3.5173e-16 0)
(3 2.81096e-15 0)
(3 4.38269e-15 0)
(3 5.26844e-15 0)
(1.17204 -0.738551 0)
(1.80978 -1.17372 0)
(1.84376 -1.14454 0)
(1.73426 -1.19778 0)
(1.71258 -1.19995 0)
(1.6698 -1.24461 0)
(1.66507 -1.21754 0)
(1.73073 -1.16899 0)
(1.76131 -1.23034 0)
(1.78957 -1.14203 0)
(2.27304 -0.740856 0)
(2.85671 -0.210978 0)
(3.09626 0.0274949 0)
(3.02081 0.0124695 0)
(3.00455 0.005439 0)
(3.00185 0.00300375 0)
(3.00006 0.000594177 0)
(2.99998 2.30288e-05 0)
(2.99999 -1.43159e-05 0)
(3 -5.90644e-06 0)
(1.01301 -0.0275906 0)
(1.92919 -0.752696 0)
(2.07992 -0.893276 0)
(2.00697 -0.955894 0)
(1.94369 -0.991758 0)
(1.87844 -1.07426 0)
(1.80003 -1.13078 0)
(1.76217 -1.14758 0)
(1.7579 -1.1636 0)
(1.73295 -1.20536 0)
(1.71102 -1.19763 0)
(1.86665 -1.06898 0)
(2.10355 -0.884069 0)
(2.50609 -0.57742 0)
(2.98776 -0.136211 0)
(3.07289 0.0288715 0)
(3.00797 0.00754989 0)
(3.00289 0.00379619 0)
(3.00122 0.00218301 0)
(3.00008 0.000481764 0)
(1.08851 0.000528564 0)
(1.84654 0.136082 0)
(2.23936 -0.139776 0)
(2.23159 -0.516849 0)
(2.18378 -0.66202 0)
(2.14122 -0.760764 0)
(2.03742 -0.900643 0)
(1.97264 -0.955781 0)
(1.90789 -1.02624 0)
(1.85907 -1.11986 0)
(1.78758 -1.15552 0)
(1.7873 -1.1512 0)
(1.80734 -1.13133 0)
(1.8495 -1.08798 0)
(2.03927 -0.952305 0)
(2.2595 -0.828462 0)
(2.66797 -0.499316 0)
(3.03897 -0.0872354 0)
(3.05564 0.0248289 0)
(3.00406 0.00472293 0)
(1.12726 0.465696 0)
(1.77294 0.554475 0)
(2.20878 0.712434 0)
(2.3139 0.109701 0)
(2.35744 -0.0540134 0)
(2.31789 -0.386831 0)
(2.29363 -0.525601 0)
(2.20297 -0.695981 0)
(2.11971 -0.812541 0)
(2.07403 -0.933785 0)
(1.96381 -1.02847 0)
(1.90447 -1.07439 0)
(1.87734 -1.08603 0)
(1.86798 -1.08884 0)
(1.8739 -1.05294 0)
(1.89951 -1.04435 0)
(1.96373 -1.01707 0)
(2.16248 -0.900237 0)
(2.3769 -0.791776 0)
(2.77508 -0.443932 0)
(1.23188 1.01028 0)
(1.50709 1.49982 0)
(2.52106 0.283247 0)
(2.24391 0.92056 0)
(2.33091 0.557185 0)
(2.46298 0.332548 0)
(2.41515 -0.157797 0)
(2.38161 -0.335512 0)
(2.32442 -0.449485 0)
(2.30815 -0.572052 0)
(2.21686 -0.719657 0)
(2.14082 -0.82248 0)
(2.08394 -0.886113 0)
(2.02811 -0.945941 0)
(1.9909 -0.958857 0)
(1.95577 -0.98426 0)
(1.95242 -1.01517 0)
(1.96841 -0.998084 0)
(1.99356 -0.997851 0)
(2.07022 -0.98046 0)
(1.03791 1.31741 0)
(1.58204 1.47442 0)
(2.09701 0.898623 0)
(2.47091 1.2578 0)
(2.51854 0.650319 0)
(2.45744 0.796879 0)
(2.48156 0.51348 0)
(2.46952 0.225126 0)
(2.45548 0.0469216 0)
(2.46159 -0.150738 0)
(2.4215 -0.356477 0)
(2.34169 -0.541493 0)
(2.28507 -0.660034 0)
(2.21324 -0.767378 0)
(2.15867 -0.822174 0)
(2.11401 -0.84769 0)
(2.06232 -0.902496 0)
(2.05656 -0.904577 0)
(2.04022 -0.928283 0)
(2.06243 -0.951485 0)
(1.19433 1.31943 0)
(1.57728 1.4716 0)
(1.89272 1.34946 0)
(2.07225 1.37499 0)
(2.45131 0.992765 0)
(2.56916 0.930252 0)
(2.65142 0.869525 0)
(2.62936 0.340607 0)
(2.60517 0.136064 0)
(2.57682 -0.0459072 0)
(2.55359 -0.205126 0)
(2.48005 -0.385545 0)
(2.44325 -0.477397 0)
(2.38335 -0.579656 0)
(2.33955 -0.616613 0)
(2.30208 -0.62483 0)
(2.25777 -0.651619 0)
(2.24169 -0.66308 0)
(2.17923 -0.743803 0)
(2.13623 -0.789041 0)
(1.32876 1.40997 0)
(1.6192 1.56193 0)
(1.90064 1.66721 0)
(1.99085 1.38497 0)
(1.99077 1.52233 0)
(2.41649 1.09044 0)
(2.74093 0.877814 0)
(2.73212 0.586135 0)
(2.66834 0.386727 0)
(2.62969 0.301675 0)
(2.62611 0.176724 0)
(2.59093 0.00628575 0)
(2.57006 -0.0874882 0)
(2.543 -0.178581 0)
(2.4948 -0.266009 0)
(2.47327 -0.297799 0)
(2.42443 -0.383074 0)
(2.37196 -0.491428 0)
(2.30385 -0.598754 0)
(2.29962 -0.576074 0)
(1.46389 1.56284 0)
(1.57166 1.75012 0)
(1.79326 1.79073 0)
(1.92776 1.49671 0)
(1.97625 1.62819 0)
(2.18916 1.25659 0)
(2.29765 1.37186 0)
(2.40894 1.2842 0)
(2.46971 1.02952 0)
(2.50798 0.863188 0)
(2.55752 0.659117 0)
(2.58684 0.461625 0)
(2.59963 0.286767 0)
(2.62939 0.164844 0)
(2.58649 -0.037686 0)
(2.58669 -0.135036 0)
(2.52883 -0.313857 0)
(2.48795 -0.361957 0)
(2.4349 -0.397325 0)
(2.46815 -0.308526 0)
(1.60346 1.74409 0)
(1.56935 1.97348 0)
(1.54774 2.00977 0)
(1.80746 1.8462 0)
(2.00551 1.8056 0)
(2.18409 1.43979 0)
(2.11527 1.54298 0)
(2.25815 1.45692 0)
(2.38808 1.21673 0)
(2.48368 1.05753 0)
(2.57006 0.789533 0)
(2.63061 0.603647 0)
(2.66179 0.389775 0)
(2.70807 0.24715 0)
(2.67141 0.02776 0)
(2.65559 -0.0510779 0)
(2.62399 -0.151131 0)
(2.60442 -0.0719496 0)
(2.55346 -0.11483 0)
(2.58403 -0.0426393 0)
(1.67864 1.86881 0)
(1.64292 2.12775 0)
(1.68748 2.16347 0)
(1.76998 2.15687 0)
(1.99305 1.94062 0)
(2.10954 1.63929 0)
(2.21554 1.55619 0)
(2.35508 1.47686 0)
(2.50619 1.24711 0)
(2.58378 1.03932 0)
(2.62265 0.800337 0)
(2.67134 0.611031 0)
(2.70592 0.523513 0)
(2.73277 0.412885 0)
(2.73309 0.315254 0)
(2.71064 0.282669 0)
(2.68296 0.239751 0)
(2.67886 0.284469 0)
(2.64539 0.186893 0)
(2.61186 0.00996154 0)
(1.6175 1.83275 0)
(1.79525 2.14534 0)
(1.86281 2.23647 0)
(1.87332 2.26302 0)
(2.09749 1.9777 0)
(2.23368 1.75282 0)
(2.42165 1.51096 0)
(2.51774 1.491 0)
(2.56146 1.48596 0)
(2.59757 1.24716 0)
(2.63875 1.25902 0)
(2.6769 0.996323 0)
(2.66826 0.959088 0)
(2.68682 0.853966 0)
(2.68944 0.737905 0)
(2.68421 0.646974 0)
(2.69179 0.574037 0)
(2.73217 0.495356 0)
(2.71096 0.29219 0)
(2.67845 0.105518 0)
(1.52589 1.77946 0)
(1.84238 2.15204 0)
(1.99226 2.28956 0)
(2.07306 2.30684 0)
(2.2362 2.14034 0)
(2.35946 2.06336 0)
(2.50455 1.74099 0)
(2.49027 1.73516 0)
(2.45889 1.70467 0)
(2.50049 1.55465 0)
(2.49841 1.54145 0)
(2.55423 1.34221 0)
(2.56398 1.21695 0)
(2.60957 1.12711 0)
(2.64442 0.96679 0)
(2.69298 0.852541 0)
(2.75243 0.721424 0)
(2.7906 0.517131 0)
(2.78699 0.359181 0)
(2.73584 0.284473 0)
(1.37216 1.67224 0)
(1.69712 2.08201 0)
(2.01128 2.27915 0)
(2.09507 2.28805 0)
(2.2442 2.21335 0)
(2.3126 2.21285 0)
(2.42316 1.93689 0)
(2.41548 1.89847 0)
(2.33479 1.88745 0)
(2.35081 1.75528 0)
(2.41589 1.62058 0)
(2.50867 1.50877 0)
(2.55778 1.32023 0)