/*--------------------------------*- C++ -*----------------------------------*\
  =========                 |
  \\      /  F ield         | OpenFOAM: The Open Source CFD Toolbox
   \\    /   O peration     | Website:  https://openfoam.org
    \\  /    A nd           | Version:  7
     \\/     M anipulation  |
\*---------------------------------------------------------------------------*/
FoamFile
{
    version     2.0;
    format      ascii;
    class       volScalarField;
    location    "1.5";
    object      T;
}
// * * * * * * * * * * * * * * * * * * * * * * * * * * * * * * * * * * * * * //

dimensions      [0 0 0 1 0 0 0];

internalField   nonuniform List<scalar> 
3700
(
100.539
100.74
100.827
100.923
100.995
101.06
101.076
101.093
101.082
101.073
101.12
101.183
101.184
101.189
101.191
101.183
101.157
101.121
101.086
101.058
100.156
100.251
100.395
100.484
100.505
100.564
100.605
100.609
100.487
100.395
100.464
100.526
100.503
100.507
100.544
100.541
100.475
100.441
100.455
100.432
100.029
100.058
100.092
100.062
99.9893
99.9042
99.8858
99.8909
99.9015
99.9452
99.9897
100.007
100.018
100.023
100.013
100.006
100.004
100.008
100.02
100.039
99.9636
100.018
100.056
100.017
99.9466
99.8934
99.9078
99.8829
99.8907
99.9364
99.978
100.009
100.044
100.068
100.075
100.075
100.068
100.048
100.03
100.041
99.9189
99.9966
100.04
100.011
99.9931
99.9999
100.021
99.9782
99.9592
99.972
99.9746
100.001
100.044
100.075
100.096
100.108
100.122
100.127
100.127
100.12
99.9242
100.028
100.049
100.04
100.063
100.082
100.076
100.084
100.093
100.102
100.069
100.062
100.054
100.069
100.093
100.119
100.143
100.171
100.185
100.208
100.001
100.057
100.054
100.042
100.066
100.096
100.085
100.115
100.158
100.173
100.18
100.173
100.156
100.151
100.139
100.139
100.152
100.191
100.222
100.264
100.125
100.064
100.021
99.9866
100.014
100.062
100.066
100.108
100.164
100.2
100.228
100.227
100.237
100.241
100.244
100.246
100.245
100.248
100.263
100.317
100.182
100.013
99.9312
99.9538
99.992
100.047
100.061
100.098
100.139
100.195
100.233
100.25
100.279
100.291
100.306
100.318
100.325
100.334
100.343
100.385
100.154
99.9159
99.8979
99.9522
100.027
100.078
100.087
100.117
100.146
100.195
100.22
100.255
100.299
100.321
100.345
100.369
100.389
100.403
100.422
100.454
100.075
99.8482
99.9036
99.9963
100.067
100.114
100.167
100.214
100.254
100.297
100.313
100.336
100.353
100.369
100.386
100.411
100.443
100.466
100.506
100.497
100.004
99.789
99.8917
99.9994
100.055
100.121
100.221
100.289
100.347
100.39
100.413
100.433
100.447
100.457
100.469
100.486
100.51
100.534
100.576
100.57
99.9159
99.6832
99.7323
99.9269
100.008
100.115
100.253
100.333
100.401
100.454
100.482
100.499
100.515
100.529
100.551
100.576
100.601
100.622
100.652
100.651
99.7897
99.5806
99.6396
99.8859
100.017
100.266
100.386
100.433
100.487
100.529
100.549
100.564
100.58
100.599
100.629
100.661
100.69
100.713
100.726
100.734
99.6474
99.5426
99.654
99.9333
100.225
100.484
100.539
100.583
100.623
100.644
100.651
100.66
100.672
100.693
100.723
100.749
100.771
100.783
100.778
100.773
99.4929
99.5871
99.8802
100.226
100.482
100.595
100.631
100.673
100.709
100.726
100.737
100.751
100.77
100.795
100.815
100.826
100.823
100.815
100.788
100.742
99.3595
99.718
100.208
100.486
100.637
100.689
100.724
100.759
100.787
100.803
100.816
100.833
100.85
100.857
100.856
100.845
100.793
100.679
100.516
100.277
99.4987
100.112
100.487
100.666
100.762
100.809
100.838
100.864
100.876
100.881
100.881
100.883
100.882
100.86
100.775
100.625
100.359
100.1
100.005
99.9978
100.118
100.525
100.738
100.841
100.888
100.904
100.918
100.923
100.918
100.908
100.893
100.838
100.725
100.47
100.147
100.01
99.9967
99.9985
99.9992
99.9998
100.697
100.838
100.916
100.95
100.963
100.953
100.952
100.929
100.841
100.759
100.571
100.231
100.029
99.9957
99.9977
99.9989
99.9998
100
100
100
101
100.998
100.994
100.991
100.982
100.94
100.871
100.45
99.8454
100
100
100
100
100
100
100
100
100
100
100
100.997
100.994
100.988
100.977
100.962
100.862
100.494
100.015
100
100
100
100
100
100
100
100
100
100
100
100
100.99
100.991
100.987
100.966
100.921
100.637
100.033
99.9994
100
100
100
100
100
100
100
100
100
100
100
100
100.984
100.99
100.985
100.953
100.785
100.248
99.9963
100
100
100
100
100
100
100
100
100
100
100
100
100
100.978
100.987
100.981
100.922
100.561
99.9921
100
100
100
100
100
100
100
100
100
100
100
100
100
100
100.976
100.985
100.978
100.83
100.271
100
100
100
100
100
100
100
100
100
100
100
100
100
100
100
100.975
100.986
100.974
100.706
99.9955
100
100
100
100
100
100
100
100
100
100
100
100
100
100
100
100.982
100.98
100.924
100.466
99.9999
100
100
100
100
100
100
100
100
100
100
100
100
100
100
100
101.001
100.966
100.819
100.148
100
100
100
100
100
100
100
100
100
100
100
100
100
100
100
100
101.014
100.941
100.68
99.9964
100
100
100
100
100
100
100
100
100
100
100
100
100
100
100
100
101.023
100.905
100.501
100
100
100
100
100
100
100
100
100
100
100
100
100
100
100
100
100
101.028
100.851
100.319
100
100
100
100
100
100
100
100
100
100
100
100
100
100
100
100
100
101.033
100.797
100.115
100
100
100
100
100
100
100
100
100
100
100
100
100
100
100
100
100
101.033
100.738
100.011
100
100
100
100
100
100
100
100
100
100
100
100
100
100
100
100
100
101.014
100.67
100
100
100
100
100
100
100
100
100
100
100
100
100
100
100
100
100
100
100.984
100.581
100
100
100
100
100
100
100
100
100
100
100
100
100
100
100
100
100
100
100.947
100.42
100
100
100
100
100
100
100
100
100
100
100
100
100
100
100
100
100
100
100.899
100.211
100
100
100
100
100
100
100
100
100
100
100
100
100
100
100
100
100
100
100.87
100.004
100
100
100
100
100
100
100
100
100
100
100
100
100
100
100
100
100
100
100.816
100
100
100
100
100
100
100
100
100
100
100
100
100
100
100
100
100
100
100
100.816
100
100
100
100
100
100
100
100
100
100
100
100
100
100
100
100
100
100
100
100.87
100.004
100
100
100
100
100
100
100
100
100
100
100
100
100
100
100
100
100
100
100.899
100.211
100
100
100
100
100
100
100
100
100
100
100
100
100
100
100
100
100
100
100.947
100.42
100
100
100
100
100
100
100
100
100
100
100
100
100
100
100
100
100
100
100.984
100.581
100
100
100
100
100
100
100
100
100
100
100
100
100
100
100
100
100
100
101.014
100.67
100
100
100
100
100
100
100
100
100
100
100
100
100
100
100
100
100
100
101.033
100.738
100.011
100
100
100
100
100
100
100
100
100
100
100
100
100
100
100
100
100
101.033
100.797
100.115
100
100
100
100
100
100
100
100
100
100
100
100
100
100
100
100
100
101.028
100.851
100.319
100
100
100
100
100
100
100
100
100
100
100
100
100
100
100
100
100
101.023
100.905
100.501
100
100
100
100
100
100
100
100
100
100
100
100
100
100
100
100
100
101.014
100.941
100.68
99.9964
100
100
100
100
100
100
100
100
100
100
100
100
100
100
100
100
101.001
100.966
100.819
100.148
100
100
100
100
100
100
100
100
100
100
100
100
100
100
100
100
100.982
100.98
100.924
100.466
99.9999
100
100
100
100
100
100
100
100
100
100
100
100
100
100
100
100.975
100.986
100.974
100.706
99.9955
100
100
100
100
100
100
100
100
100
100
100
100
100
100
100
100.976
100.985
100.978
100.83
100.271
100
100
100
100
100
100
100
100
100
100
100
100
100
100
100
100.978
100.987
100.981
100.922
100.561
99.9921
100
100
100
100
100
100
100
100
100
100
100
100
100
100
100.984
100.99
100.985
100.953
100.785
100.248
99.9963
100
100
100
100
100
100
100
100
100
100
100
100
100
100.99
100.991
100.987
100.966
100.921
100.637
100.033
99.9994
100
100
100
100
100
100
100
100
100
100
100
100
100.997
100.994
100.988
100.977
100.962
100.862
100.494
100.015
100
100
100
100
100
100
100
100
100
100
100
100
101
100.998
100.994
100.991
100.982
100.94
100.87
100.45
99.8454
100
100
100
100
100
100
100
100
100
100
100
100.697
100.838
100.916
100.95
100.963
100.953
100.952
100.929
100.841
100.759
100.571
100.231
100.029
99.9957
99.9977
99.9989
99.9998
100
100
100
100.118
100.525
100.739
100.841
100.888
100.904
100.918
100.923
100.918
100.908
100.893
100.838
100.725
100.47
100.147
100.01
99.9967
99.9985
99.9992
99.9998
99.4984
100.111
100.486
100.666
100.762
100.809
100.838
100.863
100.876
100.881
100.881
100.883
100.882
100.86
100.775
100.625
100.359
100.1
100.005
99.9978
99.3608
99.7207
100.207
100.486
100.638
100.689
100.724
100.759
100.787
100.803
100.816
100.833
100.85
100.857
100.856
100.845
100.793
100.679
100.516
100.277
99.4937
99.5839
99.8771
100.221
100.48
100.596
100.631
100.673
100.709
100.726
100.737
100.751
100.77
100.795
100.815
100.826
100.823
100.815
100.788
100.742
99.6512
99.5413
99.6514
99.9307
100.221
100.482
100.538
100.583
100.623
100.644
100.651
100.66
100.672
100.693
100.723
100.749
100.771
100.783
100.778
100.773
99.7939
99.5796
99.6398
99.8873
100.015
100.263
100.385
100.432
100.486
100.528
100.549
100.564
100.58
100.599
100.629
100.661
100.69
100.713
100.726
100.734
99.9173
99.685
99.738
99.9324
100.013
100.117
100.253
100.332
100.401
100.454
100.481
100.499
100.515
100.529
100.551
100.576
100.601
100.622
100.652
100.651
100.003
99.7893
99.8955
100.003
100.061
100.124
100.221
100.289
100.347
100.39
100.413
100.433
100.447
100.457
100.469
100.486
100.51
100.534
100.576
100.57
100.075
99.8476
99.9047
99.998
100.07
100.116
100.168
100.215
100.254
100.297
100.313
100.336
100.353
100.369
100.386
100.411
100.443
100.466
100.506
100.497
100.154
99.9182
99.9
99.954
100.029
100.081
100.088
100.118
100.146
100.196
100.221
100.255
100.299
100.321
100.345
100.369
100.389
100.403
100.422
100.454
100.179
100.017
99.9357
99.9564
99.9942
100.05
100.064
100.1
100.14
100.195
100.233
100.25
100.279
100.291
100.306
100.318
100.325
100.334
100.343
100.386
100.116
100.065
100.026
99.9908
100.017
100.065
100.068
100.11
100.165
100.201
100.228
100.227
100.236
100.241
100.244
100.246
100.244
100.248
100.263
100.317
99.9925
100.057
100.055
100.044
100.067
100.098
100.086
100.116
100.158
100.173
100.18
100.173
100.156
100.15
100.139
100.138
100.152
100.191
100.222
100.264
99.9184
100.025
100.049
100.04
100.063
100.082
100.077
100.084
100.093
100.101
100.068
100.061
100.054
100.069
100.093
100.119
100.143
100.171
100.184
100.208
99.9156
99.9947
100.04
100.01
99.991
99.9977
100.02
99.9771
99.9579
99.9711
99.9742
100.001
100.043
100.075
100.096
100.108
100.122
100.127
100.127
100.12
99.9633
100.017
100.057
100.018
99.9483
99.8918
99.9066
99.8828
99.8909
99.9361
99.9778
100.009
100.043
100.068
100.075
100.075
100.068
100.048
100.03
100.041
100.03
100.058
100.093
100.064
99.9918
99.9023
99.8874
99.8908
99.9024
99.946
99.9897
100.007
100.018
100.023
100.013
100.007
100.004
100.008
100.02
100.039
100.158
100.251
100.369
100.431
100.509
100.576
100.571
100.456
100.478
100.534
100.454
100.441
100.508
100.552
100.524
100.512
100.524
100.502
100.45
100.399
100.538
100.743
100.823
100.901
100.998
101.062
101.072
101.065
101.077
101.107
101.123
101.146
101.185
101.198
101.192
101.181
101.162
101.133
101.09
101.05
101.054
101.029
100.998
100.961
100.918
100.881
100.872
100.876
100.862
100.769
100.558
100.311
100.135
100.052
100.009
99.9787
99.968
99.9639
99.9632
99.9774
100.566
100.642
100.689
100.714
100.713
100.72
100.744
100.791
100.799
100.742
100.575
100.361
100.179
100.066
100.007
99.973
99.9632
99.9605
99.9617
99.9774
100.038
100.063
100.156
100.28
100.356
100.418
100.502
100.599
100.676
100.665
100.581
100.43
100.256
100.111
100.019
99.9729
99.9631
99.9605
99.9602
99.9766
100.086
100.093
100.096
100.083
100.072
100.112
100.241
100.395
100.525
100.568
100.545
100.458
100.316
100.16
100.037
99.9713
99.9585
99.9574
99.9594
99.978
100.122
100.141
100.14
100.123
100.102
100.098
100.1
100.185
100.36
100.473
100.481
100.444
100.339
100.192
100.058
99.9724
99.9531
99.9527
99.9568
99.9781
100.181
100.186
100.188
100.163
100.138
100.136
100.126
100.11
100.163
100.342
100.408
100.389
100.322
100.2
100.069
99.9778
99.9499
99.9482
99.9531
99.9774
100.239
100.236
100.229
100.201
100.178
100.176
100.164
100.122
100.111
100.152
100.269
100.306
100.27
100.179
100.07
99.9832
99.9486
99.9459
99.9523
99.9778
100.296
100.287
100.278
100.253
100.222
100.211
100.191
100.156
100.12
100.107
100.109
100.148
100.132
100.097
100.046
99.9873
99.9485
99.9424
99.9502
99.978
100.359
100.338
100.324
100.299
100.268
100.245
100.216
100.177
100.14
100.115
100.092
100.052
99.9816
99.9584
99.9796
99.9705
99.9485
99.9412
99.9502
99.9788
100.43
100.393
100.366
100.342
100.31
100.276
100.243
100.202
100.162
100.131
100.09
100.047
99.9788
99.8906
99.8956
99.9244
99.9333
99.9372
99.9511
99.9806
100.536
100.455
100.377
100.356
100.34
100.315
100.289
100.254
100.196
100.134
100.103
100.067
99.9947
99.9058
99.8857
99.8971
99.9175
99.9361
99.955
99.9834
100.617
100.55
100.473
100.415
100.375
100.332
100.302
100.275
100.232
100.175
100.128
100.071
99.9882
99.8975
99.8776
99.8872
99.9089
99.9357
99.961
99.9876
100.608
100.586
100.54
100.479
100.424
100.362
100.302
100.27
100.227
100.181
100.135
100.083
100.013
99.9394
99.905
99.9027
99.9129
99.9402
99.9688
99.9919
100.488
100.546
100.54
100.51
100.465
100.415
100.353
100.294
100.237
100.179
100.133
100.08
100.013
99.9476
99.9288
99.9316
99.9428
99.9632
99.983
99.9965
100.251
100.375
100.445
100.473
100.463
100.434
100.385
100.323
100.267
100.206
100.137
100.074
100.01
99.9578
99.9508
99.9573
99.9725
99.9878
99.9963
99.9995
100.041
100.149
100.255
100.328
100.378
100.382
100.369
100.335
100.283
100.228
100.162
100.1
100.048
100.015
100.005
100.006
100.007
100.007
100.002
100
100.002
100.016
100.067
100.15
100.218
100.266
100.277
100.272
100.253
100.22
100.177
100.128
100.084
100.056
100.041
100.031
100.019
100.007
100.001
100
100
100
100.004
100.023
100.068
100.126
100.166
100.182
100.177
100.164
100.143
100.115
100.086
100.063
100.045
100.03
100.016
100.004
100
100
100
100
100
100.001
100.005
100.02
100.052
100.085
100.105
100.105
100.099
100.087
100.07
100.053
100.036
100.02
100.007
100.001
100
100
100
100
100
100
100
100.001
100.003
100.011
100.026
100.038
100.044
100.042
100.036
100.026
100.014
100.005
100.001
100
100
100
100
100
100
100
100
100
100
100
100.001
100.003
100.005
100.005
100.005
100.003
100.001
100
100
100
100
100
100
100
100
100
100
100
100
100
100
100
100
100
100
100
100
100
100
100
100
100
100
100
100
100
100
100
100
100
100
100
100
100
100
100
100
100
100
100
100
100
100
100
100
100
100
100
100
100
100
100
100
100
100
100
100
100
100
100
100
100
100
100
100
100
100
100
100
100
100
100
100
100
100
100
100
100
100
100
100
100
100.597
100.654
100.61
100.416
100.143
100.018
100.001
100
100
100
100
100
100
100
100
100.672
100.663
100.518
100.218
100.022
100
100
100
100
100
100
100
100
100
100
100.703
100.635
100.373
100.074
100.002
100
100
100
100
100
100
100
100
100
100
100.718
100.518
100.168
100.009
100
100
100
100
100
100
100
100
100
100
100
100.65
100.284
100.024
100
100
100
100
100
100
100
100
100
100
100
100
100.391
100.037
100
100
100
100
100
100
100
100
100
100
100
100
100
100.042
100
100
100
100
100
100
100
100
100
100
100
100
100
100
99.9995
100
100
100
100
100
100
100
100
100
100
100
100
100
100
100
100
100
100
100
100
100
100
100
100
100
100
100
100
100
100
100
100
100
100
100
100
100
100
100
100
100
100
100
100
100
100
100
100
100
100
100
100
100
100
100
100
100
100
100
100
100
100
100
100
100
100
100
100
100
100
100
100
100
100
100
100
100
100
100
100
100
100
100
100
100
100
100
100
100
100
100
100
100
100
100
100
100
100
100
100
100
100
100
100
100
100
100
100
100
100
100
100
100
100
100
100
100
100
100
100
100
100
100
100
100
100
100
100
100
100
100
100
100
100
100
100
100
100
100
100
100
100
100
100
100
100
100
100
100
100
100
100
100
100
100
100
100
100
100
100
100
100
100
100
100
100
100
100
100
100
100
100
100
100
100
100
100
100
100
100
100
100
100
100
100
100
100
100
100
100
100
100
100
100
100
100
100
100
100
100
100
100
100
100
100
100
100
100
100
100
100
100
100
100
100
100
100
100
100
100
100
100
100
100
100
100
100
100
100
100
100
100
100
100
100
100
100
100
100
100
100
100
100
100
100
100
100
100
100
100
100
100
100
100
100
100
100
100
100
100
100
100
100
100
100
100
100
100
100
100
100
100
100
100
100
100
100
100
100
100
100
100
100
100
100
100
100
100
100
100
100
100
100
100
100
100
100
100
100
100
100
100
100
100
100
100
100
100
100
100
100
100
100
100
100
100
100
100
100
100
100
100
100
100
100
100
100
100
100
100
100
100
100
100
100
100
100
100
100
100
100
100
100
100
100
100
100
100
100
100
100
100
100
100
100
100
100
100
100
100
100
100
100
100
100
100
100
100
100
100
100
100
100
100
100
100
100
100
100
100
100
100
100
100
100
100
100
100
100
100
100
100
100
100
100
100
100
100
100
100
100
100
100
100
100
100
100
100
100
100
100
100
100
100
100
100
100
100
100
100
100
100
100
100
100
100
100
100
100
100
100
100
100
100
100
100
100
100
100
100
100
100
100
100
100
100
100
100
100
100
100
100
100
100
100
100
100
100
100
100
100
100
100
100
100
100
100
100
100
100
100
100
100
100
100
100
100
100
100
100
100
100
100
100
100
100
100
100
100
100
100
100
100
100
100
100
100
100
100
100
100
100
100
100
100
100
100
100
100
100
100
100
100
100
100
100
100
100
100
100
100
100
100
100
100
100
100
100
100
100
100
100
100
100
100
100
100
100
100
100
100
100
100
100
100
100
100
100
100
100
100
100
100
100
100
100
100
100
100
100
100
100
100
100
100
100
100
100
100
100
100
100
100
100
100
100
100
100
100
100
100
100
100
100
100
100
100
100
100
100
100
100
100
100
100
100
100
100
100
100
100
100
100
100
100
100
100
100
100
100
100
100
100
100
100
100
100
100
100
100
100
100
100
100
100
100
100
100
100
100
100
100
100
100
100
100
100
100
100
100
100
100
100
100
100
100
100
100
100
100
100
100
100
100
100
100
100
100
100
100
100
100
100
100
100
100
100
100
100
100
100
100
100
100
100
100
100
100
100
100
100
100
100
100
100
100
100
100
100
100
100
100
100
100
100
100
100
100
100
100
100
100
100
100
100
100
100
100
100
100
100
100
100
100
100
100
100
100
100
100
100
100
100
100
100
100
100
100
100
100
100
100
100
100
100
100
100
100
100
100
100
100
100
100
100
100
100
100
100
100
100
100
100
100
100
100
100
100
100
100
100
100
100
100
100
100
100
100
100
100
100
100
100
100
100
100
100
100
100
100
100
100
100
100
100
100
100
100
100
100
100
100
100
100
100
100
100
100
100
100
100
100
100
100
100
100
100
100
100
100
100
100
100
100
100
100
100
100
100
100
100
100
100
100
100
100
100
100
100
100
100
100
100
100
100
100
100
100
100
100
100
100
100
100
100
100
100
100
100
100
100
100
100
100
100
100
100
100
100
100
100
100
100
100
100
100
100
100
100
100
100
100
100
100
99.9995
100
100
100
100
100
100
100
100
100
100
100
100
100
100
100.042
100
100
100
100
100
100
100
100
100
100
100
100
100
100
100.391
100.037
100
100
100
100
100
100
100
100
100
100
100
100
100
100.65
100.284
100.024
100
100
100
100
100
100
100
100
100
100
100
100
100.718
100.518
100.168
100.009
100
100
100
100
100
100
100
100
100
100
100
100.703
100.635
100.373
100.074
100.002
100
100
100
100
100
100
100
100
100
100
100.672
100.663
100.518
100.218
100.022
100
100
100
100
100
100
100
100
100
100
100.597
100.654
100.61
100.416
100.143
100.018
100.001
100
100
100
100
100
100
100
100
100.536
100.617
100.608
100.488
100.251
100.041
100.002
100
100
100
100
100
100
100
100
100.455
100.55
100.586
100.546
100.375
100.149
100.016
100
100
100
100
100
100
100
100
100.378
100.473
100.54
100.54
100.445
100.255
100.067
100.004
100
100
100
100
100
100
100
100.355
100.416
100.479
100.51
100.473
100.328
100.15
100.023
100.001
100
100
100
100
100
100
100.34
100.375
100.424
100.465
100.463
100.378
100.218
100.068
100.005
100
100
100
100
100
100
100.314
100.331
100.363
100.415
100.434
100.382
100.266
100.126
100.02
100.001
100
100
100
100
100
100.289
100.301
100.303
100.353
100.384
100.369
100.277
100.166
100.052
100.003
100
100
100
100
100
100.255
100.275
100.269
100.294
100.323
100.335
100.272
100.182
100.085
100.011
100
100
100
100
100
100.199
100.232
100.226
100.236
100.267
100.283
100.253
100.177
100.105
100.026
100.001
100
100
100
100
100.135
100.177
100.18
100.178
100.206
100.228
100.22
100.164
100.105
100.038
100.003
100
100
100
100
100.102
100.129
100.135
100.131
100.137
100.162
100.177
100.143
100.099
100.044
100.005
100
100
100
100
100.065
100.073
100.084
100.079
100.074
100.101
100.128
100.115
100.087
100.042
100.005
100
100
100
100
99.994
99.9907
100.016
100.013
100.009
100.048
100.084
100.086
100.07
100.036
100.005
100
100
100
100
99.9055
99.9012
99.9427
99.9471
99.9571
100.015
100.056
100.063
100.053
100.026
100.003
100
100
100
100
99.8854
99.8785
99.908
99.9289
99.9501
100.004
100.041
100.045
100.036
100.014
100.001
100
100
100
100
99.8965
99.8876
99.9051
99.9319
99.9566
100.005
100.031
100.03
100.02
100.005
100
100
100
100
100
99.9177
99.9089
99.9139
99.9429
99.9719
100.007
100.019
100.016
100.007
100.001
100
100
100
100
100
99.9365
99.9357
99.94
99.9629
99.9875
100.007
100.007
100.004
100.001
100
100
100
100
100
100
99.9552
99.961
99.9685
99.9828
99.9962
100.002
100.001
100
100
100
100
100
100
100
100
99.9834
99.9876
99.9919
99.9964
99.9995
100
100
100
100
100
100
100
100
100
100
100.43
100.394
100.367
100.342
100.31
100.276
100.243
100.204
100.163
100.132
100.09
100.044
99.9773
99.8907
99.895
99.9237
99.9336
99.9379
99.9513
99.9805
100.359
100.338
100.324
100.298
100.267
100.245
100.215
100.176
100.14
100.115
100.092
100.05
99.9774
99.9558
99.9792
99.9694
99.9482
99.9416
99.9502
99.9788
100.296
100.288
100.278
100.253
100.222
100.212
100.19
100.155
100.119
100.109
100.108
100.145
100.127
100.092
100.045
99.9891
99.9494
99.9425
99.9501
99.9779
100.239
100.237
100.228
100.201
100.178
100.176
100.163
100.118
100.109
100.151
100.266
100.301
100.267
100.179
100.07
99.9845
99.949
99.9458
99.9522
99.9778
100.181
100.186
100.188
100.163
100.139
100.136
100.126
100.108
100.16
100.339
100.409
100.391
100.323
100.202
100.071
99.9781
99.95
99.9483
99.9529
99.9774
100.122
100.141
100.14
100.123
100.103
100.098
100.1
100.185
100.357
100.47
100.482
100.447
100.345
100.197
100.06
99.9726
99.9531
99.9527
99.9563
99.9778
100.086
100.093
100.096
100.083
100.072
100.112
100.241
100.395
100.524
100.567
100.545
100.46
100.32
100.163
100.038
99.971
99.9584
99.9575
99.9594
99.9776
100.037
100.064
100.156
100.28
100.356
100.418
100.502
100.599
100.677
100.666
100.58
100.426
100.253
100.108
100.018
99.9727
99.9626
99.9602
99.961
99.9773
100.558
100.644
100.689
100.714
100.713
100.719
100.745
100.792
100.799
100.742
100.573
100.352
100.17
100.062
100.006
99.973
99.9627
99.9596
99.9599
99.9764
101.05
101.03
100.999
100.961
100.918
100.88
100.875
100.879
100.864
100.769
100.557
100.308
100.133
100.052
100.01
99.9787
99.9677
99.9635
99.9627
99.9773
)
;

boundaryField
{
    inlet
    {
        type            fixedValue;
        value           uniform 100;
    }
    outlet
    {
        type            inletOutlet;
        inletValue      uniform 100;
        value           nonuniform List<scalar> 
50
(
99.9836
99.9877
99.9921
99.9965
99.9995
100
100
100
100
100
100
100
100
100
100
99.9776
99.9775
99.9768
99.9782
99.9783
99.9775
99.978
99.9782
99.979
99.9808
99.9807
99.9789
99.9781
99.978
99.9776
99.978
99.9777
99.9775
99.9766
99.9774
99.9836
99.9877
99.992
99.9965
99.9995
100
100
100
100
100
100
100
100
100
100
)
;
    }
    airfoil
    {
        type            zeroGradient;
    }
    top
    {
        type            symmetryPlane;
    }
    bottom
    {
        type            symmetryPlane;
    }
    defaultFaces
    {
        type            empty;
    }
}


// ************************************************************************* //
