/*--------------------------------*- C++ -*----------------------------------*\
  =========                 |
  \\      /  F ield         | OpenFOAM: The Open Source CFD Toolbox
   \\    /   O peration     | Website:  https://openfoam.org
    \\  /    A nd           | Version:  7
     \\/     M anipulation  |
\*---------------------------------------------------------------------------*/
FoamFile
{
    version     2.0;
    format      ascii;
    class       volScalarField;
    location    "6";
    object      p;
}
// * * * * * * * * * * * * * * * * * * * * * * * * * * * * * * * * * * * * * //

dimensions      [1 -1 -2 0 0 0 0];

internalField   nonuniform List<scalar> 
3700
(
0.208886
0.271858
0.29616
0.349721
0.354996
0.334531
0.345011
0.360014
0.397496
0.434709
0.450235
0.470894
0.477159
0.483067
0.500917
0.509694
0.497069
0.50678
0.537533
0.53258
0.152851
0.110455
0.102751
0.109233
0.106404
0.0945837
0.102668
0.136464
0.178703
0.204205
0.191058
0.173158
0.169887
0.182334
0.197086
0.196081
0.188787
0.191542
0.206315
0.22127
0.15244
0.0942401
0.064319
0.0497402
0.0472047
0.0514391
0.0588514
0.0696728
0.0770313
0.0826057
0.078483
0.0772433
0.0766751
0.0788191
0.0844866
0.0949536
0.106869
0.118317
0.128906
0.136085
0.143957
0.0847952
0.0537387
0.0428311
0.0422271
0.0478174
0.0564369
0.07216
0.085557
0.100305
0.113742
0.115994
0.118211
0.118628
0.1195
0.121323
0.127949
0.140918
0.157863
0.185759
0.125164
0.0761081
0.0454216
0.0392094
0.0404851
0.0467652
0.055009
0.0692516
0.0835783
0.100356
0.123262
0.136694
0.150814
0.160134
0.167793
0.164848
0.16222
0.164453
0.17608
0.217542
0.099594
0.0655186
0.0393918
0.0377744
0.0406514
0.0508617
0.0613756
0.0717581
0.0826447
0.0968329
0.12065
0.141812
0.167615
0.191574
0.210747
0.22803
0.236704
0.246493
0.249293
0.276528
0.0770428
0.053426
0.0351651
0.0386648
0.0481542
0.0692815
0.0833094
0.0956576
0.104684
0.114038
0.122973
0.140238
0.173667
0.20828
0.23925
0.274145
0.306032
0.339112
0.356681
0.397171
0.0587041
0.0437105
0.0335995
0.0410576
0.0565616
0.080583
0.100144
0.123766
0.149777
0.172284
0.174657
0.185348
0.199938
0.23043
0.268643
0.315092
0.367774
0.425965
0.472524
0.56106
0.0446726
0.0356618
0.0331426
0.0429099
0.0610367
0.0825185
0.103085
0.132414
0.181593
0.226238
0.257379
0.286472
0.311272
0.342866
0.366633
0.400184
0.448544
0.529743
0.605169
0.749744
0.034365
0.0287539
0.0311142
0.0439449
0.064642
0.0815791
0.0991484
0.127793
0.185875
0.255185
0.31613
0.369706
0.433311
0.48835
0.535439
0.58461
0.632137
0.698682
0.802404
0.955446
0.0271119
0.0226653
0.0259063
0.042793
0.0754061
0.100458
0.113904
0.137643
0.186534
0.264191
0.358357
0.444791
0.547578
0.628933
0.719659
0.809344
0.895862
0.970633
1.13733
1.12225
0.0223545
0.018214
0.0226468
0.0482791
0.102266
0.147294
0.178768
0.240143
0.323862
0.402646
0.49962
0.599662
0.712479
0.813598
0.934164
1.08086
1.2283
1.35202
1.54744
1.49544
0.0199212
0.016733
0.0237959
0.0713917
0.143552
0.209017
0.283719
0.402454
0.544133
0.693848
0.82057
0.937454
1.05286
1.16039
1.28632
1.46116
1.66297
1.85142
2.10828
2.08729
0.018216
0.0161556
0.0374449
0.107538
0.174638
0.250043
0.379482
0.547828
0.752025
0.985525
1.16724
1.34383
1.51038
1.67625
1.87673
2.10438
2.33539
2.58579
2.80604
2.99597
0.0140202
0.0178678
0.0609688
0.1398
0.194023
0.293672
0.509421
0.770415
1.09236
1.40656
1.66592
1.9068
2.14153
2.3882
2.69622
2.9835
3.25865
3.51802
3.67385
3.78794
0.00725932
0.0274606
0.0881701
0.168645
0.30235
0.649826
1.03928
1.45701
1.93134
2.32057
2.60389
2.86418
3.13044
3.43063
3.75705
3.95844
4.07936
4.12824
4.03663
3.91123
0.00762722
0.0570658
0.178254
0.332279
0.825168
1.47498
2.05544
2.63585
3.22004
3.59131
3.79653
4.01369
4.21526
4.38419
4.48288
4.40767
4.18878
3.65047
2.78779
1.88444
0.044434
0.175301
0.49337
1.2061
2.13388
2.87729
3.52226
4.22025
4.80938
4.8394
4.74339
4.72852
4.6868
4.52526
4.02455
3.07353
2.09886
1.33533
1.01871
0.992947
0.299006
0.850086
1.96061
3.16156
4.20659
4.86558
5.43821
5.88691
5.74891
5.30365
4.87071
4.32238
3.40059
2.33107
1.42878
1.02994
0.989362
0.994921
0.997321
0.999442
2.31161
3.63609
4.87316
5.72325
6.28688
6.42739
6.56256
6.22078
4.53431
3.20732
2.36883
1.56457
1.08274
0.987513
0.992991
0.996366
0.999179
0.999973
1.00002
1.00001
6.93883
6.894
6.83755
6.93119
7.06255
6.76962
5.98325
2.25312
0.665192
1
1
1
1
1
1
1
1
1
1
1
6.92333
6.86835
6.75606
6.71722
6.83908
5.76578
2.6832
1.02534
1
1
1
1
1
1
1
1
1
1
1
1
6.8148
6.85287
6.82027
6.66019
6.24682
3.4677
1.05885
0.998706
1
1
1
1
1
1
1
1
1
1
1
1
6.65988
6.81173
6.82836
6.67236
4.70415
1.4191
0.993115
1.00013
0.999999
1
1
1
1
1
1
1
1
1
1
1
6.52143
6.74928
6.78068
6.13579
2.62757
0.976524
1.00035
0.999994
1
1
1
1
1
1
1
1
1
1
1
1
6.45211
6.72998
6.70538
4.91687
1.48351
1
1
1
1
1
1
1
1
1
1
1
1
1
1
1
6.41996
6.78909
6.72274
3.58911
0.980792
1
1
1
1
1
1
1
1
1
1
1
1
1
1
1
6.53143
6.70232
6.0773
2.00991
0.999974
1
1
1
1
1
1
1
1
1
1
1
1
1
1
1
6.9609
6.59727
4.84926
1.22656
1
1
1
1
1
1
1
1
1
1
1
1
1
1
1
1
7.28634
6.41419
3.42863
0.987672
1
1
1
1
1
1
1
1
1
1
1
1
1
1
1
1
7.45532
5.98222
2.28117
1
1
1
1
1
1
1
1
1
1
1
1
1
1
1
1
1
7.51353
5.35755
1.60022
1
1
1
1
1
1
1
1
1
1
1
1
1
1
1
1
1
7.54531
4.75177
1.16394
1
1
1
1
1
1
1
1
1
1
1
1
1
1
1
1
1
7.34205
4.03231
1.01358
1
1
1
1
1
1
1
1
1
1
1
1
1
1
1
1
1
7.1685
3.27386
1
1
1
1
1
1
1
1
1
1
1
1
1
1
1
1
1
1
7.0531
2.47883
1
1
1
1
1
1
1
1
1
1
1
1
1
1
1
1
1
1
6.61684
1.84565
1
1
1
1
1
1
1
1
1
1
1
1
1
1
1
1
1
1
6.31683
1.36228
1
1
1
1
1
1
1
1
1
1
1
1
1
1
1
1
1
1
5.74775
1.00579
1
1
1
1
1
1
1
1
1
1
1
1
1
1
1
1
1
1
4.63936
1.00009
1
1
1
1
1
1
1
1
1
1
1
1
1
1
1
1
1
1
4.63585
1.00009
1
1
1
1
1
1
1
1
1
1
1
1
1
1
1
1
1
1
5.74523
1.00599
1
1
1
1
1
1
1
1
1
1
1
1
1
1
1
1
1
1
6.326
1.36795
1
1
1
1
1
1
1
1
1
1
1
1
1
1
1
1
1
1
6.61039
1.85324
1
1
1
1
1
1
1
1
1
1
1
1
1
1
1
1
1
1
7.03903
2.47409
1
1
1
1
1
1
1
1
1
1
1
1
1
1
1
1
1
1
7.17693
3.26146
1
1
1
1
1
1
1
1
1
1
1
1
1
1
1
1
1
1
7.34096
4.03581
1.01639
1
1
1
1
1
1
1
1
1
1
1
1
1
1
1
1
1
7.54247
4.75717
1.16692
1
1
1
1
1
1
1
1
1
1
1
1
1
1
1
1
1
7.51285
5.36325
1.60093
1
1
1
1
1
1
1
1
1
1
1
1
1
1
1
1
1
7.45255
5.97134
2.2866
1
1
1
1
1
1
1
1
1
1
1
1
1
1
1
1
1
7.29042
6.42254
3.4201
0.98774
1
1
1
1
1
1
1
1
1
1
1
1
1
1
1
1
6.96278
6.59972
4.85288
1.22629
1
1
1
1
1
1
1
1
1
1
1
1
1
1
1
1
6.5185
6.67522
6.05203
2.01398
0.999983
1
1
1
1
1
1
1
1
1
1
1
1
1
1
1
6.42635
6.7982
6.73921
3.58184
0.976409
1
1
1
1
1
1
1
1
1
1
1
1
1
1
1
6.46138
6.75015
6.72674
4.92518
1.49551
1
1
1
1
1
1
1
1
1
1
1
1
1
1
1
6.52819
6.74919
6.77872
6.10815
2.63838
0.976535
1.00035
0.999994
1
1
1
1
1
1
1
1
1
1
1
1
6.65609
6.79723
6.82089
6.67776
4.70259
1.4069
0.993366
1.00013
0.999999
1
1
1
1
1
1
1
1
1
1
1
6.8116
6.852
6.82556
6.67841
6.24659
3.44725
1.05401
0.998773
1
1
1
1
1
1
1
1
1
1
1
1
6.93586
6.86975
6.76644
6.72634
6.80529
5.76711
2.69712
1.02825
1
1
1
1
1
1
1
1
1
1
1
1
6.93848
6.89193
6.8398
6.92947
7.05906
6.77164
5.98658
2.27347
0.661453
1
1
1
1
1
1
1
1
1
1
1
2.31226
3.63399
4.86298
5.71388
6.29706
6.43027
6.56104
6.22079
4.52918
3.20302
2.36663
1.56294
1.082
0.987483
0.992959
0.99636
0.999183
0.999974
1.00002
1.00001
0.297049
0.864328
1.98557
3.15696
4.19401
4.86751
5.44374
5.88574
5.74598
5.30152
4.87136
4.32454
3.40148
2.33057
1.4284
1.02993
0.989366
0.99492
0.997319
0.99944
0.0379474
0.141582
0.479756
1.21715
2.15179
2.88333
3.52607
4.22221
4.81372
4.8442
4.75419
4.73049
4.68436
4.52218
4.02253
3.07185
2.09847
1.33571
1.01885
0.992943
0.0143484
0.063207
0.15779
0.339411
0.813275
1.46224
2.04814
2.63418
3.22638
3.59992
3.80285
4.01585
4.21438
4.38133
4.48194
4.40721
4.18881
3.65143
2.78921
1.88532
0.0147365
0.0424992
0.0856866
0.137892
0.29237
0.642139
1.02769
1.44885
1.92824
2.32277
2.6081
2.86731
3.13146
3.42996
3.75651
3.95851
4.07972
4.12826
4.03678
3.91147
0.0148095
0.0271706
0.0656688
0.13409
0.204659
0.295443
0.506175
0.765563
1.08918
1.40358
1.66232
1.90139
2.13672
2.38414
2.69336
2.98079
3.25616
3.51648
3.67496
3.78953
0.0165056
0.0185544
0.0481568
0.112664
0.175594
0.253724
0.381725
0.547112
0.751475
0.98307
1.16523
1.34286
1.51031
1.67706
1.87809
2.10515
2.33481
2.586
2.80878
2.99867
0.0188969
0.0174243
0.033462
0.0763572
0.1365
0.210938
0.286671
0.404174
0.545474
0.69743
0.824917
0.943078
1.05813
1.16517
1.28866
1.45917
1.66035
1.85041
2.11079
2.09073
0.0228325
0.0192222
0.0260868
0.0513664
0.0947291
0.149035
0.179783
0.2436
0.327244
0.409298
0.504463
0.60215
0.711549
0.810878
0.928701
1.07643
1.22742
1.35546
1.55201
1.49778
0.0271393
0.0221039
0.0270079
0.044565
0.0700373
0.10242
0.113989
0.139692
0.187733
0.260921
0.35346
0.439257
0.542526
0.624617
0.717006
0.809409
0.899037
0.974484
1.13838
1.1211
0.0330461
0.0265009
0.0304155
0.046135
0.0615371
0.0808063
0.100784
0.128534
0.186104
0.253097
0.314103
0.367299
0.432535
0.487744
0.537106
0.587732
0.636008
0.699635
0.799408
0.953305
0.0424377
0.0337692
0.0322106
0.045276
0.0594487
0.08114
0.105705
0.133371
0.183314
0.226851
0.259196
0.288307
0.313882
0.34551
0.368743
0.401302
0.445935
0.525675
0.601453
0.748228
0.0560771
0.0439998
0.0333556
0.0419861
0.0558277
0.0792867
0.102972
0.125037
0.152544
0.175754
0.176742
0.187385
0.199887
0.228135
0.265105
0.311083
0.363539
0.423002
0.471798
0.562251
0.0730692
0.0568327
0.037161
0.03954
0.0474034
0.0682364
0.0859662
0.0961646
0.105258
0.1151
0.122101
0.137995
0.170217
0.205616
0.236951
0.271893
0.305092
0.338879
0.359785
0.400496
0.0933492
0.0708955
0.0455469
0.0386413
0.0392176
0.0495512
0.0623219
0.0711244
0.0814424
0.095952
0.117988
0.139727
0.166769
0.191448
0.210805
0.229071
0.239565
0.250687
0.252543
0.276777
0.113206
0.0791084
0.053815
0.0397422
0.0392176
0.0449768
0.0544027
0.0680754
0.0819678
0.0990442
0.122638
0.137375
0.151897
0.161789
0.169631
0.169593
0.165774
0.167193
0.175177
0.21386
0.127262
0.0851677
0.0595557
0.0418416
0.0407102
0.0461217
0.0558057
0.0712162
0.0851252
0.0999035
0.11642
0.118473
0.120615
0.120534
0.121372
0.123531
0.128656
0.140078
0.155861
0.184013
0.13689
0.0918927
0.0664873
0.0486326
0.0451085
0.0498637
0.0573699
0.0689693
0.0795702
0.0832279
0.081046
0.079323
0.0779725
0.0790738
0.0840696
0.0945615
0.106313
0.117704
0.128392
0.136995
0.144199
0.107964
0.097468
0.075932
0.0832516
0.11191
0.140443
0.142801
0.13841
0.145666
0.159059
0.171406
0.165024
0.148854
0.147429
0.162642
0.192659
0.221641
0.241936
0.224506
0.210214
0.267243
0.30148
0.304552
0.306246
0.34803
0.373602
0.368851
0.381812
0.426365
0.445776
0.467975
0.473304
0.465813
0.483874
0.507818
0.51175
0.520369
0.532147
0.515598
0.562525
0.635799
0.697413
0.808336
0.848313
0.864321
0.852197
0.839956
0.847559
0.886597
0.950441
0.968908
0.955259
0.934832
0.933646
0.950665
0.972506
0.976334
0.967526
0.953611
0.297193
0.421635
0.54542
0.670246
0.780606
0.861842
0.856344
0.848555
0.854875
0.883826
0.935393
0.959056
0.957409
0.937759
0.930831
0.941342
0.964297
0.977655
0.974358
0.961268
0.137189
0.164185
0.241711
0.333985
0.50878
0.714173
0.783032
0.852639
0.878099
0.891893
0.917985
0.938127
0.943023
0.9435
0.940551
0.940217
0.947181
0.961687
0.965775
0.965609
0.194277
0.21704
0.22264
0.229303
0.2469
0.333949
0.555342
0.751219
0.823551
0.879744
0.905934
0.91441
0.927944
0.948932
0.953432
0.947033
0.945728
0.94968
0.957301
0.964732
0.244119
0.263718
0.277556
0.280639
0.28389
0.288757
0.319346
0.43666
0.650897
0.817286
0.864533
0.888563
0.918449
0.956159
0.963018
0.957129
0.945569
0.940208
0.946315
0.962791
0.30494
0.335223
0.3387
0.320618
0.309413
0.314475
0.33702
0.34311
0.389909
0.521274
0.704809
0.813533
0.887322
0.950612
0.966013
0.965178
0.951884
0.939283
0.943151
0.961375
0.390124
0.416366
0.402309
0.357251
0.34962
0.355725
0.369058
0.384171
0.386239
0.386257
0.44786
0.641819
0.797644
0.934095
0.963296
0.962547
0.951735
0.935922
0.94234
0.961174
0.518436
0.507264
0.485519
0.433386
0.396542
0.396236
0.411825
0.416823
0.414745
0.405923
0.397407
0.437569
0.619136
0.821302
0.927349
0.958742
0.947962
0.934651
0.952336
0.96383
0.67125
0.623491
0.576734
0.505664
0.445408
0.44301
0.445681
0.444802
0.44566
0.435242
0.423768
0.411069
0.442033
0.611639
0.820106
0.946132
0.92105
0.93228
0.962606
0.963519
0.857887
0.761838
0.697897
0.616224
0.524682
0.491881
0.479674
0.475904
0.47653
0.467424
0.457178
0.438376
0.426717
0.451541
0.606932
0.836722
0.882261
0.937801
0.971621
0.960742
1.28107
0.909808
0.797162
0.755098
0.690562
0.591873
0.537062
0.540932
0.535648
0.520615
0.509641
0.495238
0.466469
0.458164
0.474706
0.568187
0.754259
0.895257
0.938923
0.949612
2.05968
1.48502
1.08303
0.965227
0.916254
0.825151
0.687873
0.628836
0.600351
0.570479
0.554655
0.550865
0.529407
0.50485
0.485564
0.490114
0.528667
0.642471
0.789003
0.909471
2.5016
2.18826
1.71864
1.30979
1.09356
0.984772
0.838509
0.72516
0.702331
0.665053
0.650892
0.638035
0.612496
0.573151
0.547838
0.519609
0.52003
0.52995
0.575153
0.75
2.36494
2.34872
2.24096
1.93654
1.53666
1.26894
1.10308
0.93813
0.881625
0.828287
0.767493
0.716393
0.667076
0.614094
0.597293
0.589855
0.570897
0.55285
0.545433
0.582072
1.68277
2.14069
2.22136
2.19414
2.06138
1.76732
1.50077
1.24159
1.06471
0.958824
0.853122
0.795886
0.758174
0.712549
0.698133
0.685265
0.658338
0.6212
0.571876
0.572927
1.10868
1.43644
1.84595
2.11311
2.11389
2.07399
1.9323
1.69336
1.42315
1.23339
1.06759
0.967401
0.92482
0.862476
0.79867
0.746076
0.69688
0.655574
0.629642
0.60675
1.00451
1.04454
1.20458
1.54737
1.86331
2.02153
2.01532
1.97238
1.82889
1.62006
1.41139
1.20944
1.07848
0.977339
0.879965
0.819297
0.775107
0.731812
0.724255
0.697208
1.00009
1.00113
1.01036
1.07903
1.27007
1.5751
1.82251
1.93387
1.92744
1.8856
1.77277
1.58481
1.3821
1.22488
1.08569
1.00014
0.94239
0.884799
0.831626
0.759828
1
1.00001
1.00015
1.00255
1.01924
1.10047
1.29234
1.55806
1.76735
1.85632
1.85166
1.81782
1.71572
1.55703
1.3841
1.21875
1.09742
1.00324
0.924408
0.830284
1
1
1
1.00003
1.00033
1.00388
1.02498
1.109
1.28545
1.52302
1.7028
1.78945
1.78495
1.75641
1.67891
1.5388
1.37979
1.23124
1.12621
0.998742
1
1
1
1
1
1.00005
1.0005
1.00474
1.02654
1.1051
1.26451
1.47741
1.63845
1.72466
1.72263
1.70331
1.64375
1.52764
1.39608
1.19604
1
1
1
1
1
1
1
1.00006
1.00059
1.00468
1.02573
1.09419
1.233
1.42246
1.57667
1.66601
1.66474
1.65253
1.61582
1.4628
1
1
1
1
1
1
1
1
1.00001
1.00006
1.0006
1.00413
1.02208
1.08005
1.19819
1.36849
1.50853
1.61155
1.61327
1.5897
1
1
1
1
1
1
1
1
1
1
1.00001
1.00005
1.00052
1.00345
1.01725
1.06514
1.16325
1.31265
1.44448
1.55118
1
1
1
1
1
1
1
1
1
1
1
1
1.00001
1.00005
1.0004
1.00261
1.01397
1.05094
1.13626
1.3891
1.6187
2.46078
2.58426
2.08703
1.31039
1.03694
1.00187
1.00005
1
1
1
1
1
1
1
2.33944
2.81502
2.5277
1.54175
1.0483
1.00081
1
1
1
1
1
1
1
1
1
2.92908
2.86702
1.98081
1.1523
1.00517
1.00005
1
1
1
1
1
1
1
1
1
3.24908
2.55491
1.36501
1.01957
1.0002
1
1
1
1
1
1
1
1
1
1
3.3216
1.6849
1.04743
1.0005
1
1
1
1
1
1
1
1
1
1
1
2.06783
1.07331
1.00048
0.999999
1
1
1
1
1
1
1
1
1
1
1
1.10104
1.00055
0.999997
1
1
1
1
1
1
1
1
1
1
1
1
0.998149
0.999864
0.999996
1
1
1
1
1
1
1
1
1
1
1
1
0.999967
1
1
1
1
1
1
1
1
1
1
1
1
1
1
1
1
1
1
1
1
1
1
1
1
1
1
1
1
1
1
1
1
1
1
1
1
1
1
1
1
1
1
1
1
1
1
1
1
1
1
1
1
1
1
1
1
1
1
1
1
1
1
1
1
1
1
1
1
1
1
1
1
1
1
1
1
1
1
1
1
1
1
1
1
1
1
1
1
1
1
1
1
1
1
1
1
1
1
1
1
1
1
1
1
1
1
1
1
1
1
1
1
1
1
1
1
1
1
1
1
1
1
1
1
1
1
1
1
1
1
1
1
1
1
1
1
1
1
1
1
1
1
1
1
1
1
1
1
1
1
1
1
1
1
1
1
1
1
1
1
1
1
1
1
1
1
1
1
1
1
1
1
1
1
1
1
1
1
1
1
1
1
1
1
1
1
1
1
1
1
1
1
1
1
1
1
1
1
1
1
1
1
1
1
1
1
1
1
1
1
1
1
1
1
1
1
1
1
1
1
1
1
1
1
1
1
1
1
1
1
1
1
1
1
1
1
1
1
1
1
1
1
1
1
1
1
1
1
1
1
1
1
1
1
1
1
1
1
1
1
1
1
1
1
1
1
1
1
1
1
1
1
1
1
1
1
1
1
1
1
1
1
1
1
1
1
1
1
1
1
1
1
1
1
1
1
1
1
1
1
1
1
1
1
1
1
1
1
1
1
1
1
1
1
1
1
1
1
1
1
1
1
1
1
1
1
1
1
1
1
1
1
1
1
1
1
1
1
1
1
1
1
1
1
1
1
1
1
1
1
1
1
1
1
1
1
1
1
1
1
1
1
1
1
1
1
1
1
1
1
1
1
1
1
1
1
1
1
1
1
1
1
1
1
1
1
1
1
1
1
1
1
1
1
1
1
1
1
1
1
1
1
1
1
1
1
1
1
1
1
1
1
1
1
1
1
1
1
1
1
1
1
1
1
1
1
1
1
1
1
1
1
1
1
1
1
1
1
1
1
1
1
1
1
1
1
1
1
1
1
1
1
1
1
1
1
1
1
1
1
1
1
1
1
1
1
1
1
1
1
1
1
1
1
1
1
1
1
1
1
1
1
1
1
1
1
1
1
1
1
1
1
1
1
1
1
1
1
1
1
1
1
1
1
1
1
1
1
1
1
1
1
1
1
1
1
1
1
1
1
1
1
1
1
1
1
1
1
1
1
1
1
1
1
1
1
1
1
1
1
1
1
1
1
1
1
1
1
1
1
1
1
1
1
1
1
1
1
1
1
1
1
1
1
1
1
1
1
1
1
1
1
1
1
1
1
1
1
1
1
1
1
1
1
1
1
1
1
1
1
1
1
1
1
1
1
1
1
1
1
1
1
1
1
1
1
1
1
1
1
1
1
1
1
1
1
1
1
1
1
1
1
1
1
1
1
1
1
1
1
1
1
1
1
1
1
1
1
1
1
1
1
1
1
1
1
1
1
1
1
1
1
1
1
1
1
1
1
1
1
1
1
1
1
1
1
1
1
1
1
1
1
1
1
1
1
1
1
1
1
1
1
1
1
1
1
1
1
1
1
1
1
1
1
1
1
1
1
1
1
1
1
1
1
1
1
1
1
1
1
1
1
1
1
1
1
1
1
1
1
1
1
1
1
1
1
1
1
1
1
1
1
1
1
1
1
1
1
1
1
1
1
1
1
1
1
1
1
1
1
1
1
1
1
1
1
1
1
1
1
1
1
1
1
1
1
1
1
1
1
1
1
1
1
1
1
1
1
1
1
1
1
1
1
1
1
1
1
1
1
1
1
1
1
1
1
1
1
1
1
1
1
1
1
1
1
1
1
1
1
1
1
1
1
1
1
1
1
1
1
1
1
1
1
1
1
1
1
1
1
1
1
1
1
1
1
1
1
1
1
1
1
1
1
0.999966
1
1
1
1
1
1
1
1
1
1
1
1
1
1
0.998149
0.999864
0.999996
1
1
1
1
1
1
1
1
1
1
1
1
1.10112
1.00055
0.999997
1
1
1
1
1
1
1
1
1
1
1
1
2.06747
1.07324
1.00049
0.999999
1
1
1
1
1
1
1
1
1
1
1
3.32212
1.68439
1.04727
1.00049
1
1
1
1
1
1
1
1
1
1
1
3.24923
2.55451
1.36482
1.01961
1.0002
1
1
1
1
1
1
1
1
1
1
2.92981
2.86652
1.97997
1.15214
1.00517
1.00005
1
1
1
1
1
1
1
1
1
2.33924
2.81491
2.52771
1.54177
1.04829
1.00081
1
1
1
1
1
1
1
1
1
1.61882
2.46065
2.58397
2.08701
1.31038
1.03698
1.00188
1.00005
1
1
1
1
1
1
1
1.27934
2.0606
2.50125
2.36508
1.68477
1.10869
1.00451
1.00009
1
1
1
1
1
1
1
0.899719
1.48853
2.18964
2.34929
2.13799
1.43614
1.04451
1.00113
1.00001
1
1
1
1
1
1
0.799458
1.07699
1.71818
2.24101
2.22032
1.84533
1.20433
1.01034
1.00015
1
1
1
1
1
1
0.760343
0.959107
1.30522
1.9308
2.19391
2.11332
1.54719
1.07897
1.00255
1.00003
1
1
1
1
1
0.689899
0.909016
1.10372
1.54595
2.05926
2.1142
1.86285
1.26972
1.0192
1.00033
1
1
1
1
1
0.600494
0.821661
0.976082
1.27259
1.77622
2.07522
2.02258
1.57453
1.10022
1.00387
1.00005
1
1
1
1
0.544135
0.702778
0.830555
1.08223
1.50025
1.93653
2.01599
1.82273
1.29185
1.0249
1.0005
1
1
1
1
0.539776
0.638013
0.745698
0.947734
1.23055
1.68937
1.97279
1.93375
1.55769
1.10891
1.00474
1.00006
1
1
1
0.530111
0.596442
0.706865
0.896505
1.07291
1.41626
1.8277
1.92689
1.76686
1.28552
1.02659
1.00059
1.00001
1
1
0.513021
0.561161
0.657486
0.825653
0.971077
1.23826
1.61776
1.88505
1.85591
1.52306
1.10525
1.00469
1.00006
1
1
0.507075
0.550728
0.644302
0.752756
0.853911
1.08573
1.41164
1.77288
1.85144
1.70286
1.26463
1.02574
1.0006
1.00001
1
0.497479
0.552005
0.638804
0.709405
0.784159
0.971421
1.21422
1.5833
1.81737
1.78932
1.47742
1.09416
1.00412
1.00005
1
0.473925
0.535082
0.619729
0.668403
0.743534
0.917572
1.07951
1.38094
1.71593
1.78487
1.63833
1.23292
1.02207
1.00052
1.00001
0.453705
0.513186
0.578146
0.613597
0.705005
0.852775
0.976781
1.22597
1.55807
1.75635
1.72444
1.42225
1.08004
1.00345
1.00005
0.46823
0.489952
0.551604
0.596721
0.695081
0.792958
0.881758
1.09182
1.38324
1.6784
1.72234
1.57649
1.19816
1.01724
1.0004
0.561927
0.490894
0.526804
0.592567
0.685175
0.746322
0.819027
0.998947
1.21731
1.53824
1.70308
1.66581
1.36839
1.06518
1.00262
0.748776
0.527265
0.528404
0.577627
0.660396
0.698036
0.771016
0.939746
1.09825
1.37918
1.64334
1.66464
1.50857
1.16325
1.01398
0.894968
0.634659
0.531336
0.554858
0.624808
0.653321
0.730055
0.883297
1.00415
1.23012
1.5277
1.6526
1.61166
1.3127
1.05097
0.942343
0.783234
0.569617
0.546717
0.578643
0.626123
0.725107
0.830374
0.925093
1.12646
1.39663
1.61603
1.61345
1.44469
1.13638
0.952607
0.907543
0.744232
0.583823
0.579879
0.603646
0.699788
0.758141
0.830589
1.00007
1.19645
1.46312
1.58992
1.55148
1.38941
0.858332
0.760218
0.700763
0.622631
0.523695
0.489922
0.483429
0.480311
0.470353
0.463814
0.45684
0.443036
0.427651
0.450252
0.594951
0.817589
0.874622
0.940718
0.977271
0.961638
0.675054
0.622959
0.575943
0.510142
0.448175
0.445395
0.450524
0.448269
0.442532
0.432793
0.428063
0.414338
0.445267
0.616627
0.803019
0.923019
0.909978
0.932699
0.97053
0.965127
0.520471
0.505503
0.484276
0.436854
0.39783
0.396835
0.413788
0.415236
0.411494
0.408109
0.403337
0.44754
0.629178
0.811099
0.921822
0.952552
0.94307
0.941176
0.961159
0.965189
0.389129
0.414637
0.403076
0.359322
0.34568
0.351987
0.36762
0.385117
0.389423
0.391672
0.459663
0.657023
0.800151
0.912447
0.966342
0.967282
0.958712
0.945654
0.951336
0.964649
0.303777
0.334305
0.341764
0.322163
0.310333
0.314318
0.333136
0.341446
0.390958
0.528114
0.716891
0.812206
0.879556
0.947467
0.969173
0.969659
0.961118
0.94681
0.95015
0.964716
0.242343
0.269281
0.272069
0.274481
0.279648
0.286809
0.314355
0.431385
0.656932
0.826277
0.858425
0.876277
0.91195
0.957358
0.968696
0.967437
0.956972
0.944923
0.948486
0.96357
0.193969
0.216166
0.232131
0.233549
0.247811
0.323988
0.535387
0.748479
0.830679
0.893367
0.898202
0.903327
0.923298
0.952779
0.959709
0.958274
0.952912
0.948422
0.950149
0.961251
0.138304
0.158651
0.236571
0.329182
0.507784
0.699692
0.77577
0.853193
0.885706
0.897338
0.908584
0.926172
0.940944
0.947645
0.948523
0.950418
0.952059
0.954221
0.953318
0.957727
0.277371
0.408221
0.535241
0.670994
0.77753
0.853825
0.854533
0.855148
0.865878
0.89544
0.927731
0.951001
0.953083
0.94447
0.93833
0.943953
0.959987
0.965573
0.959747
0.955086
0.554372
0.635097
0.696246
0.809395
0.844251
0.877711
0.862609
0.84563
0.851847
0.888894
0.93451
0.961192
0.961906
0.939358
0.93316
0.948814
0.973904
0.978382
0.967652
0.954139
)
;

boundaryField
{
    inlet
    {
        type            fixedValue;
        value           uniform 1;
    }
    outlet
    {
        type            zeroGradient;
    }
    airfoil
    {
        type            zeroGradient;
    }
    top
    {
        type            symmetryPlane;
    }
    bottom
    {
        type            symmetryPlane;
    }
    defaultFaces
    {
        type            empty;
    }
}


// ************************************************************************* //
