/*--------------------------------*- C++ -*----------------------------------*\
  =========                 |
  \\      /  F ield         | OpenFOAM: The Open Source CFD Toolbox
   \\    /   O peration     | Website:  https://openfoam.org
    \\  /    A nd           | Version:  7
     \\/     M anipulation  |
\*---------------------------------------------------------------------------*/
FoamFile
{
    version     2.0;
    format      ascii;
    class       volScalarField;
    location    "6";
    object      rho;
}
// * * * * * * * * * * * * * * * * * * * * * * * * * * * * * * * * * * * * * //

dimensions      [1 -3 0 0 0 0 0];

internalField   nonuniform List<scalar> 
3700
(
0.290358
0.377512
0.411014
0.485022
0.492437
0.464355
0.478867
0.499179
0.550399
0.601661
0.623189
0.651873
0.660584
0.668649
0.693355
0.7056
0.68845
0.702148
0.74471
0.737758
0.213348
0.154245
0.143424
0.152269
0.148364
0.132077
0.143309
0.190011
0.248301
0.283663
0.265551
0.240962
0.236473
0.253664
0.274162
0.272896
0.263116
0.267137
0.287683
0.308389
0.212679
0.131687
0.0899863
0.0696559
0.06612
0.072038
0.082393
0.0975131
0.107808
0.115615
0.109878
0.108166
0.107392
0.110396
0.118317
0.132939
0.149591
0.165589
0.180392
0.190439
0.2008
0.118489
0.0752265
0.0600171
0.0591785
0.066994
0.0790316
0.100986
0.119707
0.140314
0.159097
0.162266
0.165392
0.166015
0.167276
0.169844
0.179103
0.197205
0.220871
0.259819
0.174614
0.106397
0.0636327
0.0549693
0.0567558
0.0655376
0.0770568
0.0969523
0.116964
0.140385
0.172377
0.191155
0.210872
0.223904
0.234634
0.230569
0.226967
0.230117
0.246363
0.304207
0.13906
0.0916498
0.0552176
0.0529688
0.0569939
0.071282
0.0859812
0.100475
0.115683
0.135495
0.168759
0.198311
0.234331
0.267769
0.294553
0.318701
0.330843
0.344551
0.348502
0.386537
0.107685
0.0747916
0.0493116
0.0542169
0.067498
0.0970329
0.116646
0.133905
0.146521
0.159566
0.172033
0.196145
0.242812
0.291118
0.334329
0.383008
0.427494
0.473666
0.498201
0.554652
0.0821249
0.0612282
0.0471214
0.0575583
0.0792247
0.112774
0.140097
0.173092
0.209435
0.240868
0.244214
0.259149
0.279533
0.322096
0.375394
0.440146
0.513571
0.594681
0.659605
0.782917
0.0625357
0.0499758
0.0464773
0.0601319
0.0854439
0.115431
0.14416
0.18511
0.253735
0.31604
0.359499
0.400114
0.434714
0.478804
0.511976
0.558778
0.626171
0.739261
0.844319
1.04555
0.0481288
0.0403075
0.0436293
0.0615451
0.0904204
0.114065
0.138636
0.178639
0.259654
0.356332
0.441308
0.516018
0.604651
0.681388
0.747005
0.815524
0.881734
0.974407
1.11879
1.33165
0.0379884
0.0317828
0.0363246
0.0598929
0.105394
0.140385
0.15919
0.192328
0.260536
0.368858
0.500124
0.620575
0.763725
0.877063
1.00338
1.12822
1.24861
1.35261
1.58435
1.56347
0.0313402
0.0255557
0.0317521
0.0675318
0.142871
0.205745
0.249689
0.335236
0.451884
0.561636
0.69677
0.836143
0.993252
1.13405
1.30181
1.5058
1.71071
1.88261
2.15394
2.08178
0.027942
0.0234857
0.0333427
0.0998324
0.200494
0.291797
0.395924
0.561267
0.758491
0.966781
1.14315
1.30579
1.46643
1.61608
1.79125
2.03423
2.31446
2.57599
2.93232
2.9032
0.025561
0.0226773
0.05241
0.150314
0.243899
0.348971
0.529213
0.76351
1.04754
1.37222
1.62496
1.87048
2.10202
2.3325
2.61089
2.92684
3.24732
3.59463
3.90016
4.16378
0.0196947
0.0250827
0.0852957
0.195346
0.271002
0.409787
0.710015
1.07303
1.52054
1.95724
2.31769
2.65228
2.97818
3.32038
3.74751
4.14573
4.52716
4.8869
5.10355
5.26233
0.0102224
0.0385468
0.123364
0.23563
0.421809
0.904894
1.44615
2.02647
2.68516
3.2257
3.61905
3.98017
4.34928
4.7652
5.21754
5.49664
5.66465
5.73288
5.60704
5.43526
0.0107468
0.0799858
0.249022
0.46341
1.14837
2.05064
2.85644
3.66182
4.47246
4.98745
5.27188
5.5726
5.85152
6.08578
6.22286
6.11916
5.81823
5.07624
3.8829
2.63097
0.0624598
0.245048
0.687592
1.67739
2.96449
3.99579
4.89024
5.85801
6.67482
6.71604
6.58274
6.56203
6.50419
6.28147
5.59126
4.27635
2.92785
1.86756
1.42611
1.39016
0.418086
1.18394
2.72483
4.38951
5.8375
6.75063
7.54398
8.16651
7.97543
7.35839
6.75857
6.00083
4.7264
3.24815
1.99734
1.44178
1.38516
1.39292
1.39627
1.39923
3.21392
5.04834
6.76081
7.93715
8.71758
8.91312
9.10085
8.62914
6.29503
4.45624
3.29731
2.18527
1.51538
1.38258
1.39022
1.39493
1.39886
1.39997
1.40003
1.40002
9.61851
9.55659
9.4787
9.60854
9.79117
9.38813
8.3036
3.14058
0.932623
1.40001
1.40001
1.40001
1.40001
1.40001
1.40001
1.40001
1.40001
1.40001
1.40001
1.40001
9.5973
9.52133
9.36632
9.31339
9.48348
8.00253
3.73741
1.43522
1.40001
1.40001
1.40001
1.40001
1.40001
1.40001
1.40001
1.40001
1.40001
1.40001
1.40001
1.40001
9.44727
9.50002
9.45532
9.23521
8.66627
4.82362
1.48171
1.39821
1.40001
1.40001
1.40001
1.40001
1.40001
1.40001
1.40001
1.40001
1.40001
1.40001
1.40001
1.40001
9.23294
9.44305
9.4666
9.25314
6.53482
1.98221
1.39042
1.40019
1.4
1.40001
1.40001
1.40001
1.40001
1.40001
1.40001
1.40001
1.40001
1.40001
1.40001
1.40001
9.04137
9.35659
9.40063
8.51191
3.65853
1.36724
1.4005
1.4
1.40001
1.40001
1.40001
1.40001
1.40001
1.40001
1.40001
1.40001
1.40001
1.40001
1.40001
1.40001
8.94546
9.32986
9.29642
6.82659
2.07103
1.40001
1.40001
1.40001
1.40001
1.40001
1.40001
1.40001
1.40001
1.40001
1.40001
1.40001
1.40001
1.40001
1.40001
1.40001
8.90099
9.4116
9.32063
4.98957
1.37317
1.40001
1.40001
1.40001
1.40001
1.40001
1.40001
1.40001
1.40001
1.40001
1.40001
1.40001
1.40001
1.40001
1.40001
1.40001
9.05512
9.29235
8.43059
2.80106
1.39999
1.40001
1.40001
1.40001
1.40001
1.40001
1.40001
1.40001
1.40001
1.40001
1.40001
1.40001
1.40001
1.40001
1.40001
1.40001
9.64879
9.14813
6.734
1.71444
1.4
1.40001
1.40001
1.40001
1.40001
1.40001
1.40001
1.40001
1.40001
1.40001
1.40001
1.40001
1.40001
1.40001
1.40001
1.40001
10.0985
8.89609
4.76797
1.3828
1.40001
1.40001
1.40001
1.40001
1.40001
1.40001
1.40001
1.40001
1.40001
1.40001
1.40001
1.40001
1.40001
1.40001
1.40001
1.40001
10.3317
8.30032
3.17778
1.40001
1.40001
1.40001
1.40001
1.40001
1.40001
1.40001
1.40001
1.40001
1.40001
1.40001
1.40001
1.40001
1.40001
1.40001
1.40001
1.40001
10.4118
7.43744
2.23327
1.40001
1.40001
1.40001
1.40001
1.40001
1.40001
1.40001
1.40001
1.40001
1.40001
1.40001
1.40001
1.40001
1.40001
1.40001
1.40001
1.40001
10.4553
6.59983
1.62768
1.40001
1.40001
1.40001
1.40001
1.40001
1.40001
1.40001
1.40001
1.40001
1.40001
1.40001
1.40001
1.40001
1.40001
1.40001
1.40001
1.40001
10.1738
5.60363
1.41886
1.40001
1.40001
1.40001
1.40001
1.40001
1.40001
1.40001
1.40001
1.40001
1.40001
1.40001
1.40001
1.40001
1.40001
1.40001
1.40001
1.40001
9.93566
4.55245
1.40001
1.40001
1.40001
1.40001
1.40001
1.40001
1.40001
1.40001
1.40001
1.40001
1.40001
1.40001
1.40001
1.40001
1.40001
1.40001
1.40001
1.40001
9.77807
3.45101
1.40001
1.40001
1.40001
1.40001
1.40001
1.40001
1.40001
1.40001
1.40001
1.40001
1.40001
1.40001
1.40001
1.40001
1.40001
1.40001
1.40001
1.40001
9.17692
2.57315
1.40001
1.40001
1.40001
1.40001
1.40001
1.40001
1.40001
1.40001
1.40001
1.40001
1.40001
1.40001
1.40001
1.40001
1.40001
1.40001
1.40001
1.40001
8.76372
1.90273
1.40001
1.40001
1.40001
1.40001
1.40001
1.40001
1.40001
1.40001
1.40001
1.40001
1.40001
1.40001
1.40001
1.40001
1.40001
1.40001
1.40001
1.40001
7.97769
1.40804
1.40001
1.40001
1.40001
1.40001
1.40001
1.40001
1.40001
1.40001
1.40001
1.40001
1.40001
1.40001
1.40001
1.40001
1.40001
1.40001
1.40001
1.40001
6.44296
1.40013
1.40001
1.40001
1.40001
1.40001
1.40001
1.40001
1.40001
1.40001
1.40001
1.40001
1.40001
1.40001
1.40001
1.40001
1.40001
1.40001
1.40001
1.40001
6.43814
1.40013
1.40001
1.40001
1.40001
1.40001
1.40001
1.40001
1.40001
1.40001
1.40001
1.40001
1.40001
1.40001
1.40001
1.40001
1.40001
1.40001
1.40001
1.40001
7.97424
1.40833
1.40001
1.40001
1.40001
1.40001
1.40001
1.40001
1.40001
1.40001
1.40001
1.40001
1.40001
1.40001
1.40001
1.40001
1.40001
1.40001
1.40001
1.40001
8.77626
1.91058
1.40001
1.40001
1.40001
1.40001
1.40001
1.40001
1.40001
1.40001
1.40001
1.40001
1.40001
1.40001
1.40001
1.40001
1.40001
1.40001
1.40001
1.40001
9.16787
2.58366
1.40001
1.40001
1.40001
1.40001
1.40001
1.40001
1.40001
1.40001
1.40001
1.40001
1.40001
1.40001
1.40001
1.40001
1.40001
1.40001
1.40001
1.40001
9.75863
3.44445
1.40001
1.40001
1.40001
1.40001
1.40001
1.40001
1.40001
1.40001
1.40001
1.40001
1.40001
1.40001
1.40001
1.40001
1.40001
1.40001
1.40001
1.40001
9.94743
4.53532
1.40001
1.40001
1.40001
1.40001
1.40001
1.40001
1.40001
1.40001
1.40001
1.40001
1.40001
1.40001
1.40001
1.40001
1.40001
1.40001
1.40001
1.40001
10.1724
5.60843
1.42277
1.40001
1.40001
1.40001
1.40001
1.40001
1.40001
1.40001
1.40001
1.40001
1.40001
1.40001
1.40001
1.40001
1.40001
1.40001
1.40001
1.40001
10.4513
6.60725
1.63182
1.40001
1.40001
1.40001
1.40001
1.40001
1.40001
1.40001
1.40001
1.40001
1.40001
1.40001
1.40001
1.40001
1.40001
1.40001
1.40001
1.40001
10.4108
7.44528
2.23424
1.40001
1.40001
1.40001
1.40001
1.40001
1.40001
1.40001
1.40001
1.40001
1.40001
1.40001
1.40001
1.40001
1.40001
1.40001
1.40001
1.40001
10.3279
8.28526
3.18532
1.40001
1.40001
1.40001
1.40001
1.40001
1.40001
1.40001
1.40001
1.40001
1.40001
1.40001
1.40001
1.40001
1.40001
1.40001
1.40001
1.40001
10.1041
8.90764
4.75615
1.38289
1.40001
1.40001
1.40001
1.40001
1.40001
1.40001
1.40001
1.40001
1.40001
1.40001
1.40001
1.40001
1.40001
1.40001
1.40001
1.40001
9.6514
9.15153
6.73902
1.71407
1.4
1.40001
1.40001
1.40001
1.40001
1.40001
1.40001
1.40001
1.40001
1.40001
1.40001
1.40001
1.40001
1.40001
1.40001
1.40001
9.0373
9.255
8.39575
2.8067
1.39999
1.40001
1.40001
1.40001
1.40001
1.40001
1.40001
1.40001
1.40001
1.40001
1.40001
1.40001
1.40001
1.40001
1.40001
1.40001
8.90984
9.42421
9.34346
4.97963
1.36707
1.40001
1.40001
1.40001
1.40001
1.40001
1.40001
1.40001
1.40001
1.40001
1.40001
1.40001
1.40001
1.40001
1.40001
1.40001
8.95828
9.35771
9.32589
6.83805
2.08769
1.40001
1.40001
1.40001
1.40001
1.40001
1.40001
1.40001
1.40001
1.40001
1.40001
1.40001
1.40001
1.40001
1.40001
1.40001
9.05069
9.35643
9.39782
8.47347
3.67343
1.36726
1.40049
1.4
1.40001
1.40001
1.40001
1.40001
1.40001
1.40001
1.40001
1.40001
1.40001
1.40001
1.40001
1.40001
9.22765
9.42294
9.45622
9.2606
6.5327
1.96526
1.39077
1.40019
1.4
1.40001
1.40001
1.40001
1.40001
1.40001
1.40001
1.40001
1.40001
1.40001
1.40001
1.40001
9.44281
9.49879
9.46261
9.26047
8.66624
4.7955
1.47498
1.3983
1.40001
1.40001
1.40001
1.40001
1.40001
1.40001
1.40001
1.40001
1.40001
1.40001
1.40001
1.40001
9.61465
9.52327
9.3807
9.32607
9.43688
8.00439
3.75667
1.43926
1.40001
1.40001
1.40001
1.40001
1.40001
1.40001
1.40001
1.40001
1.40001
1.40001
1.40001
1.40001
9.61807
9.55377
9.48186
9.6062
9.78635
9.39079
8.30801
3.16877
0.927406
1.40001
1.40001
1.40001
1.40001
1.40001
1.40001
1.40001
1.40001
1.40001
1.40001
1.40001
3.21484
5.04545
6.74678
7.92426
8.73166
8.91708
9.09868
8.62907
6.28795
4.45035
3.2943
2.18301
1.51435
1.38254
1.39018
1.39492
1.39886
1.39997
1.40003
1.40002
0.415363
1.2037
2.75937
4.38312
5.82009
6.75328
7.55156
8.16482
7.97136
7.35547
6.75949
6.00385
4.72764
3.24745
1.9968
1.44175
1.38516
1.39291
1.39626
1.39922
0.0533757
0.198066
0.668672
1.69274
2.98932
4.00416
4.89548
5.86069
6.68082
6.7227
6.59773
6.56477
6.50083
6.2772
5.58845
4.27403
2.92733
1.86808
1.42632
1.39015
0.0201799
0.0886142
0.220511
0.473259
1.13181
2.03297
2.84629
3.65948
4.48124
4.99938
5.28065
5.57561
5.85031
6.0818
6.22155
6.11851
5.81827
5.07757
3.88487
2.63219
0.02071
0.0596428
0.119976
0.192791
0.407939
0.894195
1.43004
2.01511
2.68085
3.22876
3.62491
3.98452
4.35069
4.76425
5.21679
5.49674
5.66515
5.73292
5.60724
5.43559
0.0208064
0.0381516
0.0919443
0.187418
0.285801
0.412239
0.705492
1.06627
1.51611
1.95312
2.3127
2.64478
2.9715
3.31475
3.74353
4.14198
4.52372
4.88476
5.10509
5.26453
0.0231771
0.0260461
0.0674245
0.157495
0.245242
0.354086
0.532318
0.762503
1.04677
1.36882
1.62218
1.86914
2.10192
2.33362
2.61276
2.92791
3.24651
3.59494
3.90397
4.16753
0.026513
0.0244522
0.0468582
0.106811
0.190682
0.294457
0.400016
0.563654
0.760355
0.971765
1.1492
1.3136
1.47374
1.62272
1.79448
2.03147
2.31084
2.5746
2.93582
2.90797
0.0320066
0.0269658
0.0365526
0.0718878
0.132372
0.208158
0.251093
0.340045
0.456588
0.570874
0.703487
0.839583
0.99195
1.13027
1.29422
1.49966
1.7095
1.8874
2.16029
2.08503
0.0380226
0.0309982
0.0378622
0.0623933
0.0979104
0.143111
0.159303
0.195173
0.262191
0.364286
0.493297
0.612869
0.756698
0.871062
0.999699
1.12832
1.25303
1.35796
1.5858
1.56186
0.0462798
0.0371547
0.0426457
0.0646131
0.0860885
0.112973
0.14091
0.179663
0.259966
0.353418
0.438484
0.512668
0.603575
0.68055
0.749334
0.819876
0.887123
0.975727
1.11461
1.32867
0.0594077
0.0473283
0.0451703
0.0634386
0.0832295
0.113501
0.147812
0.186442
0.256134
0.316898
0.362034
0.402678
0.438359
0.482495
0.51492
0.56034
0.622546
0.733601
0.839144
1.04344
0.0784571
0.0616328
0.0467787
0.0588584
0.0782061
0.110963
0.144045
0.174871
0.213302
0.245717
0.24713
0.261998
0.279467
0.3189
0.370469
0.434568
0.507675
0.59055
0.658589
0.784574
0.102156
0.0795497
0.0521016
0.0554432
0.0664576
0.0955775
0.120361
0.134622
0.14733
0.161056
0.17082
0.193014
0.237999
0.287403
0.331122
0.379867
0.426178
0.473333
0.502525
0.559281
0.130392
0.0991558
0.0638154
0.0541848
0.0549965
0.0694549
0.0873086
0.099593
0.114007
0.134266
0.165045
0.195397
0.233146
0.267589
0.294624
0.320146
0.334826
0.350394
0.35303
0.386878
0.158012
0.11059
0.075352
0.0557187
0.0549905
0.0630403
0.0762097
0.09531
0.114716
0.138549
0.171496
0.192097
0.212377
0.226202
0.237189
0.237181
0.231915
0.23394
0.245102
0.299073
0.177593
0.119019
0.0833462
0.0586389
0.0570627
0.0646258
0.0781485
0.0996608
0.119093
0.139742
0.162824
0.165715
0.168737
0.168665
0.169882
0.172925
0.180091
0.196032
0.218074
0.257381
0.191042
0.128408
0.0930049
0.0681078
0.0631914
0.0698341
0.0803159
0.0965194
0.11134
0.116469
0.113448
0.111064
0.109201
0.110752
0.117736
0.13239
0.148808
0.164727
0.179669
0.191706
0.201298
0.150773
0.13608
0.106142
0.116246
0.155786
0.195343
0.198774
0.192915
0.202943
0.221277
0.238343
0.22956
0.207386
0.20562
0.226776
0.268423
0.308616
0.336854
0.312797
0.292298
0.371123
0.418411
0.422813
0.425139
0.48261
0.517784
0.511245
0.529246
0.590671
0.617036
0.647674
0.655132
0.645065
0.670333
0.703439
0.708627
0.7205
0.73684
0.714167
0.779325
0.881095
0.966671
1.12059
1.17631
1.19873
1.18219
1.16554
1.17628
1.23045
1.319
1.34472
1.32603
1.29791
1.29639
1.32005
1.3504
1.35575
1.3436
1.32441
0.413616
0.586477
0.758198
0.931522
1.08457
1.19706
1.18926
1.17842
1.18726
1.22748
1.29903
1.33189
1.32972
1.30258
1.29301
1.3076
1.33946
1.35798
1.35339
1.33529
0.192019
0.229687
0.337741
0.466265
0.709437
0.99477
1.0899
1.18606
1.22134
1.2405
1.27664
1.3045
1.31125
1.31186
1.30769
1.30717
1.31679
1.33684
1.34241
1.34213
0.271757
0.303596
0.31143
0.320757
0.345325
0.466615
0.774659
1.04683
1.1472
1.22519
1.26146
1.27308
1.29176
1.32081
1.32694
1.31796
1.31606
1.32145
1.33192
1.3421
0.341306
0.368691
0.388047
0.392399
0.396964
0.403755
0.446362
0.609704
0.907703
1.13908
1.20477
1.23807
1.27945
1.33176
1.34123
1.33299
1.31685
1.30933
1.31774
1.3405
0.42615
0.468432
0.473313
0.448154
0.432546
0.439603
0.471041
0.479514
0.544686
0.727559
0.982969
1.13417
1.23665
1.3245
1.34588
1.34471
1.32621
1.30867
1.31402
1.33928
0.544901
0.58152
0.561972
0.499211
0.488581
0.497094
0.515681
0.536752
0.539645
0.539692
0.625507
0.895487
1.11221
1.30181
1.34239
1.34135
1.32633
1.30436
1.31327
1.33943
0.723635
0.708129
0.677874
0.605257
0.553928
0.553536
0.575285
0.582277
0.579396
0.567128
0.555314
0.611301
0.864083
1.14527
1.29268
1.33629
1.32131
1.30283
1.3274
1.34338
0.936361
0.869899
0.804831
0.705877
0.621953
0.618691
0.622476
0.621288
0.622506
0.608021
0.592077
0.574446
0.617626
0.853807
1.14382
1.319
1.28413
1.29973
1.34188
1.34315
1.19594
1.06233
0.973414
0.859778
0.732342
0.686754
0.66985
0.664649
0.665549
0.652901
0.638671
0.612527
0.596337
0.63099
0.847405
1.16713
1.23042
1.3076
1.35463
1.33952
1.78395
1.26818
1.11161
1.05313
0.963337
0.826019
0.749825
0.75528
0.747976
0.727089
0.711843
0.691826
0.651794
0.640321
0.66342
0.793679
1.05269
1.24882
1.30961
1.32446
2.86577
2.06777
1.50927
1.34564
1.27758
1.15086
0.959876
0.87781
0.838249
0.796697
0.774684
0.76945
0.739635
0.70551
0.678684
0.685107
0.738886
0.89746
1.10156
1.26921
3.48106
3.04561
2.39313
1.82511
1.52458
1.3733
1.16978
1.01209
0.980422
0.928563
0.908906
0.891082
0.855603
0.800864
0.765656
0.726363
0.727036
0.740967
0.804055
1.04768
3.29487
3.27031
3.12045
2.69721
2.14137
1.76913
1.53841
1.30893
1.23039
1.15621
1.07164
1.00055
0.931913
0.858123
0.834789
0.824516
0.798187
0.773111
0.762855
0.814033
2.35001
2.98575
3.09612
3.05705
2.8723
2.46326
2.09249
1.73192
1.48581
1.33847
1.19133
1.11166
1.05917
0.995633
0.975635
0.957796
0.920357
0.868665
0.799903
0.801529
1.55149
2.00811
2.57781
2.94848
2.948
2.89161
2.6943
2.36171
1.98563
1.7215
1.49065
1.35113
1.29187
1.20507
1.11622
1.04298
0.974443
0.91689
0.880774
0.848941
1.4063
1.46214
1.68532
2.16298
2.60257
2.82194
2.81219
2.75175
2.55183
2.26097
1.97036
1.68907
1.50663
1.36572
1.23003
1.14549
1.08391
1.02356
1.01308
0.975446
1.40013
1.40158
1.41447
1.51028
1.77672
2.20185
2.54622
2.70069
2.69093
2.6322
2.47489
2.21297
1.93055
1.71145
1.51744
1.39818
1.31768
1.2374
1.16328
1.06317
1.40001
1.40002
1.40021
1.40357
1.42685
1.5402
1.80782
2.17825
2.46968
2.59326
2.5861
2.53876
2.39637
2.17516
1.93412
1.70359
1.53443
1.40308
1.29314
1.16184
1.40001
1.40001
1.40001
1.40004
1.40047
1.40543
1.43486
1.55209
1.79823
2.12949
2.37991
2.50043
2.49369
2.45384
2.34575
2.15039
1.92872
1.72157
1.57511
1.39728
1.40001
1.40001
1.40001
1.40001
1.40001
1.40007
1.4007
1.40662
1.43705
1.54666
1.76903
2.06595
2.29031
2.41035
2.4072
2.38026
2.29719
2.13528
1.95185
1.67282
1.40001
1.40001
1.40001
1.40001
1.40001
1.40001
1.40001
1.40009
1.40082
1.40654
1.43591
1.53144
1.72509
1.98932
2.20424
2.32871
2.32673
2.3097
2.2585
2.04511
1.40001
1.40001
1.40001
1.40001
1.40001
1.40001
1.40001
1.40001
1.40001
1.40009
1.40085
1.40576
1.43082
1.51171
1.67652
1.91405
2.10926
2.25286
2.2551
2.22223
1.40001
1.40001
1.40001
1.40001
1.40001
1.40001
1.40001
1.40001
1.40001
1.40001
1.40001
1.40008
1.40073
1.40482
1.42408
1.4909
1.62778
1.83617
2.01999
2.16867
1.40001
1.40001
1.40001
1.40001
1.40001
1.40001
1.40001
1.40001
1.40001
1.40001
1.40001
1.40001
1.40001
1.40007
1.40057
1.40365
1.4195
1.47109
1.59012
1.94271
2.25277
3.42278
3.59607
2.90974
1.83195
1.45147
1.40262
1.40007
1.40001
1.40001
1.40001
1.40001
1.40001
1.40001
1.40001
3.25341
3.91511
3.52054
2.15376
1.46731
1.40113
1.40001
1.4
1.40001
1.40001
1.40001
1.40001
1.40001
1.40001
1.40001
4.07204
3.98848
2.7628
1.61204
1.40721
1.40007
1.40001
1.40001
1.40001
1.40001
1.40001
1.40001
1.40001
1.40001
1.40001
4.51627
3.55846
1.90782
1.42727
1.40028
1.40001
1.40001
1.40001
1.40001
1.40001
1.40001
1.40001
1.40001
1.40001
1.40001
4.62018
2.35219
1.46604
1.40071
1.40001
1.40001
1.40001
1.40001
1.40001
1.40001
1.40001
1.40001
1.40001
1.40001
1.40001
2.88359
1.50207
1.40068
1.4
1.4
1.4
1.40001
1.40001
1.40001
1.40001
1.40001
1.40001
1.40001
1.40001
1.40001
1.54081
1.40077
1.4
1.4
1.40001
1.40001
1.40001
1.40001
1.40001
1.40001
1.40001
1.40001
1.40001
1.40001
1.40001
1.39742
1.39982
1.4
1.40001
1.40001
1.40001
1.40001
1.40001
1.40001
1.40001
1.40001
1.40001
1.40001
1.40001
1.40001
1.39996
1.40001
1.40001
1.40001
1.40001
1.40001
1.40001
1.40001
1.40001
1.40001
1.40001
1.40001
1.40001
1.40001
1.40001
1.40001
1.40001
1.40001
1.40001
1.40001
1.40001
1.40001
1.40001
1.40001
1.40001
1.40001
1.40001
1.40001
1.40001
1.40001
1.40001
1.40001
1.40001
1.40001
1.40001
1.40001
1.40001
1.40001
1.40001
1.40001
1.40001
1.40001
1.40001
1.40001
1.40001
1.40001
1.40001
1.40001
1.40001
1.40001
1.40001
1.40001
1.40001
1.40001
1.40001
1.40001
1.40001
1.40001
1.40001
1.40001
1.40001
1.40001
1.40001
1.40001
1.40001
1.40001
1.40001
1.40001
1.40001
1.40001
1.40001
1.40001
1.40001
1.40001
1.40001
1.40001
1.40001
1.40001
1.40001
1.40001
1.40001
1.40001
1.40001
1.40001
1.40001
1.40001
1.40001
1.40001
1.40001
1.40001
1.40001
1.40001
1.40001
1.40001
1.40001
1.40001
1.40001
1.40001
1.40001
1.40001
1.40001
1.40001
1.40001
1.40001
1.40001
1.40001
1.40001
1.40001
1.40001
1.40001
1.40001
1.40001
1.40001
1.40001
1.40001
1.40001
1.40001
1.40001
1.40001
1.40001
1.40001
1.40001
1.40001
1.40001
1.40001
1.40001
1.40001
1.40001
1.40001
1.40001
1.40001
1.40001
1.40001
1.40001
1.40001
1.40001
1.40001
1.40001
1.40001
1.40001
1.40001
1.40001
1.40001
1.40001
1.40001
1.40001
1.40001
1.40001
1.40001
1.40001
1.40001
1.40001
1.40001
1.40001
1.40001
1.40001
1.40001
1.40001
1.40001
1.40001
1.40001
1.40001
1.40001
1.40001
1.40001
1.40001
1.40001
1.40001
1.40001
1.40001
1.40001
1.40001
1.40001
1.40001
1.40001
1.40001
1.40001
1.40001
1.40001
1.40001
1.40001
1.40001
1.40001
1.40001
1.40001
1.40001
1.40001
1.40001
1.40001
1.40001
1.40001
1.40001
1.40001
1.40001
1.40001
1.40001
1.40001
1.40001
1.40001
1.40001
1.40001
1.40001
1.40001
1.40001
1.40001
1.40001
1.40001
1.40001
1.40001
1.40001
1.40001
1.40001
1.40001
1.40001
1.40001
1.40001
1.40001
1.40001
1.40001
1.40001
1.40001
1.40001
1.40001
1.40001
1.40001
1.40001
1.40001
1.40001
1.40001
1.40001
1.40001
1.40001
1.40001
1.40001
1.40001
1.40001
1.40001
1.40001
1.40001
1.40001
1.40001
1.40001
1.40001
1.40001
1.40001
1.40001
1.40001
1.40001
1.40001
1.40001
1.40001
1.40001
1.40001
1.40001
1.40001
1.40001
1.40001
1.40001
1.40001
1.40001
1.40001
1.40001
1.40001
1.40001
1.40001
1.40001
1.40001
1.40001
1.40001
1.40001
1.40001
1.40001
1.40001
1.40001
1.40001
1.40001
1.40001
1.40001
1.40001
1.40001
1.40001
1.40001
1.40001
1.40001
1.40001
1.40001
1.40001
1.40001
1.40001
1.40001
1.40001
1.40001
1.40001
1.40001
1.40001
1.40001
1.40001
1.40001
1.40001
1.40001
1.40001
1.40001
1.40001
1.40001
1.40001
1.40001
1.40001
1.40001
1.40001
1.40001
1.40001
1.40001
1.40001
1.40001
1.40001
1.40001
1.40001
1.40001
1.40001
1.40001
1.40001
1.40001
1.40001
1.40001
1.40001
1.40001
1.40001
1.40001
1.40001
1.40001
1.40001
1.40001
1.40001
1.40001
1.40001
1.40001
1.40001
1.40001
1.40001
1.40001
1.40001
1.40001
1.40001
1.40001
1.40001
1.40001
1.40001
1.40001
1.40001
1.40001
1.40001
1.40001
1.40001
1.40001
1.40001
1.40001
1.40001
1.40001
1.40001
1.40001
1.40001
1.40001
1.40001
1.40001
1.40001
1.40001
1.40001
1.40001
1.40001
1.40001
1.40001
1.40001
1.40001
1.40001
1.40001
1.40001
1.40001
1.40001
1.40001
1.40001
1.40001
1.40001
1.40001
1.40001
1.40001
1.40001
1.40001
1.40001
1.40001
1.40001
1.40001
1.40001
1.40001
1.40001
1.40001
1.40001
1.40001
1.40001
1.40001
1.40001
1.40001
1.40001
1.40001
1.40001
1.40001
1.40001
1.40001
1.40001
1.40001
1.40001
1.40001
1.40001
1.40001
1.40001
1.40001
1.40001
1.40001
1.40001
1.40001
1.40001
1.40001
1.40001
1.40001
1.40001
1.40001
1.40001
1.40001
1.40001
1.40001
1.40001
1.40001
1.40001
1.40001
1.40001
1.40001
1.40001
1.40001
1.40001
1.40001
1.40001
1.40001
1.40001
1.40001
1.40001
1.40001
1.40001
1.40001
1.40001
1.40001
1.40001
1.40001
1.40001
1.40001
1.40001
1.40001
1.40001
1.40001
1.40001
1.40001
1.40001
1.40001
1.40001
1.40001
1.40001
1.40001
1.40001
1.40001
1.40001
1.40001
1.40001
1.40001
1.40001
1.40001
1.40001
1.40001
1.40001
1.40001
1.40001
1.40001
1.40001
1.40001
1.40001
1.40001
1.40001
1.40001
1.40001
1.40001
1.40001
1.40001
1.40001
1.40001
1.40001
1.40001
1.40001
1.40001
1.40001
1.40001
1.40001
1.40001
1.40001
1.40001
1.40001
1.40001
1.40001
1.40001
1.40001
1.40001
1.40001
1.40001
1.40001
1.40001
1.40001
1.40001
1.40001
1.40001
1.40001
1.40001
1.40001
1.40001
1.40001
1.40001
1.40001
1.40001
1.40001
1.40001
1.40001
1.40001
1.40001
1.40001
1.40001
1.40001
1.40001
1.40001
1.40001
1.40001
1.40001
1.40001
1.40001
1.40001
1.40001
1.40001
1.40001
1.40001
1.40001
1.40001
1.40001
1.40001
1.40001
1.40001
1.40001
1.40001
1.40001
1.40001
1.40001
1.40001
1.40001
1.40001
1.40001
1.40001
1.40001
1.40001
1.40001
1.40001
1.40001
1.40001
1.40001
1.40001
1.40001
1.40001
1.40001
1.40001
1.40001
1.40001
1.40001
1.40001
1.40001
1.40001
1.40001
1.40001
1.40001
1.40001
1.40001
1.40001
1.40001
1.40001
1.40001
1.40001
1.40001
1.40001
1.40001
1.40001
1.40001
1.40001
1.40001
1.40001
1.40001
1.40001
1.40001
1.40001
1.40001
1.40001
1.40001
1.40001
1.40001
1.40001
1.40001
1.40001
1.40001
1.40001
1.40001
1.40001
1.40001
1.40001
1.40001
1.40001
1.40001
1.40001
1.40001
1.40001
1.40001
1.40001
1.40001
1.40001
1.40001
1.40001
1.40001
1.40001
1.40001
1.40001
1.40001
1.40001
1.40001
1.40001
1.40001
1.40001
1.40001
1.40001
1.40001
1.40001
1.40001
1.40001
1.40001
1.40001
1.40001
1.40001
1.40001
1.40001
1.40001
1.40001
1.40001
1.40001
1.40001
1.40001
1.40001
1.40001
1.40001
1.40001
1.40001
1.40001
1.40001
1.40001
1.40001
1.40001
1.40001
1.40001
1.40001
1.40001
1.40001
1.40001
1.40001
1.40001
1.40001
1.40001
1.40001
1.40001
1.40001
1.40001
1.40001
1.40001
1.40001
1.40001
1.40001
1.40001
1.40001
1.40001
1.40001
1.40001
1.40001
1.40001
1.40001
1.40001
1.40001
1.40001
1.40001
1.40001
1.40001
1.40001
1.40001
1.40001
1.40001
1.40001
1.40001
1.40001
1.40001
1.40001
1.40001
1.40001
1.40001
1.40001
1.40001
1.40001
1.40001
1.40001
1.40001
1.40001
1.40001
1.40001
1.40001
1.40001
1.40001
1.40001
1.40001
1.40001
1.40001
1.40001
1.40001
1.40001
1.40001
1.40001
1.40001
1.40001
1.40001
1.40001
1.40001
1.40001
1.40001
1.40001
1.40001
1.40001
1.40001
1.40001
1.40001
1.40001
1.40001
1.40001
1.40001
1.40001
1.40001
1.40001
1.40001
1.40001
1.40001
1.40001
1.40001
1.40001
1.40001
1.40001
1.40001
1.40001
1.40001
1.40001
1.40001
1.40001
1.40001
1.40001
1.40001
1.40001
1.40001
1.40001
1.40001
1.40001
1.40001
1.40001
1.40001
1.40001
1.40001
1.40001
1.40001
1.40001
1.40001
1.40001
1.40001
1.40001
1.40001
1.40001
1.40001
1.40001
1.40001
1.40001
1.40001
1.40001
1.40001
1.40001
1.40001
1.40001
1.40001
1.40001
1.40001
1.40001
1.40001
1.40001
1.40001
1.40001
1.40001
1.40001
1.40001
1.40001
1.40001
1.40001
1.40001
1.40001
1.40001
1.40001
1.40001
1.40001
1.40001
1.40001
1.40001
1.40001
1.40001
1.40001
1.40001
1.40001
1.40001
1.40001
1.40001
1.40001
1.40001
1.40001
1.40001
1.40001
1.40001
1.40001
1.40001
1.40001
1.40001
1.40001
1.40001
1.40001
1.40001
1.40001
1.40001
1.40001
1.40001
1.40001
1.39996
1.40001
1.40001
1.40001
1.40001
1.40001
1.40001
1.40001
1.40001
1.40001
1.40001
1.40001
1.40001
1.40001
1.40001
1.39742
1.39982
1.4
1.40001
1.40001
1.40001
1.40001
1.40001
1.40001
1.40001
1.40001
1.40001
1.40001
1.40001
1.40001
1.54093
1.40077
1.4
1.4
1.40001
1.40001
1.40001
1.40001
1.40001
1.40001
1.40001
1.40001
1.40001
1.40001
1.40001
2.8831
1.50196
1.40068
1.4
1.4
1.40001
1.40001
1.40001
1.40001
1.40001
1.40001
1.40001
1.40001
1.40001
1.40001
4.6209
2.35149
1.46582
1.40069
1.40001
1.40001
1.40001
1.40001
1.40001
1.40001
1.40001
1.40001
1.40001
1.40001
1.40001
4.51647
3.55792
1.90757
1.42732
1.40028
1.40001
1.40001
1.40001
1.40001
1.40001
1.40001
1.40001
1.40001
1.40001
1.40001
4.07305
3.9878
2.76164
1.61181
1.4072
1.40007
1.40001
1.40001
1.40001
1.40001
1.40001
1.40001
1.40001
1.40001
1.40001
3.25311
3.91496
3.52056
2.15379
1.4673
1.40113
1.40001
1.4
1.40001
1.40001
1.40001
1.40001
1.40001
1.40001
1.40001
2.25294
3.4226
3.59566
2.90971
1.83193
1.45152
1.40262
1.40007
1.40001
1.40001
1.40001
1.40001
1.40001
1.40001
1.40001
1.78154
2.86704
3.48058
3.29507
2.35279
1.55151
1.4063
1.40013
1.40001
1.40001
1.40001
1.40001
1.40001
1.40001
1.40001
1.25416
2.07263
3.04753
3.2711
2.98199
2.00768
1.4621
1.40158
1.40002
1.40001
1.40001
1.40001
1.40001
1.40001
1.40001
1.1148
1.50087
2.39248
3.12052
3.09468
2.57695
1.68497
1.41444
1.40021
1.40001
1.40001
1.40001
1.40001
1.40001
1.40001
1.06043
1.33712
1.81876
2.68923
3.05673
2.94876
2.16274
1.51019
1.40356
1.40004
1.40001
1.40001
1.40001
1.40001
1.40001
0.962421
1.26751
1.5387
2.15427
2.86937
2.94842
2.60192
1.77622
1.4268
1.40047
1.40001
1.40001
1.40001
1.40001
1.40001
0.838016
1.14601
1.36121
1.77421
2.47564
2.89331
2.82342
2.20106
1.53985
1.40541
1.40007
1.40001
1.40001
1.40001
1.40001
0.759658
0.980633
1.15873
1.5094
2.09176
2.70018
2.81312
2.54653
1.80713
1.43476
1.4007
1.40001
1.40001
1.40001
1.40001
0.753672
0.890588
1.04069
1.3223
1.71657
2.35616
2.75233
2.70052
2.17773
1.55197
1.40662
1.40009
1.40001
1.40001
1.40001
0.740273
0.832797
0.986721
1.25109
1.49723
1.97606
2.55017
2.69016
2.469
1.79833
1.43711
1.40082
1.40001
1.40001
1.40001
0.716514
0.783711
0.918015
1.15254
1.35552
1.72829
2.25776
2.63143
2.59268
2.12955
1.54687
1.40655
1.40009
1.40001
1.40001
0.708274
0.769221
0.899736
1.0511
1.1924
1.5159
1.9707
2.47504
2.58579
2.37998
1.76919
1.43592
1.40085
1.40001
1.40001
0.694952
0.771047
0.892165
0.990815
1.09531
1.35672
1.69573
2.21088
2.53814
2.50025
2.06596
1.53139
1.40576
1.40008
1.40001
0.662186
0.747547
0.865688
0.93378
1.03878
1.28176
1.50807
1.92893
2.39667
2.49359
2.29014
1.72497
1.4308
1.40072
1.40001
0.634089
0.717124
0.807828
0.857441
0.985135
1.19155
1.36495
1.71297
2.17661
2.45376
2.41004
1.98902
1.5117
1.40482
1.40007
0.65437
0.684789
0.770903
0.833997
0.971392
1.10826
1.23253
1.52598
1.93291
2.34503
2.40681
2.20398
1.67648
1.42406
1.40057
0.784946
0.686182
0.73639
0.8283
0.957675
1.04332
1.14511
1.39652
1.70158
2.14961
2.37993
2.32844
1.91392
1.49096
1.40366
1.04506
0.736921
0.738706
0.807573
0.923226
0.976061
1.07821
1.31399
1.53559
1.92787
2.29661
2.3266
2.10933
1.62779
1.41951
1.24842
0.88659
0.742913
0.775913
0.873697
0.913746
1.0211
1.23531
1.40436
1.72002
2.13536
2.3098
2.25302
1.83624
1.47113
1.31435
1.09354
0.796341
0.764641
0.809341
0.875859
1.01427
1.16153
1.2941
1.57545
1.95262
2.25879
2.25535
2.02029
1.59029
1.32861
1.26653
1.03965
0.816472
0.811231
0.844606
0.979042
1.06082
1.16227
1.39914
1.67341
2.04554
2.22254
2.16909
1.94314
1.19655
1.06008
0.977404
0.868702
0.730972
0.684019
0.675075
0.670786
0.656955
0.647878
0.638205
0.619021
0.597633
0.629192
0.830732
1.14053
1.21981
1.31165
1.36247
1.34075
0.941652
0.869159
0.803731
0.712116
0.625807
0.622011
0.629219
0.626116
0.618152
0.604613
0.598066
0.578999
0.622123
0.860752
1.12009
1.28689
1.26874
1.30031
1.35289
1.34538
0.726468
0.705678
0.676144
0.610089
0.55572
0.554368
0.578019
0.58006
0.574866
0.570178
0.563579
0.625182
0.878042
1.13111
1.28502
1.3277
1.31452
1.3119
1.33967
1.34526
0.543515
0.57911
0.563039
0.502098
0.483089
0.491882
0.513676
0.538064
0.544083
0.547238
0.641942
0.916618
1.11569
1.27175
1.34663
1.34794
1.33603
1.31789
1.32578
1.34426
0.424527
0.467148