/*--------------------------------*- C++ -*----------------------------------*\
  =========                 |
  \\      /  F ield         | OpenFOAM: The Open Source CFD Toolbox
   \\    /   O peration     | Website:  https://openfoam.org
    \\  /    A nd           | Version:  7
     \\/     M anipulation  |
\*---------------------------------------------------------------------------*/
FoamFile
{
    version     2.0;
    format      ascii;
    class       volScalarField;
    location    "6";
    object      T;
}
// * * * * * * * * * * * * * * * * * * * * * * * * * * * * * * * * * * * * * //

dimensions      [0 0 0 1 0 0 0];

internalField   nonuniform List<scalar> 
3700
(
100.718
100.819
100.879
100.946
100.926
100.859
100.867
100.97
101.108
101.152
101.146
101.132
101.126
101.144
101.144
101.13
101.082
101.046
101.053
101.065
100.302
100.255
100.299
100.432
100.406
100.258
100.297
100.547
100.759
100.785
100.727
100.606
100.579
100.632
100.642
100.593
100.451
100.383
100.403
100.451
100.347
100.189
100.067
99.9723
99.9498
99.968
99.999
100.03
100.034
100.029
99.9983
99.977
99.9566
99.9554
99.9702
99.9974
100.018
100.033
100.043
100.043
100.369
100.19
100.01
99.9112
99.898
99.9262
99.9752
100.038
100.061
100.081
100.09
100.078
100.063
100.039
100.014
100.005
100.015
100.041
100.062
100.094
100.353
100.146
99.9336
99.862
99.8653
99.8991
99.943
100
100.039
100.081
100.11
100.114
100.127
100.127
100.118
100.095
100.062
100.051
100.061
100.116
100.267
100.084
99.8754
99.8406
99.8565
99.8943
99.936
99.9872
100.017
100.053
100.09
100.114
100.141
100.163
100.168
100.17
100.164
100.157
100.146
100.156
100.162
100.007
99.8372
99.8413
99.8787
99.9604
99.9894
100.012
100.025
100.055
100.076
100.097
100.132
100.163
100.186
100.208
100.223
100.231
100.232
100.251
100.074
99.9456
99.8261
99.8654
99.952
100.038
100.075
100.104
100.121
100.137
100.126
100.131
100.136
100.157
100.189
100.223
100.256
100.281
100.293
100.328
100.01
99.9019
99.8334
99.9039
100.009
100.082
100.11
100.146
100.195
100.219
100.232
100.237
100.246
100.253
100.256
100.265
100.286
100.322
100.346
100.392
99.9634
99.8715
99.8413
99.9643
100.087
100.128
100.124
100.152
100.22
100.26
100.289
100.305
100.328
100.338
100.35
100.36
100.37
100.385
100.41
100.449
99.9169
99.8387
99.847
100.029
100.166
100.183
100.173
100.194
100.235
100.274
100.316
100.344
100.378
100.393
100.413
100.431
100.449
100.465
100.499
100.492
99.8603
99.7807
99.8537
100.088
100.211
100.227
100.235
100.288
100.337
100.369
100.388
100.405
100.425
100.44
100.463
100.492
100.521
100.543
100.58
100.569
99.813
99.7472
99.9152
100.116
100.239
100.284
100.324
100.387
100.435
100.477
100.494
100.509
100.517
100.524
100.537
100.56
100.592
100.622
100.657
100.655
99.7712
99.7387
100.025
100.159
100.244
100.312
100.39
100.452
100.506
100.548
100.565
100.582
100.596
100.611
100.634
100.66
100.685
100.709
100.726
100.735
99.6626
99.7302
100.072
100.192
100.233
100.331
100.447
100.518
100.577
100.61
100.63
100.65
100.671
100.696
100.726
100.752
100.772
100.785
100.781
100.775
99.4195
99.7358
100.061
100.201
100.352
100.538
100.611
100.659
100.697
100.716
100.73
100.746
100.767
100.791
100.812
100.822
100.82
100.814
100.789
100.745
99.3615
99.8832
100.215
100.385
100.598
100.699
100.742
100.775
100.796
100.81
100.821
100.836
100.852
100.856
100.855
100.843
100.792
100.678
100.516
100.276
99.5965
100.152
100.455
100.665
100.774
100.812
100.837
100.86
100.874
100.881
100.881
100.883
100.882
100.858
100.771
100.622
100.361
100.102
100.006
99.9979
100.125
100.522
100.735
100.836
100.887
100.907
100.922
100.921
100.916
100.907
100.894
100.842
100.729
100.473
100.148
100.01
99.9966
99.9985
99.9992
99.9998
100.695
100.836
100.912
100.95
100.964
100.956
100.953
100.927
100.842
100.763
100.578
100.235
100.031
99.9958
99.9978
99.9989
99.9998
100
100
100
100.997
100.995
100.991
100.99
100.985
100.952
100.879
100.439
99.8552
100
100
100
100
100
100
100
100
100
100
100
100.994
100.991
100.984
100.974
100.962
100.87
100.511
100.018
100
100
100
100
100
100
100
100
100
100
100
100
100.99
100.99
100.985
100.965
100.915
100.646
100.046
99.9991
100
100
100
100
100
100
100
100
100
100
100
100
100.985
100.989
100.984
100.953
100.781
100.229
99.9964
100
100
100
100
100
100
100
100
100
100
100
100
100
100.981
100.988
100.982
100.919
100.549
99.9924
100
100
100
100
100
100
100
100
100
100
100
100
100
100
100.978
100.988
100.98
100.836
100.284
100
100
100
100
100
100
100
100
100
100
100
100
100
100
100
100.977
100.99
100.979
100.705
99.9962
100
100
100
100
100
100
100
100
100
100
100
100
100
100
100
100.982
100.979
100.921
100.458
99.9988
100
100
100
100
100
100
100
100
100
100
100
100
100
100
100
101
100.963
100.817
100.161
100
100
100
100
100
100
100
100
100
100
100
100
100
100
100
100
101.014
100.942
100.674
99.9964
100
100
100
100
100
100
100
100
100
100
100
100
100
100
100
100
101.024
100.901
100.499
100
100
100
100
100
100
100
100
100
100
100
100
100
100
100
100
100
101.03
100.849
100.316
100
100
100
100
100
100
100
100
100
100
100
100
100
100
100
100
100
101.034
100.798
100.113
100
100
100
100
100
100
100
100
100
100
100
100
100
100
100
100
100
101.033
100.743
100.011
100
100
100
100
100
100
100
100
100
100
100
100
100
100
100
100
100
101.009
100.681
100
100
100
100
100
100
100
100
100
100
100
100
100
100
100
100
100
100
100.985
100.561
100
100
100
100
100
100
100
100
100
100
100
100
100
100
100
100
100
100
100.945
100.419
100
100
100
100
100
100
100
100
100
100
100
100
100
100
100
100
100
100
100.911
100.235
100
100
100
100
100
100
100
100
100
100
100
100
100
100
100
100
100
100
100.867
100.005
100
100
100
100
100
100
100
100
100
100
100
100
100
100
100
100
100
100
100.81
100
100
100
100
100
100
100
100
100
100
100
100
100
100
100
100
100
100
100
100.809
100
100
100
100
100
100
100
100
100
100
100
100
100
100
100
100
100
100
100
100.867
100.005
100
100
100
100
100
100
100
100
100
100
100
100
100
100
100
100
100
100
100.914
100.238
100
100
100
100
100
100
100
100
100
100
100
100
100
100
100
100
100
100
100.946
100.421
100
100
100
100
100
100
100
100
100
100
100
100
100
100
100
100
100
100
100.984
100.56
100
100
100
100
100
100
100
100
100
100
100
100
100
100
100
100
100
100
101.008
100.678
100
100
100
100
100
100
100
100
100
100
100
100
100
100
100
100
100
100
101.032
100.744
100.012
100
100
100
100
100
100
100
100
100
100
100
100
100
100
100
100
100
101.035
100.799
100.115
100
100
100
100
100
100
100
100
100
100
100
100
100
100
100
100
100
101.03
100.85
100.316
100
100
100
100
100
100
100
100
100
100
100
100
100
100
100
100
100
101.024
100.901
100.5
100
100
100
100
100
100
100
100
100
100
100
100
100
100
100
100
100
101.015
100.942
100.673
99.9964
100
100
100
100
100
100
100
100
100
100
100
100
100
100
100
100
101
100.963
100.817
100.16
100
100
100
100
100
100
100
100
100
100
100
100
100
100
100
100
100.981
100.976
100.919
100.459
99.9994
100
100
100
100
100
100
100
100
100
100
100
100
100
100
100
100.977
100.99
100.979
100.702
99.9935
100
100
100
100
100
100
100
100
100
100
100
100
100
100
100
100.979
100.989
100.982
100.837
100.289
100
100
100
100
100
100
100
100
100
100
100
100
100
100
100
100.981
100.988
100.983
100.92
100.553
99.9924
100
100
100
100
100
100
100
100
100
100
100
100
100
100
100.985
100.989
100.984
100.953
100.78
100.224
99.9965
100
100
100
100
100
100
100
100
100
100
100
100
100
100.99
100.99
100.985
100.965
100.912
100.639
100.043
99.9991
100
100
100
100
100
100
100
100
100
100
100
100
100.994
100.991
100.985
100.974
100.96
100.869
100.514
100.02
100
100
100
100
100
100
100
100
100
100
100
100
100.996
100.994
100.99
100.99
100.985
100.953
100.881
100.445
99.8524
100
100
100
100
100
100
100
100
100
100
100
100.695
100.835
100.91
100.949
100.965
100.957
100.954
100.928
100.842
100.762
100.576
100.234
100.03
99.9958
99.9977
99.9989
99.9998
100
100
100
100.122
100.529
100.74
100.836
100.886
100.907
100.923
100.921
100.916
100.907
100.894
100.842
100.729
100.473
100.148
100.01
99.9967
99.9985
99.9992
99.9998
99.5332
100.075
100.447
100.667
100.776
100.812
100.838
100.86
100.874
100.881
100.882
100.883
100.881
100.858
100.772
100.622
100.36
100.102
100.006
99.9978
99.5435
99.8599
100.179
100.405
100.599
100.697
100.742
100.776
100.797
100.81
100.821
100.836
100.852
100.856
100.855
100.843
100.792
100.679
100.516
100.276
99.6199
99.7589
99.9883
100.134
100.338
100.537
100.611
100.659
100.698
100.716
100.73
100.746
100.767
100.792
100.812
100.822
100.82
100.814
100.79
100.745
99.6487
99.7045
99.9917
100.165
100.253
100.335
100.447
100.518
100.578
100.609
100.629
100.649
100.67
100.696
100.726
100.752
100.772
100.785
100.781
100.776
99.7014
99.732
99.9929
100.149
100.241
100.319
100.394
100.453
100.506
100.547
100.564
100.582
100.596
100.612
100.634
100.66
100.685
100.709
100.726
100.735
99.7843
99.7623
99.9762
100.084
100.22
100.291
100.331
100.389
100.436
100.478
100.495
100.511
100.519
100.526
100.538
100.56
100.591
100.621
100.658
100.655
99.872
99.7974
99.9151
100.035
100.188
100.237
100.241
100.293
100.341
100.376
100.393
100.408
100.426
100.439
100.461
100.49
100.52
100.544
100.58
100.569
99.9278
99.83
99.8652
99.9968
100.145
100.194
100.177
100.203
100.243
100.276
100.314
100.342
100.375
100.391
100.411
100.43
100.449
100.465
100.5
100.492
99.9674
99.8563
99.8504
99.9631
100.074
100.138
100.133
100.158
100.223
100.26
100.288
100.303
100.327
100.337
100.349
100.36
100.371
100.386
100.409
100.449
100.009
99.8918
99.8334
99.918
99.9988
100.084
100.119
100.149
100.198
100.219
100.232
100.237
100.246
100.253
100.257
100.265
100.284
100.32
100.345
100.391
100.065
99.9466
99.8274
99.8682
99.9398
100.035
100.081
100.103
100.122
100.138
100.125
100.131
100.135
100.154
100.183
100.219
100.253
100.28
100.293
100.329
100.138
100.021
99.8541
99.843
99.8607
99.9518
99.9935
100.007
100.022
100.052
100.071
100.093
100.128
100.16
100.185
100.206
100.223
100.232
100.234
100.253
100.228
100.099
99.9224
99.8398
99.8332
99.8806
99.934
99.9815
100.011
100.05
100.084
100.113
100.142
100.164
100.171
100.173
100.169
100.163
100.15
100.158
100.302
100.147
99.9857
99.8574
99.8442
99.885
99.9401
99.9957
100.034
100.082
100.116
100.119
100.132
100.134
100.124
100.105
100.073
100.056
100.06
100.111
100.323
100.181
100.038
99.8969
99.8803
99.9145
99.974
100.042
100.07
100.089
100.101
100.089
100.073
100.049
100.023
100.011
100.015
100.039
100.061
100.093
100.316
100.188
100.083
99.9679
99.9378
99.9647
100.003
100.039
100.053
100.043
100.015
99.99
99.9638
99.9562
99.9674
99.9975
100.021
100.036
100.045
100.046
100.289
100.25
100.276
100.154
100.263
100.57
100.655
100.577
100.445
100.488
100.635
100.682
100.642
100.487
100.38
100.408
100.485
100.545
100.551
100.483
100.685
100.813
100.876
100.842
100.848
100.96
101.016
101.007
101
101.057
101.143
101.157
101.144
101.097
101.058
101.068
101.104
101.113
101.109
101.074
101.054
101.024
101.005
100.989
100.964
100.945
100.921
100.893
100.876
100.877
100.881
100.874
100.855
100.837
100.827
100.825
100.823
100.82
100.814
100.805
100.594
100.65
100.711
100.733
100.763
100.796
100.809
100.811
100.806
100.805
100.811
100.81
100.802
100.79
100.786
100.786
100.789
100.791
100.792
100.786
100.025
100.075
100.194
100.282
100.403
100.51
100.582
100.644
100.656
100.658
100.669
100.681
100.685
100.69
100.695
100.699
100.704
100.713
100.721
100.725
100.085
100.086
100.086
100.084
100.097
100.196
100.364
100.467
100.504
100.527
100.543
100.558
100.57
100.583
100.593
100.598
100.605
100.614
100.624
100.635
100.135
100.14
100.137
100.127
100.122
100.125
100.162
100.266
100.392
100.45
100.463
100.478
100.499
100.516
100.522
100.525
100.528
100.532
100.54
100.553
100.18
100.188
100.183
100.159
100.146
100.151
100.167
100.175
100.218
100.306
100.383
100.422
100.454
100.481
100.486
100.486
100.485
100.484
100.487
100.497
100.234
100.24
100.225
100.189
100.182
100.186
100.194
100.203
100.202
100.198
100.24
100.342
100.404
100.455
100.464
100.464
100.46
100.455
100.458
100.465
100.301
100.289
100.274
100.246
100.223
100.216
100.221
100.219
100.215
100.206
100.19
100.212
100.314
100.398
100.435
100.446
100.442
100.437
100.442
100.446
100.362
100.344
100.323
100.291
100.261
100.246
100.238
100.231
100.228
100.217
100.203
100.183
100.198
100.292
100.379
100.424
100.417
100.421
100.43
100.43
100.427
100.4
100.375
100.342
100.302
100.274
100.253
100.244
100.24
100.229
100.216
100.196
100.179
100.185
100.272
100.367
100.386
100.408
100.417
100.413
100.536
100.438
100.398
100.381
100.359
100.315
100.275
100.268
100.259
100.244
100.233
100.218
100.194
100.173
100.176
100.225
100.311
100.364
100.373
100.378
100.621
100.545
100.463
100.422
100.406
100.378
100.328
100.292
100.268
100.248
100.237
100.229
100.208
100.182
100.163
100.154
100.169
100.223
100.277
100.319
100.609
100.59
100.542
100.471
100.42
100.392
100.353
100.31
100.29
100.271
100.258
100.244
100.221
100.194
100.172
100.15
100.139
100.13
100.145
100.222
100.487
100.548
100.542
100.517
100.465
100.418
100.384
100.341
100.317
100.293
100.267
100.24
100.214
100.188
100.171
100.156
100.134
100.114
100.099
100.107
100.25
100.376
100.445
100.483
100.475
100.446
100.411
100.364
100.323
100.291
100.256
100.232
100.215
100.195
100.18
100.165
100.143
100.117
100.091
100.071
100.043
100.145
100.253
100.335
100.389
100.415
100.406
100.381
100.342
100.305
100.267
100.239
100.223
100.2
100.172
100.147
100.122
100.1
100.083
100.06
100.002
100.015
100.065
100.154
100.233
100.291
100.329
100.349
100.338
100.315
100.284
100.246
100.215
100.187
100.157
100.134
100.115
100.096
100.087
100.066
100
100
100.003
100.025
100.078
100.15
100.208
100.249
100.279
100.291
100.282
100.26
100.228
100.198
100.167
100.145
100.127
100.107
100.086
100.056
100
100
100
100.001
100.006
100.031
100.081
100.14
100.187
100.216
100.241
100.244
100.235
100.216
100.188
100.156
100.128
100.103
100.08
100.048
100
100
100
100
100
100.001
100.008
100.033
100.078
100.129
100.169
100.192
100.21
100.209
100.202
100.183
100.156
100.126
100.101
100.069
100
100
100
100
100
100
100
100.001
100.008
100.031
100.073
100.118
100.154
100.173
100.186
100.184
100.177
100.16
100.137
100.098
100
100
100
100
100
100
100
100
100
100.001
100.008
100.028
100.065
100.107
100.141
100.159
100.168
100.167
100.162
100.138
100
100
100
100
100
100
100
100
100
100
100
100.001
100.007
100.024
100.057
100.096
100.127
100.147
100.155
100.151
100
100
100
100
100
100
100
100
100
100
100
100
100
100.001
100.005
100.02
100.048
100.084
100.113
100.138
100
100
100
100
100
100
100
100
100
100
100
100
100
100
100
100.001
100.004
100.016
100.04
100.105
100.596
100.652
100.609
100.416
100.142
100.017
100.001
100
100
100
100
100
100
100
100
100.671
100.662
100.518
100.218
100.022
100
100
100
100
100
100
100
100
100
100
100.705
100.636
100.374
100.074
100.002
100
100
100
100
100
100
100
100
100
100
100.719
100.518
100.168
100.009
100
100
100
100
100
100
100
100
100
100
100
100.651
100.284
100.025
100
100
100
100
100
100
100
100
100
100
100
100
100.395
100.038
100
100
100
100
100
100
100
100
100
100
100
100
100
100.042
100
100
100
100
100
100
100
100
100
100
100
100
100
100
99.9995
100
100
100
100
100
100
100
100
100
100
100
100
100
100
100
100
100
100
100
100
100
100
100
100
100
100
100
100
100
100
100
100
100
100
100
100
100
100
100
100
100
100
100
100
100
100
100
100
100
100
100
100
100
100
100
100
100
100
100
100
100
100
100
100
100
100
100
100
100
100
100
100
100
100
100
100
100
100
100
100
100
100
100
100
100
100
100
100
100
100
100
100
100
100
100
100
100
100
100
100
100
100
100
100
100
100
100
100
100
100
100
100
100
100
100
100
100
100
100
100
100
100
100
100
100
100
100
100
100
100
100
100
100
100
100
100
100
100
100
100
100
100
100
100
100
100
100
100
100
100
100
100
100
100
100
100
100
100
100
100
100
100
100
100
100
100
100
100
100
100
100
100
100
100
100
100
100
100
100
100
100
100
100
100
100
100
100
100
100
100
100
100
100
100
100
100
100
100
100
100
100
100
100
100
100
100
100
100
100
100
100
100
100
100
100
100
100
100
100
100
100
100
100
100
100
100
100
100
100
100
100
100
100
100
100
100
100
100
100
100
100
100
100
100
100
100
100
100
100
100
100
100
100
100
100
100
100
100
100
100
100
100
100
100
100
100
100
100
100
100
100
100
100
100
100
100
100
100
100
100
100
100
100
100
100
100
100
100
100
100
100
100
100
100
100
100
100
100
100
100
100
100
100
100
100
100
100
100
100
100
100
100
100
100
100
100
100
100
100
100
100
100
100
100
100
100
100
100
100
100
100
100
100
100
100
100
100
100
100
100
100
100
100
100
100
100
100
100
100
100
100
100
100
100
100
100
100
100
100
100
100
100
100
100
100
100
100
100
100
100
100
100
100
100
100
100
100
100
100
100
100
100
100
100
100
100
100
100
100
100
100
100
100
100
100
100
100
100
100
100
100
100
100
100
100
100
100
100
100
100
100
100
100
100
100
100
100
100
100
100
100
100
100
100
100
100
100
100
100
100
100
100
100
100
100
100
100
100
100
100
100
100
100
100
100
100
100
100
100
100
100
100
100
100
100
100
100
100
100
100
100
100
100
100
100
100
100
100
100
100
100
100
100
100
100
100
100
100
100
100
100
100
100
100
100
100
100
100
100
100
100
100
100
100
100
100
100
100
100
100
100
100
100
100
100
100
100
100
100
100
100
100
100
100
100
100
100
100
100
100
100
100
100
100
100
100
100
100
100
100
100
100
100
100
100
100
100
100
100
100
100
100
100
100
100
100
100
100
100
100
100
100
100
100
100
100
100
100
100
100
100
100
100
100
100
100
100
100
100
100
100
100
100
100
100
100
100
100
100
100
100
100
100
100
100
100
100
100
100
100
100
100
100
100
100
100
100
100
100
100
100
100
100
100
100
100
100
100
100
100
100
100
100
100
100
100
100
100
100
100
100
100
100
100
100
100
100
100
100
100
100
100
100
100
100
100
100
100
100
100
100
100
100
100
100
100
100
100
100
100
100
100
100
100
100
100
100
100
100
100
100
100
100
100
100
100
100
100
100
100
100
100
100
100
100
100
100
100
100
100
100
100
100
100
100
100
100
100
100
100
100
100
100
100
100
100
100
100
100
100
100
100
100
100
100
100
100
100
100
100
100
100
100
100
100
100
100
100
100
100
100
100
100
100
100
100
100
100
100
100
100
100
100
100
100
100
100
100
100
100
100
100
100
100
100
100
100
100
100
100
100
100
100
100
100
100
100
100
100
100
100
100
100
100
100
100
100
100
100
100
100
100
100
100
100
100
100
100
100
100
100
100
100
100
100
100
100
100
100
100
100
100
100
100
100
100
100
100
100
100
100
100
100
100
100
100
100
100
100
100
100
100
100
100
100
100
100
100
100
100
100
100
100
100
100
100
100
100
100
100
100
100
100
100
100
100
100
100
100
100
100
100
100
100
100
100
100
100
100
100
100
100
100
100
100
100
100
100
100
100
100
100
100
100
100
100
100
100
100
100
100
100
100
100
99.9995
100
100
100
100
100
100
100
100
100
100
100
100
100
100
100.042
100
100
100
100
100
100
100
100
100
100
100
100
100
100
100.394
100.038
100
100
100
100
100
100
100
100
100
100
100
100
100
100.651
100.284
100.024
100
100
100
100
100
100
100
100
100
100
100
100
100.719
100.517
100.167
100.009
100
100
100
100
100
100
100
100
100
100
100
100.705
100.636
100.374
100.074
100.002
100
100
100
100
100
100
100
100
100
100
100.671
100.662
100.518
100.218
100.022
100
100
100
100
100
100
100
100
100
100
100.596
100.652
100.609
100.416
100.142
100.017
100.001
100
100
100
100
100
100
100
100
100.536
100.621
100.609
100.487
100.25
100.043
100.002
100
100
100
100
100
100
100
100
100.435
100.546
100.59
100.548
100.376
100.145
100.015
100
100
100
100
100
100
100
100
100.398
100.461
100.542
100.542
100.445
100.253
100.065
100.003
100
100
100
100
100
100
100
100.382
100.421
100.471
100.517
100.482
100.336
100.154
100.025
100.001
100
100
100
100
100
100
100.357
100.404
100.423
100.467
100.474
100.389
100.233
100.078
100.006
100
100
100
100
100
100
100.32
100.377
100.39
100.419
100.447
100.415
100.291
100.15
100.03
100.001
100
100
100
100
100
100.281
100.332
100.349
100.379
100.411
100.406
100.33
100.208
100.081
100.008
100
100
100
100
100
100.268
100.296
100.316
100.342
100.362
100.381
100.349
100.249
100.14
100.033
100.001
100
100
100
100
100.255
100.267
100.293
100.321
100.324
100.34
100.338
100.279
100.187
100.078
100.008
100
100
100
100
100.24
100.245
100.269
100.293
100.294
100.305
100.315
100.291
100.216
100.129
100.031
100.001
100
100
100
100.231
100.234
100.255
100.263
100.258
100.272
100.284
100.283
100.241
100.169
100.073
100.008
100
100
100
100.219
100.229
100.243
100.238
100.23
100.242
100.247
100.26
100.244
100.192
100.118
100.028
100.001
100
100
100.198
100.21
100.224
100.213
100.209
100.222
100.215
100.228
100.235
100.21
100.154
100.065
100.007
100
100
100.173
100.187
100.196
100.186
100.19
100.196
100.187
100.198
100.216
100.209
100.173
100.107
100.024
100.001
100
100.176
100.167
100.174
100.17
100.178
100.17
100.157
100.168
100.188
100.202
100.186
100.141
100.056
100.005
100
100.224
100.156
100.155
100.157
100.164
100.147
100.134
100.144
100.156
100.183
100.184
100.159
100.096
100.02
100.001
100.309
100.17
100.144
100.137
100.144
100.122
100.113
100.126
100.129
100.155
100.177
100.168
100.127
100.048
100.004
100.364
100.218
100.129
100.115
100.119
100.099
100.096
100.106
100.103
100.125
100.16
100.167
100.147
100.084
100.016
100.375
100.274
100.141
100.1
100.094
100.082
100.087
100.086
100.08
100.101
100.137
100.162
100.155
100.113
100.041
100.379
100.318
100.219
100.108
100.074
100.059
100.068
100.055
100.048
100.069
100.098
100.138
100.151
100.138
100.105
100.428
100.399
100.375
100.343
100.301
100.274
100.256
100.246
100.235
100.226
100.215
100.199
100.181
100.185
100.265
100.359
100.382
100.409
100.419
100.414
100.364
100.344
100.322
100.293
100.262
100.248
100.241
100.234
100.226
100.215
100.205
100.186
100.201
100.294
100.369
100.415
100.412
100.421
100.433
100.431
100.302
100.287
100.273
100.247
100.224
100.217
100.223
100.219
100.213
100.206
100.194
100.22
100.32
100.392
100.43
100.443
100.44
100.438
100.445
100.446
100.233
100.239
100.225
100.19
100.179
100.183
100.194
100.205
100.204
100.202
100.247
100.351
100.406
100.446
100.464
100.464
100.462
100.458
100.46
100.465
100.179
100.189
100.185
100.161
100.147
100.151
100.164
100.174
100.219
100.311
100.391
100.425
100.453
100.479
100.486
100.487
100.486
100.485
100.488
100.497
100.134
100.143
100.132
100.119
100.117
100.123
100.156
100.262
100.397
100.454
100.464
100.477
100.499
100.518
100.524
100.526
100.528
100.532
100.539
100.552
100.086
100.093
100.099
100.089
100.101
100.188
100.35
100.462
100.507
100.534
100.542
100.555
100.572
100.589
100.598
100.602
100.605
100.611
100.619
100.632
100.027
100.056
100.178
100.273
100.406
100.506
100.571
100.633
100.655
100.66
100.666
100.678
100.689
100.699
100.705
100.706
100.706
100.708
100.712
100.718
100.545
100.627
100.697
100.722
100.761
100.796
100.804
100.805
100.804
100.805
100.805
100.806
100.805
100.8
100.795
100.792
100.79
100.789
100.785
100.779
101.031
101.015
100.998
100.982
100.96
100.95
100.926
100.892
100.875
100.875
100.874
100.869
100.86
100.842
100.83
100.826
100.825
100.822
100.815
100.803
)
;

boundaryField
{
    inlet
    {
        type            fixedValue;
        value           uniform 100;
    }
    outlet
    {
        type            inletOutlet;
        inletValue      uniform 100;
        value           nonuniform List<scalar> 
50
(
100.378
100.319
100.222
100.107
100.071
100.06
100.066
100.056
100.048
100.069
100.098
100.138
100.151
100.138
100.105
100.805
100.786
100.725
100.635
100.553
100.497
100.465
100.446
100.43
100.413
100.414
100.431
100.446
100.465
100.497
100.552
100.632
100.718
100.779
100.803
100.379
100.318
100.219
100.108
100.074
100.059
100.068
100.055
100.048
100.069
100.098
100.138
100.151
100.138
100.105
)
;
    }
    airfoil
    {
        type            zeroGradient;
    }
    top
    {
        type            symmetryPlane;
    }
    bottom
    {
        type            symmetryPlane;
    }
    defaultFaces
    {
        type            empty;
    }
}


// ************************************************************************* //
