/*--------------------------------*- C++ -*----------------------------------*\
  =========                 |
  \\      /  F ield         | OpenFOAM: The Open Source CFD Toolbox
   \\    /   O peration     | Website:  https://openfoam.org
    \\  /    A nd           | Version:  7
     \\/     M anipulation  |
\*---------------------------------------------------------------------------*/
FoamFile
{
    version     2.0;
    format      ascii;
    class       volVectorField;
    location    "6";
    object      U;
}
// * * * * * * * * * * * * * * * * * * * * * * * * * * * * * * * * * * * * * //

dimensions      [0 1 -1 0 0 0 0];

internalField   nonuniform List<vector> 
3700
(
(1.38347 -0.529628 0)
(1.36083 -0.513882 0)
(1.26839 -0.379112 0)
(1.22274 -0.229931 0)
(1.35537 -0.281646 0)
(1.51733 -0.419015 0)
(1.51271 -0.431835 0)
(1.40788 -0.301071 0)
(1.39929 -0.0626936 0)
(1.51526 0.00955643 0)
(1.59196 -0.0698402 0)
(1.60633 -0.194773 0)
(1.59294 -0.205021 0)
(1.57226 -0.141983 0)
(1.62628 -0.0733394 0)
(1.70492 -0.11528 0)
(1.75683 -0.225209 0)
(1.83607 -0.299271 0)
(1.83968 -0.287826 0)
(1.84207 -0.217277 0)
(1.54912 -1.51255 0)
(1.73052 -1.51509 0)
(1.77837 -1.75587 0)
(1.77388 -1.65724 0)
(1.88817 -1.73147 0)
(1.95098 -2.00917 0)
(1.81989 -1.8279 0)
(1.6008 -1.4446 0)
(1.5617 -1.0012 0)
(1.75062 -0.869196 0)
(1.87807 -0.878647 0)
(1.99227 -1.0991 0)
(1.96232 -1.13047 0)
(1.91999 -1.06003 0)
(1.96758 -0.983376 0)
(2.08533 -1.08691 0)
(2.19919 -1.28668 0)
(2.24042 -1.29123 0)
(2.27665 -1.28366 0)
(2.29652 -1.12038 0)
(1.59817 -1.51399 0)
(1.98148 -1.4451 0)
(2.04268 -1.94637 0)
(2.04718 -2.19912 0)
(2.07405 -2.29171 0)
(2.03703 -2.34734 0)
(2.03434 -2.23275 0)
(1.96244 -2.19189 0)
(1.99377 -2.12839 0)
(2.06657 -2.0539 0)
(2.17289 -2.00033 0)
(2.27787 -1.97349 0)
(2.37891 -1.8879 0)
(2.4302 -1.84496 0)
(2.47694 -1.83182 0)
(2.50332 -1.78534 0)
(2.47757 -1.80434 0)
(2.48683 -1.68161 0)
(2.49771 -1.6631 0)
(2.57337 -1.55859 0)
(1.67813 -1.54278 0)
(2.07565 -1.44509 0)
(2.11467 -1.9812 0)
(2.09993 -2.17664 0)
(2.14923 -2.20241 0)
(2.09535 -2.30962 0)
(2.12916 -2.19186 0)
(2.02423 -2.15674 0)
(2.06357 -2.09806 0)
(2.14238 -2.01606 0)
(2.20811 -1.93138 0)
(2.31976 -1.84026 0)
(2.41929 -1.72033 0)
(2.55096 -1.60478 0)
(2.6837 -1.49207 0)
(2.76056 -1.42126 0)
(2.73289 -1.4851 0)
(2.71717 -1.4464 0)
(2.63203 -1.49124 0)
(2.59711 -1.39515 0)
(1.78437 -1.57464 0)
(2.13581 -1.4893 0)
(1.99712 -2.08464 0)
(1.97323 -2.20347 0)
(2.06872 -2.1703 0)
(2.105 -2.28703 0)
(2.15863 -2.17325 0)
(2.14077 -2.0621 0)
(2.21131 -1.98802 0)
(2.31644 -1.89917 0)
(2.29606 -1.93855 0)
(2.36705 -1.78028 0)
(2.41035 -1.70302 0)
(2.48657 -1.6194 0)
(2.62198 -1.49814 0)
(2.6943 -1.31696 0)
(2.77281 -1.11127 0)
(2.85091 -1.00546 0)
(2.83149 -0.992711 0)
(2.71824 -1.09424 0)
(1.79653 -1.55643 0)
(2.01978 -1.54589 0)
(1.82134 -2.12478 0)
(1.80767 -2.20118 0)
(1.98835 -2.15666 0)
(2.00283 -2.18045 0)
(2.14868 -2.1226 0)
(2.26187 -1.96646 0)
(2.30647 -1.9299 0)
(2.44797 -1.71981 0)
(2.49 -1.76522 0)
(2.55781 -1.64364 0)
(2.54859 -1.56863 0)
(2.55338 -1.48895 0)
(2.58692 -1.41107 0)
(2.62414 -1.2914 0)
(2.69139 -1.17065 0)
(2.81394 -1.04006 0)
(2.84998 -0.787872 0)
(2.81934 -0.678582 0)
(1.70648 -1.49512 0)
(1.84651 -1.5601 0)
(1.70064 -2.05046 0)
(1.6601 -2.19025 0)
(1.74604 -2.08435 0)
(1.87718 -2.06868 0)
(2.03483 -2.01399 0)
(2.258 -1.7564 0)
(2.41403 -1.71358 0)
(2.55914 -1.54615 0)
(2.59403 -1.51821 0)
(2.69594 -1.35892 0)
(2.70067 -1.32296 0)
(2.68717 -1.27595 0)
(2.68815 -1.17544 0)
(2.67829 -1.09693 0)
(2.67727 -0.999123 0)
(2.74638 -0.968347 0)
(2.75331 -0.792879 0)
(2.79388 -0.569085 0)
(1.59203 -1.40251 0)
(1.74232 -1.48498 0)
(1.66768 -1.89882 0)
(1.55315 -2.10815 0)
(1.67908 -2.09506 0)
(1.81752 -2.04167 0)
(1.99054 -1.92792 0)
(2.15389 -1.72523 0)
(2.26741 -1.60392 0)
(2.44114 -1.50298 0)
(2.55626 -1.24502 0)
(2.6908 -1.10089 0)
(2.72632 -0.924045 0)
(2.75529 -0.871654 0)
(2.77768 -0.775154 0)
(2.763 -0.774659 0)
(2.74288 -0.677393 0)
(2.72607 -0.713023 0)
(2.72848 -0.675434 0)
(2.71454 -0.452034 0)
(1.50906 -1.29297 0)
(1.68305 -1.38728 0)
(1.69351 -1.74001 0)
(1.54918 -1.94869 0)
(1.65841 -2.07846 0)
(1.88063 -2.02221 0)
(2.07594 -1.86516 0)
(2.19337 -1.68036 0)
(2.25454 -1.55369 0)
(2.34262 -1.49731 0)
(2.46567 -1.26276 0)
(2.59988 -1.1403 0)
(2.65075 -0.851142 0)
(2.75825 -0.726504 0)
(2.75214 -0.462803 0)
(2.75836 -0.388304 0)
(2.75162 -0.277414 0)
(2.72391 -0.292651 0)
(2.70731 -0.39113 0)
(2.66127 -0.263457 0)
(1.45972 -1.22333 0)
(1.6008 -1.3323 0)
(1.71161 -1.63988 0)
(1.66633 -1.8857 0)
(1.76748 -2.05858 0)
(2.09547 -1.88645 0)
(2.24131 -1.64568 0)
(2.37339 -1.43699 0)
(2.473 -1.36375 0)
(2.4671 -1.35656 0)
(2.51886 -1.15781 0)
(2.57905 -1.01419 0)
(2.60343 -0.810629 0)
(2.69198 -0.709474 0)
(2.68475 -0.460588 0)
(2.72325 -0.319186 0)
(2.71002 -0.115461 0)
(2.68142 0.00553116 0)
(2.63552 -0.016873 0)
(2.61231 -0.0353279 0)
(1.39819 -1.19401 0)
(1.53702 -1.32799 0)
(1.7242 -1.70083 0)
(1.78161 -1.88381 0)
(2.12704 -2.03972 0)
(2.48573 -1.85309 0)
(2.62302 -1.42167 0)
(2.67968 -1.1359 0)
(2.70753 -0.966805 0)
(2.71559 -0.850695 0)
(2.71128 -0.744325 0)
(2.70304 -0.58375 0)
(2.68035 -0.486734 0)
(2.68523 -0.398596 0)
(2.65473 -0.270124 0)
(2.65085 -0.204397 0)
(2.64566 -0.0862983 0)
(2.6101 0.080391 0)
(2.54718 0.215492 0)
(2.56001 0.162804 0)
(1.33053 -1.16465 0)
(1.50609 -1.3328 0)
(1.82687 -1.83049 0)
(2.08174 -2.05512 0)
(2.27384 -1.87284 0)
(2.41913 -1.66763 0)
(2.58767 -1.24146 0)
(2.69294 -0.933499 0)
(2.74355 -0.833085 0)
(2.71735 -0.469092 0)
(2.72207 -0.317304 0)
(2.67956 -0.10904 0)
(2.6742 -0.0317601 0)
(2.64383 0.0790172 0)
(2.61065 0.138963 0)
(2.57338 0.154979 0)
(2.55175 0.141772 0)
(2.52719 0.184689 0)
(2.45041 0.341548 0)
(2.46099 0.329237 0)
(1.22298 -1.12148 0)
(1.48501 -1.36837 0)
(2.00073 -1.98009 0)
(2.14513 -2.05103 0)
(2.17213 -1.72792 0)
(2.25733 -1.45594 0)
(2.38604 -1.13291 0)
(2.47314 -0.871766 0)
(2.50064 -0.742359 0)
(2.54593 -0.512174 0)
(2.60669 -0.311753 0)
(2.58264 -0.0458222 0)
(2.58975 0.120535 0)
(2.53576 0.305168 0)
(2.48132 0.43868 0)
(2.43601 0.490779 0)
(2.38953 0.522994 0)
(2.3912 0.462945 0)
(2.32811 0.536528 0)
(2.32567 0.512691 0)
(0.978935 -1.09894 0)
(1.49225 -1.47455 0)
(2.05223 -1.88719 0)
(1.97442 -1.85626 0)
(2.12872 -1.58465 0)
(2.31144 -1.13692 0)
(2.40628 -0.872567 0)
(2.47177 -0.638447 0)
(2.48243 -0.347771 0)
(2.50929 -0.220688 0)
(2.51415 -0.0238859 0)
(2.4801 0.157874 0)
(2.46136 0.287704 0)
(2.41488 0.420417 0)
(2.35333 0.550325 0)
(2.31437 0.615287 0)
(2.22703 0.726542 0)
(2.18953 0.753492 0)
(2.17494 0.770052 0)
(2.15001 0.77753 0)
(0.76033 -0.939311 0)
(1.55858 -1.82403 0)
(2.0629 -1.57859 0)
(1.99318 -1.6079 0)
(2.32586 -1.09179 0)
(2.41999 -0.32473 0)
(2.5123 -0.16579 0)
(2.53128 0.0209765 0)
(2.46658 0.20832 0)
(2.45383 0.326618 0)
(2.39473 0.484648 0)
(2.33078 0.602684 0)
(2.28004 0.672887 0)
(2.22826 0.735131 0)
(2.18361 0.764147 0)
(2.14031 0.794243 0)
(2.08317 0.856507 0)
(2.05561 0.896354 0)
(2.0299 0.940169 0)
(2.05823 0.956687 0)
(1.18987 -0.855763 0)
(1.54493 -1.7571 0)
(2.15127 -1.302 0)
(2.31604 -0.921033 0)
(2.39384 -0.0961811 0)
(2.47383 -0.0725462 0)
(2.47764 0.148707 0)
(2.40219 0.396145 0)
(2.34367 0.480548 0)
(2.30763 0.623177 0)
(2.21068 0.770173 0)
(2.12208 0.881846 0)
(2.06214 0.939336 0)
(2.00962 0.990445 0)
(1.97993 0.984545 0)
(1.95605 0.992396 0)
(1.95569 1.01357 0)
(1.97145 0.993277 0)
(1.9962 0.993446 0)
(2.07053 0.977609 0)
(1.29819 -0.340799 0)
(1.83762 -0.867161 0)
(2.16777 -0.927969 0)
(2.28264 0.247252 0)
(2.35508 0.244473 0)
(2.35618 0.315514 0)
(2.29212 0.491221 0)
(2.2224 0.625802 0)
(2.14371 0.743692 0)
(2.09608 0.884673 0)
(1.98025 0.993467 0)
(1.91967 1.05185 0)
(1.88467 1.07643 0)
(1.86962 1.08968 0)
(1.87181 1.05825 0)
(1.89597 1.0507 0)
(1.96056 1.02352 0)
(2.16435 0.904952 0)
(2.38484 0.790571 0)
(2.78196 0.437055 0)
(1.15678 -0.142851 0)
(1.88728 -0.326399 0)
(2.20301 0.424141 0)
(2.22911 0.515733 0)
(2.20216 0.583857 0)
(2.15281 0.739283 0)
(2.03602 0.914321 0)
(1.96646 0.982177 0)
(1.90332 1.0416 0)
(1.85376 1.12727 0)
(1.78943 1.1577 0)
(1.78924 1.14934 0)
(1.809 1.12991 0)
(1.85263 1.08679 0)
(2.04265 0.949718 0)
(2.25707 0.830791 0)
(2.65956 0.509064 0)
(3.03411 0.0953856 0)
(3.0549 -0.023187 0)
(3.00397 -0.00460813 0)
(1.00139 0.0393631 0)
(1.91703 0.823436 0)
(2.11196 0.829077 0)
(1.99609 0.962421 0)
(1.9486 0.99284 0)
(1.86327 1.08981 0)
(1.8022 1.12893 0)
(1.76744 1.14545 0)
(1.76306 1.16322 0)
(1.73779 1.20261 0)
(1.71323 1.19582 0)
(1.8521 1.07288 0)
(2.09209 0.888308 0)
(2.50257 0.580017 0)
(2.9883 0.137029 0)
(3.0746 -0.0296366 0)
(3.00824 -0.00776443 0)
(3.00294 -0.00385936 0)
(3.00122 -0.00220166 0)
(3.00008 -0.000487717 0)
(1.15896 0.768108 0)
(1.82729 1.15139 0)
(1.83812 1.15037 0)
(1.73049 1.19565 0)
(1.70921 1.18843 0)
(1.66898 1.23814 0)
(1.66452 1.21048 0)
(1.73327 1.16539 0)
(1.76757 1.22516 0)
(1.79623 1.13412 0)
(2.26873 0.735964 0)
(2.85721 0.208559 0)
(3.0982 -0.0282834 0)
(3.02118 -0.0126251 0)
(3.00433 -0.00537389 0)
(3.00178 -0.00294816 0)
(3.00006 -0.000574986 0)
(2.99998 -2.35876e-05 0)
(2.99999 1.43394e-05 0)
(3 5.90022e-06 0)
(1.57631 1.2584 0)
(1.58193 1.26572 0)
(1.5858 1.27277 0)
(1.59247 1.26409 0)
(1.60602 1.24575 0)
(1.59942 1.26722 0)
(1.91861 1.16895 0)
(2.9793 0.378009 0)
(3.31663 -0.569019 0)
(3 6.23829e-11 0)
(3 -7.35924e-11 0)
(3 7.91483e-11 0)
(3 4.67269e-15 0)
(3 -4.33236e-13 0)
(3 -1.3793e-14 0)
(3 1.84259e-14 0)
(3 -6.84488e-15 0)
(3 2.41275e-15 0)
(3 3.32034e-15 0)
(3 2.27943e-15 0)
(1.58416 1.25124 0)
(1.59446 1.25904 0)
(1.59886 1.27484 0)
(1.59963 1.28332 0)
(1.65497 1.26562 0)
(1.70546 1.2457 0)
(2.25874 0.75686 0)
(2.99423 0.0193504 0)
(3 5.26671e-08 0)
(3 -3.12559e-11 0)
(3 3.12481e-14 0)
(3 4.35348e-16 0)
(3 1.07668e-15 0)
(3 1.96384e-15 0)
(3 1.6713e-15 0)
(3 1.89658e-15 0)
(3 4.25389e-15 0)
(3 2.69393e-15 0)
(3 2.13202e-15 0)
(3 2.45658e-15 0)
(1.5883 1.24938 0)
(1.60672 1.25467 0)
(1.61515 1.25886 0)
(1.60153 1.28676 0)
(1.67595 1.23479 0)
(2.20988 0.796974 0)
(2.98994 0.00478358 0)
(3.00051 -0.000984809 0)
(3 7.94933e-07 0)
(3 5.87596e-11 0)
(3 -2.92613e-13 0)
(3 2.03965e-15 0)
(3 7.86011e-16 0)
(3 1.74475e-15 0)
(3 2.71427e-15 0)
(3 2.16309e-15 0)
(3 3.65676e-15 0)
(3 6.46511e-16 0)
(3 1.25274e-15 0)
(3 1.54278e-15 0)
(1.58667 1.25257 0)
(1.60902 1.25414 0)
(1.62457 1.25209 0)
(1.6437 1.26244 0)
(1.87022 1.07508 0)
(2.7545 0.20819 0)
(3.00519 -0.00242026 0)
(2.9999 9.34562e-05 0)
(3 -9.57086e-07 0)
(3 9.13025e-10 0)
(3 -5.78482e-14 0)
(3 8.18691e-16 0)
(3 2.41298e-15 0)
(3 2.71224e-15 0)
(3 3.51307e-15 0)
(3 2.28444e-15 0)
(3 3.19912e-15 0)
(3 4.40709e-18 0)
(3 3.0551e-16 0)
(3 2.17008e-16 0)
(1.58489 1.26314 0)
(1.59473 1.25954 0)
(1.62498 1.25208 0)
(1.7338 1.19997 0)
(2.3816 0.62676 0)
(3.01889 -0.0173898 0)
(2.99976 0.000187547 0)
(3 -4.44592e-06 0)
(3 8.62265e-08 0)
(3 -9.33732e-10 0)
(3 3.53766e-13 0)
(3 9.02071e-16 0)
(3 3.24316e-15 0)
(3 3.7724e-15 0)
(3 3.85218e-15 0)
(3 2.61818e-15 0)
(3 1.65368e-15 0)
(3 3.67065e-16 0)
(3 -5.63761e-16 0)
(3 -5.06529e-16 0)
(1.58219 1.27508 0)
(1.57798 1.27054 0)
(1.63187 1.26373 0)
(1.75528 1.17851 0)
(2.67564 0.283243 0)
(3 -6.04087e-10 0)
(3 1.44607e-08 0)
(3 -1.30694e-08 0)
(3 5.69449e-10 0)
(3 3.13145e-12 0)
(3 -1.13773e-13 0)
(3 2.64834e-15 0)
(3 2.33641e-15 0)
(3 3.06501e-15 0)
(3 3.61675e-15 0)
(3 3.41572e-15 0)
(3 1.28788e-15 0)
(3 5.66731e-16 0)
(3 -1.28063e-16 0)
(3 -8.18403e-16 0)
(1.57924 1.29641 0)
(1.56017 1.29578 0)
(1.6751 1.24243 0)
(2.17086 0.838607 0)
(3.0177 -0.0185944 0)
(3 -8.80279e-12 0)
(3 -5.20033e-12 0)
(3 1.58482e-11 0)
(3 -2.73643e-12 0)
(3 4.07155e-15 0)
(3 1.40584e-15 0)
(3 1.4703e-15 0)
(3 2.2398e-15 0)
(3 2.47568e-15 0)
(3 3.03944e-15 0)
(3 3.79334e-15 0)
(3 2.19085e-15 0)
(3 1.58019e-15 0)
(3 5.85145e-16 0)
(3 -4.19543e-16 0)
(1.58955 1.32358 0)
(1.49864 1.33199 0)
(1.78106 1.17794 0)
(2.44139 0.53562 0)
(3.00001 -2.21399e-05 0)
(3 2.0732e-13 0)
(3 -4.4128e-14 0)
(3 3.95299e-15 0)
(3 9.08834e-15 0)
(3 -3.03964e-16 0)
(3 6.97784e-16 0)
(3 1.59471e-15 0)
(3 2.02283e-15 0)
(3 2.36907e-15 0)
(3 2.62348e-15 0)
(3 3.02927e-15 0)
(3 3.68869e-15 0)
(3 3.55256e-15 0)
(3 1.90128e-15 0)
(3 -1.14224e-17 0)
(1.59104 1.30857 0)
(1.46668 1.36716 0)
(1.90894 1.05058 0)
(2.8435 0.132723 0)
(3 -1.95619e-08 0)
(3 6.35686e-12 0)
(3 -4.73272e-15 0)
(3 -1.38957e-15 0)
(3 -1.30137e-15 0)
(3 -5.42075e-16 0)
(3 5.95909e-16 0)
(3 1.67296e-15 0)
(3 2.73588e-15 0)
(3 3.41979e-15 0)
(3 2.95313e-15 0)
(3 3.54006e-15 0)
(3 3.90291e-15 0)
(3 3.18827e-15 0)
(3 1.25047e-15 0)
(3 -1.01989e-16 0)
(1.60501 1.29364 0)
(1.48006 1.37333 0)
(2.18783 0.805372 0)
(3.0107 -0.00909819 0)
(3 3.00845e-08 0)
(3 -1.96416e-12 0)
(3 -1.42269e-14 0)
(3 -1.59859e-15 0)
(3 -1.3873e-15 0)
(3 -4.28657e-16 0)
(3 5.3254e-16 0)
(3 2.1459e-15 0)
(3 3.1398e-15 0)
(3 3.80388e-15 0)
(3 4.41519e-15 0)
(3 4.8368e-15 0)
(3 4.71821e-15 0)
(3 3.40306e-15 0)
(3 6.27406e-16 0)
(3 -7.45925e-16 0)
(1.62171 1.27879 0)
(1.57229 1.31503 0)
(2.41726 0.539047 0)
(3 -2.65717e-12 0)
(3 -2.93076e-11 0)
(3 4.50671e-14 0)
(3 -2.14861e-15 0)
(3 -1.71076e-15 0)
(3 -1.55145e-15 0)
(3 -8.81364e-16 0)
(3 -4.9422e-16 0)
(3 6.54254e-16 0)
(3 1.81934e-15 0)
(3 2.73732e-15 0)
(3 3.71948e-15 0)
(3 4.74713e-15 0)
(3 5.34491e-15 0)
(3 4.94222e-15 0)
(3 4.53435e-15 0)
(3 2.0969e-15 0)
(1.63878 1.25935 0)
(1.62587 1.25039 0)
(2.65282 0.290307 0)
(3 3.63641e-13 0)
(3 -9.92723e-15 0)
(3 -3.55192e-15 0)
(3 -3.62343e-15 0)
(3 -3.08931e-15 0)
(3 -2.24586e-15 0)
(3 -2.45611e-15 0)
(3 -2.4485e-15 0)
(3 -7.64457e-16 0)
(3 2.84688e-16 0)
(3 1.21083e-15 0)
(3 2.9157e-15 0)
(3 3.73359e-15 0)
(3 4.40188e-15 0)
(3 5.19811e-15 0)
(3 5.9702e-15 0)
(3 6.58931e-15 0)
(1.65577 1.23913 0)
(1.83174 1.10327 0)
(2.87449 0.0953999 0)
(3 -1.12843e-13 0)
(3 -4.40469e-15 0)
(3 -4.96358e-15 0)
(3 -5.20177e-15 0)
(3 -5.02635e-15 0)
(3 -4.76957e-15 0)
(3 -5.01522e-15 0)
(3 -4.97114e-15 0)
(3 -3.11431e-15 0)
(3 -1.14796e-15 0)
(3 1.00944e-15 0)
(3 2.07944e-15 0)
(3 2.40222e-15 0)
(3 2.54769e-15 0)
(3 2.42699e-15 0)
(3 3.92782e-15 0)
(3 5.31354e-15 0)
(1.66935 1.19978 0)
(1.88617 0.984406 0)
(2.98573 0.0116109 0)
(3 -5.69986e-15 0)
(3 -5.895e-15 0)
(3 -5.64621e-15 0)
(3 -5.21519e-15 0)
(3 -5.30443e-15 0)
(3 -4.89392e-15 0)
(3 -6.19792e-15 0)
(3 -7.06557e-15 0)
(3 -7.1084e-15 0)
(3 -3.95289e-15 0)
(3 2.69712e-16 0)
(3 1.80458e-15 0)
(3 2.64406e-15 0)
(3 3.14587e-15 0)
(3 3.71806e-15 0)
(3 3.85121e-15 0)
(3 4.35439e-15 0)
(1.69413 1.17275 0)
(2.04091 0.826515 0)
(3 -6.46946e-15 0)
(3 -5.92375e-15 0)
(3 -6.05682e-15 0)
(3 -6.11872e-15 0)
(3 -6.06251e-15 0)
(3 -5.94514e-15 0)
(3 -6.43052e-15 0)
(3 -6.98459e-15 0)
(3 -7.31317e-15 0)
(3 -7.08283e-15 0)
(3 -5.40949e-15 0)
(3 -2.80099e-15 0)
(3 -1.19686e-15 0)
(3 -1.25626e-15 0)
(3 -5.95769e-16 0)
(3 7.63634e-16 0)
(3 1.7145e-15 0)
(3 2.19215e-15 0)
(1.77817 1.10738 0)
(2.23829 0.646987 0)
(3 -5.89934e-15 0)
(3 -5.26737e-15 0)
(3 -5.28774e-15 0)
(3 -5.35732e-15 0)
(3 -5.10524e-15 0)
(3 -4.94652e-15 0)
(3 -5.00766e-15 0)
(3 -5.22519e-15 0)
(3 -6.10832e-15 0)
(3 -6.60077e-15 0)
(3 -5.71729e-15 0)
(3 -4.79353e-15 0)
(3 -4.4565e-15 0)
(3 -3.98439e-15 0)
(3 -3.00749e-15 0)
(3 -5.93711e-16 0)
(3 6.03629e-16 0)
(3 9.88722e-16 0)
(1.8361 1.00266 0)
(2.46836 0.432038 0)
(3 -5.7869e-15 0)
(3 -5.25736e-15 0)
(3 -5.35304e-15 0)
(3 -5.08043e-15 0)
(3 -4.23951e-15 0)
(3 -3.58224e-15 0)
(3 -3.94706e-15 0)
(3 -5.36902e-15 0)
(3 -9.16721e-15 0)
(3 -1.02242e-14 0)
(3 -1.00411e-14 0)
(3 -8.99894e-15 0)
(3 -8.03915e-15 0)
(3 -6.55192e-15 0)
(3 -5.65958e-15 0)
(3 -4.67044e-15 0)
(3 -4.5371e-15 0)
(3 -2.76365e-15 0)
(1.92754 0.870249 0)
(2.70984 0.2084 0)
(3 -2.49134e-15 0)
(3 -1.40638e-15 0)
(3 -1.46805e-15 0)
(3 -2.03939e-15 0)
(3 -2.87634e-15 0)
(3 -3.15512e-15 0)
(3 -3.66936e-15 0)
(3 -3.87399e-15 0)
(3 -4.11744e-15 0)
(3 -4.31561e-15 0)
(3 -4.67139e-15 0)
(3 -4.31431e-15 0)
(3 -3.96164e-15 0)
(3 -4.11133e-15 0)
(3 -3.85022e-15 0)
(3 -2.66313e-15 0)
(3 -1.84248e-15 0)
(3 -1.37453e-15 0)
(2.09228 0.662712 0)
(2.99081 2.13703e-05 0)
(3 -3.93495e-16 0)
(3 -1.55025e-15 0)
(3 -1.25654e-15 0)
(3 -1.58065e-15 0)
(3 -2.62308e-15 0)
(3 -3.78061e-15 0)
(3 -4.41662e-15 0)
(3 -5.1862e-15 0)
(3 -5.54311e-15 0)
(3 -4.97572e-15 0)
(3 -5.1863e-15 0)
(3 -5.72865e-15 0)
(3 -5.84944e-15 0)
(3 -5.62409e-15 0)
(3 -5.35019e-15 0)
(3 -5.26734e-15 0)
(3 -4.71785e-15 0)
(3 -4.20802e-15 0)
(1.99223 0.372545 0)
(2.99989 -9.05187e-06 0)
(3 -3.90616e-15 0)
(3 -2.60194e-15 0)
(3 -1.8703e-15 0)
(3 -1.50351e-15 0)
(3 -1.41526e-15 0)
(3 -1.22002e-15 0)
(3 -6.81281e-16 0)
(3 -1.18146e-15 0)
(3 -1.97483e-15 0)
(3 -2.45877e-15 0)
(3 -3.24112e-15 0)
(3 -3.89178e-15 0)
(3 -3.44092e-15 0)
(3 -3.32155e-15 0)
(3 -3.45454e-15 0)
(3 -3.68186e-15 0)
(3 -4.00079e-15 0)
(3 -4.21461e-15 0)
(1.99269 -0.37246 0)
(2.99989 6.91511e-06 0)
(3 -2.67599e-15 0)
(3 -2.36124e-15 0)
(3 -2.40228e-15 0)
(3 -1.96033e-15 0)
(3 -6.44873e-16 0)
(3 6.68049e-17 0)
(3 6.79283e-16 0)
(3 6.01928e-16 0)
(3 -3.10716e-17 0)
(3 -1.084e-15 0)
(3 -2.03294e-15 0)
(3 -1.60872e-15 0)
(3 -1.81744e-15 0)
(3 -1.71108e-15 0)
(3 -1.84018e-15 0)
(3 -2.16439e-15 0)
(3 -2.88276e-15 0)
(3 -3.43215e-15 0)
(2.0954 -0.66326 0)
(2.99052 -3.74693e-05 0)
(3 -3.98074e-15 0)
(3 -2.94626e-15 0)
(3 -2.30271e-15 0)
(3 -1.71705e-15 0)
(3 -1.05752e-15 0)
(3 -7.46864e-16 0)
(3 -5.83421e-16 0)
(3 -5.65284e-16 0)
(3 -7.80227e-16 0)
(3 -1.23658e-15 0)
(3 -2.52756e-15 0)
(3 -3.41469e-15 0)
(3 -4.96575e-15 0)
(3 -5.11774e-15 0)
(3 -4.48464e-15 0)
(3 -4.3693e-15 0)
(3 -4.36988e-15 0)
(3 -4.23928e-15 0)
(1.92653 -0.872436 0)
(2.70588 -0.211352 0)
(3 -2.16675e-15 0)
(3 -2.22596e-15 0)
(3 -1.98889e-15 0)
(3 -1.86539e-15 0)
(3 -1.79874e-15 0)
(3 -1.62782e-15 0)
(3 -1.54214e-15 0)
(3 -2.52402e-15 0)
(3 -3.45591e-15 0)
(3 -4.15035e-15 0)
(3 -4.44321e-15 0)
(3 -4.30378e-15 0)
(3 -4.21341e-15 0)
(3 -3.70343e-15 0)
(3 -3.72969e-15 0)
(3 -3.69712e-15 0)
(3 -3.48972e-15 0)
(3 -3.60067e-15 0)
(1.83021 -1.00231 0)
(2.46459 -0.433583 0)
(3 -9.00875e-17 0)
(3 -1.22993e-15 0)
(3 -1.18369e-15 0)
(3 -1.32912e-15 0)
(3 -1.51939e-15 0)
(3 -1.98752e-15 0)
(3 -2.34907e-15 0)
(3 -2.67511e-15 0)
(3 -2.48644e-15 0)
(3 -2.57023e-15 0)
(3 -2.51595e-15 0)
(3 -1.98225e-15 0)
(3 -3.7761e-16 0)
(3 1.00548e-15 0)
(3 9.06057e-16 0)
(3 2.08244e-16 0)
(3 1.21608e-16 0)
(3 8.81455e-17 0)
(1.7801 -1.10652 0)
(2.23981 -0.646978 0)
(3 3.7883e-15 0)
(3 2.94557e-15 0)
(3 8.13879e-16 0)
(3 -2.78226e-16 0)
(3 -1.28221e-15 0)
(3 -2.13858e-15 0)
(3 -2.59723e-15 0)
(3 -2.03491e-15 0)
(3 -9.13428e-16 0)
(3 -8.50266e-16 0)
(3 -2.36585e-16 0)
(3 1.36165e-15 0)
(3 1.63074e-15 0)
(3 1.75806e-15 0)
(3 1.45479e-15 0)
(3 1.32788e-15 0)
(3 1.10814e-15 0)
(3 8.4146e-16 0)
(1.69724 -1.17109 0)
(2.04552 -0.823585 0)
(3 3.68612e-15 0)
(3 2.84793e-15 0)
(3 1.1969e-15 0)
(3 -4.55197e-16 0)
(3 -1.37445e-15 0)
(3 -1.97494e-15 0)
(3 -1.79182e-15 0)
(3 -8.7616e-16 0)
(3 -3.84391e-17 0)
(3 7.6651e-16 0)
(3 1.35945e-15 0)
(3 1.67768e-15 0)
(3 1.52245e-15 0)
(3 1.65972e-15 0)
(3 1.42868e-15 0)
(3 1.07808e-15 0)
(3 7.16727e-16 0)
(3 5.59833e-16 0)
(1.66787 -1.2014 0)
(1.88277 -0.985454 0)
(2.98218 -0.0136382 0)
(3 1.13324e-15 0)
(3 2.59968e-16 0)
(3 -7.7688e-16 0)
(3 -1.52736e-15 0)
(3 -1.66574e-15 0)
(3 -8.56344e-16 0)
(3 3.1212e-17 0)
(3 6.58605e-16 0)
(3 1.27648e-15 0)
(3 1.24371e-15 0)
(3 1.14419e-15 0)
(3 1.67242e-15 0)
(3 1.09309e-15 0)
(3 7.50322e-16 0)
(3 5.50136e-16 0)
(3 2.0673e-16 0)
(3 7.63307e-17 0)
(1.65532 -1.2399 0)
(1.83171 -1.10447 0)
(2.8733 -0.0974367 0)
(3 4.20083e-14 0)
(3 -1.90459e-15 0)
(3 -2.291e-15 0)
(3 -2.50603e-15 0)
(3 -8.65028e-16 0)
(3 2.73992e-16 0)
(3 4.40584e-16 0)
(3 8.7603e-16 0)
(3 1.17501e-15 0)
(3 1.00474e-15 0)
(3 6.19896e-16 0)
(3 9.45525e-17 0)
(3 -2.82571e-16 0)
(3 -5.76898e-16 0)
(3 -7.28692e-16 0)
(3 -1.50398e-15 0)
(3 -1.94033e-15 0)
(1.63888 -1.25956 0)
(1.62796 -1.24938 0)
(2.65361 -0.289986 0)
(3 -3.28748e-13 0)
(3 1.95806e-14 0)
(3 -2.82875e-15 0)
(3 -2.87397e-15 0)
(3 -2.37452e-15 0)
(3 -1.09692e-15 0)
(3 -3.77604e-16 0)
(3 -2.65513e-17 0)
(3 3.81687e-16 0)
(3 7.2145e-17 0)
(3 -1.41225e-16 0)
(3 1.03121e-16 0)
(3 -1.27897e-16 0)
(3 -1.19461e-15 0)
(3 -9.6883e-16 0)
(3 -1.47999e-15 0)
(3 -1.56799e-15 0)
(1.62135 -1.27839 0)
(1.5682 -1.31763 0)
(2.41372 -0.543088 0)
(3 2.28595e-12 0)
(3 2.79187e-11 0)
(3 -1.64905e-13 0)
(3 -2.74929e-15 0)
(3 -2.11409e-15 0)
(3 -1.27126e-15 0)
(3 -5.42734e-16 0)
(3 -6.14039e-16 0)
(3 -6.55042e-16 0)
(3 -7.13215e-16 0)
(3 2.33002e-16 0)
(3 6.53713e-16 0)
(3 5.09609e-16 0)
(3 2.32692e-16 0)
(3 -1.51135e-16 0)
(3 2.87362e-16 0)
(3 3.01582e-16 0)
(1.60461 -1.29281 0)
(1.48064 -1.37107 0)
(2.19324 -0.802115 0)
(3.01058 0.00898656 0)
(3 -2.75717e-08 0)
(3 3.88449e-12 0)
(3 4.46604e-15 0)
(3 -2.43134e-15 0)
(3 -1.26431e-15 0)
(3 -6.88e-16 0)
(3 -4.67215e-16 0)
(3 -2.02895e-16 0)
(3 8.44617e-16 0)
(3 2.29891e-15 0)
(3 2.52624e-15 0)
(3 2.10322e-15 0)
(3 1.04065e-15 0)
(3 5.21969e-16 0)
(3 9.09829e-16 0)
(3 2.50639e-15 0)
(1.59066 -1.30822 0)
(1.46821 -1.36748 0)
(1.91304 -1.04872 0)
(2.84526 -0.130486 0)
(3 1.46954e-08 0)
(3 -4.31564e-12 0)
(3 -9.91895e-15 0)
(3 -1.32964e-15 0)
(3 -7.55369e-16 0)
(3 -1.25763e-16 0)
(3 3.29367e-16 0)
(3 1.51174e-15 0)
(3 2.81246e-15 0)
(3 3.56245e-15 0)
(3 1.71729e-15 0)
(3 2.91142e-16 0)
(3 5.99042e-16 0)
(3 4.76334e-16 0)
(3 9.22391e-16 0)
(3 2.7724e-15 0)
(1.59083 -1.32466 0)
(1.49533 -1.33313 0)
(1.77058 -1.1781 0)
(2.43242 -0.539175 0)
(3 2.56162e-05 0)
(3 5.58398e-11 0)
(3 -6.18947e-13 0)
(3 2.02508e-13 0)
(3 -1.84387e-14 0)
(3 7.22371e-16 0)
(3 1.49354e-15 0)
(3 1.90308e-15 0)
(3 2.99339e-15 0)
(3 1.83125e-15 0)
(3 1.528e-15 0)
(3 1.73752e-15 0)
(3 2.61021e-15 0)
(3 1.99777e-15 0)
(3 2.66958e-15 0)
(3 3.77201e-15 0)
(1.57932 -1.29723 0)
(1.56107 -1.29835 0)
(1.67635 -1.243 0)
(2.18788 -0.831832 0)
(3.02105 0.0219807 0)
(3 -4.26517e-11 0)
(3 7.22477e-11 0)
(3 -4.58673e-11 0)
(3 3.4596e-12 0)
(3 7.58554e-16 0)
(3 1.03411e-15 0)
(3 2.60777e-15 0)
(3 2.50199e-15 0)
(3 1.53288e-15 0)
(3 1.44147e-15 0)
(3 1.70892e-15 0)
(3 2.92751e-15 0)
(3 2.131e-15 0)
(3 2.96179e-15 0)
(3 2.78579e-15 0)
(1.58175 -1.27532 0)
(1.57815 -1.27366 0)
(1.63853 -1.26254 0)
(1.74987 -1.18297 0)
(2.6672 -0.289193 0)
(3 5.67692e-10 0)
(3 -1.44383e-08 0)
(3 1.30289e-08 0)
(3 -5.63625e-10 0)
(3 -3.02501e-12 0)
(3 1.02563e-13 0)
(3 1.056e-15 0)
(3 1.55013e-15 0)
(3 3.08669e-17 0)
(3 1.67864e-15 0)
(3 1.17098e-15 0)
(3 2.39172e-15 0)
(3 1.77345e-15 0)
(3 1.99019e-15 0)
(3 2.42517e-15 0)
(1.58398 -1.26258 0)
(1.59364 -1.25925 0)
(1.62661 -1.25585 0)
(1.72162 -1.20666 0)
(2.37369 -0.630331 0)
(3.01899 0.0173765 0)
(2.99976 -0.000182603 0)
(3 4.40049e-06 0)
(3 -8.55385e-08 0)
(3 9.32707e-10 0)
(3 -1.72569e-13 0)
(3 3.65721e-15 0)
(3 6.74042e-16 0)
(3 -2.61529e-16 0)
(3 1.55833e-15 0)
(3 1.55859e-15 0)
(3 1.53481e-15 0)
(3 8.99412e-16 0)
(3 4.42162e-16 0)
(3 1.33398e-15 0)
(1.58533 -1.2524 0)
(1.60678 -1.25349 0)
(1.62293 -1.25176 0)
(1.64576 -1.25921 0)
(1.88395 -1.0682 0)
(2.76071 -0.205122 0)
(3.00501 0.0021527 0)
(2.9999 -9.00984e-05 0)
(3 9.60678e-07 0)
(3 -9.11752e-10 0)
(3 1.50644e-14 0)
(3 3.64323e-15 0)
(3 7.62492e-16 0)
(3 -5.28278e-16 0)
(3 1.99613e-15 0)
(3 1.62003e-15 0)
(3 1.21059e-15 0)
(3 8.67795e-16 0)
(3 -1.47643e-16 0)
(3 9.8001e-16 0)
(1.58704 -1.24841 0)
(1.60613 -1.25445 0)
(1.61601 -1.25759 0)
(1.60633 -1.28403 0)
(1.67347 -1.23446 0)
(2.21866 -0.788025 0)
(2.99352 -0.00107624 0)
(3.00046 0.000922058 0)
(3 -7.9945e-07 0)
(3 -5.89959e-11 0)
(3 2.74375e-14 0)
(3 3.10746e-15 0)
(3 6.31145e-16 0)
(3 -1.03625e-16 0)
(3 2.01078e-15 0)
(3 1.11976e-15 0)
(3 -4.13467e-16 0)
(3 -7.60138e-16 0)
(3 -1.15135e-15 0)
(3 9.72465e-17 0)
(1.58505 -1.25051 0)
(1.59527 -1.25834 0)
(1.60139 -1.27184 0)
(1.60368 -1.28247 0)
(1.65202 -1.26782 0)
(1.70528 -1.24176 0)
(2.24967 -0.760558 0)
(2.99277 -0.0206983 0)
(3 -5.15971e-08 0)
(3 3.32345e-11 0)
(3 1.04185e-14 0)
(3 5.32699e-15 0)
(3 3.79758e-16 0)
(3 -1.77459e-15 0)
(3 1.40144e-15 0)
(3 -4.97441e-16 0)
(3 -1.59731e-15 0)
(3 -1.91925e-15 0)
(3 -1.53801e-15 0)
(3 -3.00576e-16 0)
(1.57773 -1.25843 0)
(1.58275 -1.26562 0)
(1.58743 -1.2722 0)
(1.5939 -1.26482 0)
(1.60453 -1.24788 0)
(1.59669 -1.26783 0)
(1.91384 -1.17339 0)
(2.97643 -0.387856 0)
(3.3201 0.580174 0)
(3 -6.20135e-11 0)
(3 7.35446e-11 0)
(3 -7.8832e-11 0)
(3 -1.69935e-15 0)
(3 4.34329e-13 0)
(3 1.57093e-14 0)
(3 -1.62772e-14 0)
(3 6.29806e-15 0)
(3 -2.22718e-15 0)
(3 9.37101e-17 0)
(3 1.66309e-15 0)
(1.15462 -0.776863 0)
(1.83064 -1.14833 0)
(1.83784 -1.1539 0)
(1.73074 -1.19941 0)
(1.70708 -1.18946 0)
(1.66718 -1.23811 0)
(1.66374 -1.21063 0)
(1.73341 -1.16532 0)
(1.76858 -1.22639 0)
(1.79916 -1.13413 0)
(2.27169 -0.734242 0)
(2.85907 -0.207017 0)
(3.0988 0.0289296 0)
(3.0212 0.0126487 0)
(3.00437 0.00541003 0)
(3.00178 0.00295415 0)
(3.00006 0.000572327 0)
(2.99998 2.3074e-05 0)
(2.99999 -1.43706e-05 0)
(3 -5.91043e-06 0)
(0.998989 -0.0442362 0)
(1.91544 -0.816691 0)
(2.12045 -0.794841 0)
(2.00391 -0.946375 0)
(1.94075 -0.997955 0)
(1.8605 -1.09095 0)
(1.80178 -1.1273 0)
(1.76802 -1.14421 0)
(1.76401 -1.16217 0)
(1.73923 -1.20199 0)
(1.71516 -1.19525 0)
(1.85264 -1.07214 0)
(2.09073 -0.888077 0)
(2.50123 -0.580066 0)
(2.98773 -0.137168 0)
(3.07445 0.0295328 0)
(3.00823 0.00775584 0)
(3.00294 0.00385921 0)
(3.00122 0.0022033 0)
(3.00008 0.00048836 0)
(1.04993 0.10437 0)
(1.92379 -0.0174634 0)
(2.21492 -0.523816 0)
(2.2278 -0.530329 0)
(2.20496 -0.557692 0)
(2.14947 -0.730249 0)
(2.03499 -0.909934 0)
(1.96743 -0.979768 0)
(1.90313 -1.04103 0)
(1.85428 -1.12773 0)
(1.7899 -1.15902 0)
(1.78935 -1.14969 0)
(1.8085 -1.12924 0)
(1.85225 -1.08665 0)
(2.04296 -0.949493 0)
(2.25813 -0.829898 0)
(2.65997 -0.508517 0)
(3.03417 -0.0952999 0)
(3.05504 0.023239 0)
(3.00399 0.00462061 0)
(1.24356 0.703651 0)
(1.63608 1.24883 0)
(2.22024 0.785041 0)
(2.31835 -0.177297 0)
(2.35212 -0.319929 0)
(2.3504 -0.338035 0)
(2.29078 -0.494457 0)
(2.22197 -0.628801 0)
(2.14434 -0.744167 0)
(2.09707 -0.885735 0)
(1.98018 -0.994906 0)
(1.91941 -1.05257 0)
(1.88446 -1.07655 0)
(1.86953 -1.08934 0)
(1.87218 -1.0577 0)
(1.89636 -1.05012 0)
(1.96049 -1.02326 0)
(2.16365 -0.905336 0)
(2.384 -0.791359 0)
(2.78165 -0.437833 0)
(1.30167 1.33669 0)
(1.46436 1.87795 0)
(2.04424 1.43204 0)
(2.26805 0.571142 0)
(2.41998 0.137218 0)
(2.48034 0.0871487 0)
(2.47425 -0.154455 0)
(2.40262 -0.396072 0)
(2.34525 -0.482067 0)
(2.30771 -0.625698 0)
(2.21227 -0.76942 0)
(2.12308 -0.880577 0)
(2.06282 -0.938539 0)
(2.00951 -0.990145 0)
(1.97958 -0.984587 0)
(1.95566 -0.992668 0)
(1.95513 -1.01403 0)
(1.97113 -0.993669 0)
(1.9961 -0.993791 0)
(2.07071 -0.977824 0)
(1.21919 1.40081 0)
(1.65119 2.21262 0)
(1.9973 1.68472 0)
(2.04563 1.52512 0)
(2.31717 1.18246 0)
(2.40427 0.329764 0)
(2.5058 0.174091 0)
(2.52726 -0.022739 0)
(2.46679 -0.206895 0)
(2.45577 -0.325324 0)
(2.39515 -0.486547 0)
(2.32856 -0.608576 0)
(2.27752 -0.678477 0)
(2.22572 -0.739989 0)
(2.18251 -0.765934 0)
(2.13982 -0.794612 0)
(2.08401 -0.855096 0)
(2.05706 -0.894157 0)
(2.02983 -0.940041 0)
(2.05817 -0.957195 0)
(1.10734 1.2593 0)
(1.77312 1.97158 0)
(2.06212 1.93649 0)
(1.97605 1.80195 0)
(2.17175 1.50467 0)
(2.3232 1.13674 0)
(2.40604 0.877435 0)
(2.47075 0.633885 0)
(2.48094 0.34989 0)
(2.50977 0.218552 0)
(2.51199 0.0184556 0)
(2.47866 -0.159004 0)
(2.45821 -0.28739 0)
(2.41494 -0.414294 0)
(2.35451 -0.542411 0)
(2.31772 -0.607288 0)
(2.23004 -0.720393 0)
(2.18849 -0.756222 0)
(2.17194 -0.775335 0)
(2.14975 -0.779357 0)
(1.22673 1.17685 0)
(1.61088 1.46689 0)
(2.16543 2.08955 0)
(2.06191 2.12869 0)
(2.24677 1.62958 0)
(2.26306 1.47578 0)
(2.38579 1.1334 0)
(2.46821 0.880862 0)
(2.49644 0.739503 0)
(2.54178 0.520756 0)
(2.60095 0.322268 0)
(2.58012 0.0603481 0)
(2.58911 -0.108126 0)
(2.5389 -0.293651 0)
(2.48363 -0.435103 0)
(2.43856 -0.491072 0)
(2.38695 -0.535312 0)
(2.38743 -0.472553 0)
(2.32787 -0.538799 0)
(2.32668 -0.51148 0)
(1.33378 1.13133 0)
(1.53214 1.27176 0)
(1.88431 1.7821 0)
(2.02688 2.29325 0)
(2.38602 1.76264 0)
(2.41218 1.70585 0)
(2.5842 1.22346 0)
(2.6879 0.95271 0)
(2.74074 0.836159 0)
(2.72139 0.485623 0)
(2.72936 0.323865 0)
(2.68397 0.105431 0)
(2.67745 0.0231894 0)
(2.64509 -0.0915561 0)
(2.61161 -0.152677 0)
(2.57281 -0.170401 0)
(2.54928 -0.153413 0)
(2.52874 -0.180345 0)
(2.45116 -0.334247 0)
(2.46312 -0.322055 0)
(1.38404 1.11519 0)
(1.5138 1.1667 0)
(1.70727 1.61652 0)
(1.70567 2.04209 0)
(2.22932 1.94679 0)
(2.485 1.87268 0)
(2.61849 1.3959 0)
(2.69005 1.12193 0)
(2.71716 0.957871 0)
(2.7276 0.811688 0)
(2.72496 0.724652 0)
(2.71176 0.557538 0)
(2.68749 0.474704 0)
(2.68767 0.384833 0)
(2.65654 0.266148 0)
(2.64714 0.20428 0)
(2.64436 0.101173 0)
(2.61018 -0.061742 0)
(2.54814 -0.210761 0)
(2.55838 -0.167784 0)
(1.40901 1.15432 0)
(1.54437 1.19006 0)
(1.61551 1.57777 0)
(1.62724 1.98079 0)
(1.78796 2.0571 0)
(2.12321 1.84475 0)
(2.23106 1.6631 0)
(2.37181 1.40666 0)
(2.46834 1.35036 0)
(2.47204 1.3394 0)
(2.5191 1.15984 0)
(2.57697 1.01261 0)
(2.59849 0.818835 0)
(2.68168 0.720565 0)
(2.67764 0.480186 0)
(2.71805 0.340351 0)
(2.70929 0.137427 0)
(2.68259 -0.00263454 0)
(2.63486 0.000812288 0)
(2.61196 0.0271824 0)
(1.44549 1.24826 0)
(1.60408 1.30321 0)
(1.59054 1.69622 0)
(1.57513 1.99309 0)
(1.64368 2.115 0)
(1.92198 1.95662 0)
(2.04643 1.89905 0)
(2.18853 1.64888 0)
(2.24259 1.55031 0)
(2.32747 1.49444 0)
(2.44983 1.26639 0)
(2.58343 1.1557 0)
(2.63609 0.872372 0)
(2.7513 0.751051 0)
(2.74642 0.475685 0)
(2.75748 0.386565 0)
(2.75071 0.269413 0)
(2.72447 0.265381 0)
(2.70685 0.379516 0)
(2.6603 0.261402 0)
(1.54617 1.3821 0)
(1.65744 1.46623 0)
(1.57676 1.88468 0)
(1.57471 2.09983 0)
(1.66727 2.137 0)
(1.85035 1.99016 0)
(1.96264 1.95125 0)
(2.13654 1.69256 0)
(2.23984 1.59695 0)
(2.41484 1.5095 0)
(2.52995 1.25212 0)
(2.67943 1.13012 0)
(2.72282 0.918806 0)
(2.75823 0.862312 0)
(2.783 0.752679 0)
(2.77 0.760342 0)
(2.74969 0.664196 0)
(2.72518 0.692563 0)
(2.72874 0.68345 0)
(2.71166 0.46069 0)
(1.69706 1.47252 0)
(1.79647 1.56482 0)
(1.66245 2.03083 0)
(1.67776 2.2078 0)
(1.7434 2.12401 0)
(1.90543 2.02876 0)
(2.00533 2.02693 0)
(2.22649 1.7303 0)
(2.37569 1.70835 0)
(2.53345 1.57312 0)
(2.58445 1.51856 0)
(2.68937 1.36246 0)