/*--------------------------------*- C++ -*----------------------------------*\
  =========                 |
  \\      /  F ield         | OpenFOAM: The Open Source CFD Toolbox
   \\    /   O peration     | Website:  https://openfoam.org
    \\  /    A nd           | Version:  7
     \\/     M anipulation  |
\*---------------------------------------------------------------------------*/
FoamFile
{
    version     2.0;
    format      ascii;
    class       volScalarField;
    location    "8";
    object      p;
}
// * * * * * * * * * * * * * * * * * * * * * * * * * * * * * * * * * * * * * //

dimensions      [1 -1 -2 0 0 0 0];

internalField   nonuniform List<scalar> 
3700
(
0.199676
0.272062
0.342605
0.372059
0.365873
0.36874
0.378321
0.39618
0.399388
0.419552
0.433354
0.465325
0.481239
0.485025
0.490781
0.500303
0.500177
0.491985
0.520649
0.528097
0.119605
0.110772
0.124314
0.116608
0.100253
0.103358
0.11627
0.130001
0.136244
0.154874
0.183745
0.207962
0.214478
0.211639
0.205627
0.193129
0.178574
0.174433
0.183887
0.193655
0.0936245
0.0886269
0.0821846
0.067715
0.0489152
0.0469351
0.0506956
0.0606286
0.0695884
0.0784752
0.0909259
0.09031
0.0906178
0.0907811
0.0914411
0.0933115
0.0990053
0.110017
0.122718
0.137142
0.0773787
0.0784726
0.0737452
0.0574829
0.0433756
0.0449392
0.0492209
0.0592209
0.0698724
0.0820076
0.100334
0.114272
0.127296
0.133994
0.136386
0.138207
0.13545
0.136694
0.14733
0.176395
0.0698065
0.0676166
0.0612238
0.0463465
0.0424202
0.0452389
0.0526107
0.0593117
0.0686574
0.0803326
0.0988262
0.116917
0.140238
0.160096
0.173285
0.186371
0.182567
0.183115
0.183002
0.203142
0.0638259
0.0560755
0.0484657
0.0451885
0.0487913
0.0580745
0.0697222
0.0745922
0.0823053
0.0938231
0.101312
0.114363
0.141078
0.172367
0.198165
0.223129
0.244265
0.264415
0.270838
0.28916
0.050048
0.0450204
0.0479989
0.0509539
0.0565793
0.070972
0.0891662
0.104298
0.120976
0.140497
0.135779
0.142388
0.152212
0.17787
0.210609
0.248847
0.290172
0.331397
0.364642
0.417901
0.0383928
0.0421639
0.0501284
0.0537398
0.0595439
0.0756934
0.0955946
0.118616
0.155528
0.185269
0.20191
0.219136
0.228441
0.247276
0.265035
0.294574
0.337995
0.402982
0.459589
0.563242
0.0298195
0.0410988
0.0520377
0.0547316
0.0586281
0.0762497
0.0930939
0.118261
0.166916
0.214684
0.259189
0.29298
0.333233
0.371622
0.399774
0.430126
0.459226
0.514072
0.584239
0.73658
0.0249891
0.0394245
0.0532419
0.0556748
0.0621278
0.0863797
0.0958377
0.115218
0.161985
0.226873
0.294758
0.35138
0.426035
0.484506
0.54588
0.605447
0.661087
0.715199
0.802877
0.949779
0.0240163
0.039855
0.0515622
0.061716
0.0860742
0.118691
0.132559
0.164213
0.210171
0.264572
0.342926
0.424978
0.52228
0.605012
0.700193
0.8041
0.906504
0.992974
1.15051
1.11779
0.0292233
0.0372121
0.0508857
0.0816335
0.120303
0.162445
0.206368
0.280007
0.3686
0.46145
0.549519
0.636696
0.727521
0.814031
0.912037
1.05107
1.21323
1.35497
1.56102
1.50817
0.0354035
0.0350672
0.0577542
0.0973842
0.14038
0.187256
0.266705
0.383864
0.522
0.681975
0.81148
0.940247
1.06298
1.17971
1.30526
1.46503
1.65134
1.83242
2.10341
2.09479
0.0373529
0.0370165
0.0579033
0.0886448
0.133586
0.186048
0.308521
0.471233
0.675958
0.91879
1.11772
1.30836
1.48986
1.66724
1.88169
2.11339
2.33898
2.58218
2.80585
2.99753
0.0341225
0.0366409
0.0497042
0.06931
0.117672
0.253989
0.492168
0.763822
1.10332
1.41499
1.67392
1.90619
2.13838
2.38141
2.69242
2.97918
3.25246
3.50291
3.66217
3.7878
0.0208319
0.0309723
0.0521139
0.0950556
0.27895
0.696115
1.11133
1.5333
1.9955
2.36852
2.63546
2.88909
3.15363
3.44906
3.77575
3.97646
4.08789
4.12581
4.03275
3.90644
0.0123999
0.0302668
0.102412
0.386188
0.924464
1.5025
2.04115
2.61716
3.20741
3.57093
3.77408
3.99574
4.20263
4.37719
4.48219
4.40813
4.19068
3.65481
2.79221
1.88571
0.0255042
0.132196
0.504796
1.22039
2.1446
2.89355
3.52642
4.19834
4.78517
4.83987
4.73777
4.73099
4.68895
4.52616
4.02374
3.07148
2.09764
1.33568
1.01901
0.992948
0.307742
0.880974
2.01111
3.2019
4.20079
4.83627
5.42393
5.89754
5.75693
5.30396
4.8677
4.32047
3.39963
2.32973
1.42756
1.02952
0.989341
0.994905
0.997312
0.999439
2.3126
3.63738
4.86293
5.71118
6.28245
6.44728
6.57271
6.22845
4.53159
3.20408
2.37047
1.56868
1.08471
0.987585
0.993122
0.996414
0.99918
0.999973
1.00002
1.00001
6.94287
6.89626
6.83664
6.93203
7.07131
6.78692
5.97883
2.23708
0.664889
1
1
1
1
1
1
1
1
1
1
1
6.90978
6.86587
6.74926
6.70471
6.84859
5.78274
2.66087
1.02112
1
1
1
1
1
1
1
1
1
1
1
1
6.81227
6.8554
6.81417
6.64412
6.23828
3.46735
1.06349
0.998668
1
1
1
1
1
1
1
1
1
1
1
1
6.6578
6.82209
6.83413
6.66689
4.71701
1.42961
0.992911
1.00014
0.999999
1
1
1
1
1
1
1
1
1
1
1
6.51215
6.75368
6.79018
6.15724
2.62613
0.976455
1.00036
0.999994
1
1
1
1
1
1
1
1
1
1
1
1
6.44313
6.7214
6.69846
4.91061
1.47373
1
1
1
1
1
1
1
1
1
1
1
1
1
1
1
6.41361
6.77541
6.70532
3.59206
0.984331
1
1
1
1
1
1
1
1
1
1
1
1
1
1
1
6.53541
6.71736
6.09071
2.00838
0.999982
1
1
1
1
1
1
1
1
1
1
1
1
1
1
1
6.95428
6.59931
4.85323
1.22521
1
1
1
1
1
1
1
1
1
1
1
1
1
1
1
1
7.27916
6.40455
3.44566
0.987584
1
1
1
1
1
1
1
1
1
1
1
1
1
1
1
1
7.45925
5.99726
2.28028
1
1
1
1
1
1
1
1
1
1
1
1
1
1
1
1
1
7.51893
5.35571
1.59823
1
1
1
1
1
1
1
1
1
1
1
1
1
1
1
1
1
7.55111
4.74182
1.15898
1
1
1
1
1
1
1
1
1
1
1
1
1
1
1
1
1
7.34203
4.02163
1.00917
1
1
1
1
1
1
1
1
1
1
1
1
1
1
1
1
1
7.15402
3.28602
1
1
1
1
1
1
1
1
1
1
1
1
1
1
1
1
1
1
7.05895
2.4884
1
1
1
1
1
1
1
1
1
1
1
1
1
1
1
1
1
1
6.6287
1.84173
1
1
1
1
1
1
1
1
1
1
1
1
1
1
1
1
1
1
6.30485
1.35637
1
1
1
1
1
1
1
1
1
1
1
1
1
1
1
1
1
1
5.75525
1.00556
1
1
1
1
1
1
1
1
1
1
1
1
1
1
1
1
1
1
4.64076
1.0001
1
1
1
1
1
1
1
1
1
1
1
1
1
1
1
1
1
1
4.6345
1.00009
1
1
1
1
1
1
1
1
1
1
1
1
1
1
1
1
1
1
5.75583
1.00591
1
1
1
1
1
1
1
1
1
1
1
1
1
1
1
1
1
1
6.3161
1.36536
1
1
1
1
1
1
1
1
1
1
1
1
1
1
1
1
1
1
6.61289
1.84867
1
1
1
1
1
1
1
1
1
1
1
1
1
1
1
1
1
1
7.04624
2.47821
1
1
1
1
1
1
1
1
1
1
1
1
1
1
1
1
1
1
7.16892
3.26854
1
1
1
1
1
1
1
1
1
1
1
1
1
1
1
1
1
1
7.34078
4.02969
1.01417
1
1
1
1
1
1
1
1
1
1
1
1
1
1
1
1
1
7.54499
4.75026
1.16366
1
1
1
1
1
1
1
1
1
1
1
1
1
1
1
1
1
7.5148
5.36191
1.59964
1
1
1
1
1
1
1
1
1
1
1
1
1
1
1
1
1
7.4558
5.98364
2.28573
1
1
1
1
1
1
1
1
1
1
1
1
1
1
1
1
1
7.28606
6.41661
3.43363
0.987655
1
1
1
1
1
1
1
1
1
1
1
1
1
1
1
1
6.95704
6.59667
4.85461
1.22724
1
1
1
1
1
1
1
1
1
1
1
1
1
1
1
1
6.52474
6.6892
6.06091
2.00871
0.999981
1
1
1
1
1
1
1
1
1
1
1
1
1
1
1
6.42423
6.79784
6.73198
3.58161
0.977991
1
1
1
1
1
1
1
1
1
1
1
1
1
1
1
6.45601
6.73997
6.71698
4.92129
1.48991
1
1
1
1
1
1
1
1
1
1
1
1
1
1
1
6.52132
6.74878
6.77963
6.12417
2.63432
0.97652
1.00035
0.999994
1
1
1
1
1
1
1
1
1
1
1
1
6.65542
6.80529
6.82542
6.67481
4.71123
1.41447
0.993202
1.00013
0.999999
1
1
1
1
1
1
1
1
1
1
1
6.81357
6.85325
6.82384
6.66701
6.24
3.45545
1.05817
0.998712
1
1
1
1
1
1
1
1
1
1
1
1
6.92603
6.86815
6.75896
6.71806
6.81443
5.76844
2.68208
1.02559
1
1
1
1
1
1
1
1
1
1
1
1
6.93791
6.89236
6.83715
6.93053
7.06697
6.78433
5.98196
2.24099
0.666795
1
1
1
1
1
1
1
1
1
1
1
2.30834
3.62346
4.84631
5.69832
6.27539
6.44714
6.57937
6.23075
4.53422
3.20716
2.37261
1.56864
1.08428
0.987513
0.993126
0.996417
0.999186
0.999973
1.00002
1.00001
0.314935
0.91196
2.02422
3.19735
4.1978
4.83407
5.4159
5.88726
5.74856
5.30141
4.86879
4.32341
3.40165
2.33042
1.4277
1.02957
0.989368
0.994917
0.997316
0.999439
0.0167956
0.106587
0.516348
1.25108
2.16015
2.89339
3.51783
4.18781
4.77131
4.83918
4.7402
4.72878
4.68617
4.52242
4.01975
3.06864
2.09668
1.33552
1.01898
0.992945
0.0156985
0.0261977
0.0999886
0.384975
0.941983
1.52047
2.05075
2.61831
3.20143
3.56943
3.77251
3.99267
4.1985
4.37219
4.48187
4.40869
4.19198
3.65652
2.79391
1.88669
0.0311556
0.0317291
0.0293309
0.0736216
0.286303
0.717823
1.13029
1.54714
2.00308
2.3725
2.63672
2.88759
3.15033
3.44569
3.77397
3.97627
4.09043
4.12838
4.03517
3.90814
0.0410977
0.0317165
0.0322078
0.0606696
0.10726
0.254667
0.505845
0.778608
1.11609
1.42483
1.6799
1.90814
2.13755
2.37974
2.69051
2.97727
3.25195
3.50436
3.66446
3.78895
0.0399507
0.0323606
0.0467079
0.0850745
0.116315
0.180075
0.310166
0.475953
0.683034
0.926584
1.12434
1.31324
1.49304
1.66832
1.8806
2.11075
2.33626
2.58271
2.80884
3.0001
0.0361962
0.0325456
0.0519841
0.0957593
0.130295
0.17896
0.261198
0.381817
0.523228
0.685795
0.816407
0.944864
1.06624
1.18109
1.30441
1.46284
1.6496
1.83303
2.10614
2.09706
0.0297089
0.0331371
0.0486377
0.0819612
0.115819
0.155175
0.199729
0.27482
0.36537
0.460689
0.550199
0.637127
0.726985
0.812654
0.909333
1.04805
1.21155
1.35475
1.56239
1.50913
0.024466
0.0326965
0.0492183
0.0637325
0.0848932
0.113096
0.130923
0.163203
0.210593
0.261804
0.338065
0.420675
0.519112
0.60234
0.697631
0.802281
0.905998
0.993245
1.15093
1.11946
0.0249699
0.0341731
0.0499461
0.0571141
0.0651694
0.084966
0.0972685
0.116804
0.161015
0.224538
0.291907
0.349244
0.424702
0.483529
0.545147
0.605104
0.661459
0.716118
0.803149
0.950272
0.0286629
0.0377462
0.0500664
0.0540163
0.060843
0.0778329
0.0924245
0.118387
0.166157
0.214892
0.259271
0.293076
0.333393
0.371646
0.399701
0.430338
0.459565
0.514373
0.58388
0.736084
0.0365932
0.0412167
0.049513
0.0514344
0.0601371
0.0772991
0.0938382
0.119045
0.155898
0.186958
0.204363
0.22126
0.229625
0.247752
0.265251
0.294957
0.338181
0.402924
0.459187
0.561921
0.0485884
0.0456218
0.0479009
0.0486745
0.0569334
0.0727658
0.0874866
0.10607
0.123161
0.14386
0.13831
0.143751
0.152918
0.178789
0.211201
0.248961
0.289913
0.330967
0.364269
0.415827
0.0622518
0.0567557
0.049239
0.0424571
0.0486054
0.0598397
0.0682673
0.0783872
0.0858884
0.0964789
0.102556
0.115335
0.141552
0.172085
0.197987
0.223144
0.244237
0.264264
0.270098
0.287652
0.0690999
0.0677176
0.0622507
0.0445363
0.0427155
0.0453262
0.0511171
0.060282
0.0686621
0.0806179
0.09956
0.117436
0.139545
0.159183
0.172712
0.186274
0.182624
0.182743
0.18241
0.202462
0.0791814
0.0785824
0.0757768
0.0585823
0.0439719
0.0445138
0.048079
0.0598147
0.0695231
0.0821359
0.100337
0.113701
0.126239
0.13337
0.135863
0.137717
0.135378
0.136781
0.147342
0.175752
0.100583
0.0901428
0.086063
0.0713278
0.0498053
0.046098
0.0491072
0.0607148
0.0689539
0.0777575
0.0883795
0.0898799
0.0908019
0.0909645
0.0915469
0.0937882
0.100395
0.111011
0.12289
0.136607
0.129974
0.121185
0.130251
0.131629
0.118738
0.0968039
0.0896404
0.103447
0.12565
0.142834
0.153954
0.151106
0.147482
0.146792
0.151481
0.163838
0.186831
0.214821
0.244453
0.243396
0.202885
0.281565
0.337225
0.380436
0.379905
0.367309
0.353594
0.36776
0.388603
0.405393
0.410214
0.434545
0.460241
0.46992
0.485629
0.510123
0.52468
0.525641
0.535506
0.531727
0.562948
0.638269
0.698816
0.794555
0.836944
0.886517
0.887522
0.879146
0.863197
0.87038
0.901954
0.955754
0.973682
0.960746
0.933402
0.928845
0.94372
0.972056
0.974632
0.961332
0.290047
0.416194
0.545
0.665474
0.766954
0.850899
0.86819
0.885186
0.880324
0.888661
0.912573
0.95184
0.965771
0.959817
0.946359
0.943541
0.951716
0.968057
0.968105
0.95968
0.138445
0.158173
0.236244
0.335967
0.510526
0.693085
0.785754
0.861672
0.894959
0.909537
0.922309
0.938686
0.942649
0.946527
0.954585
0.96015
0.963575
0.961598
0.954673
0.954428
0.193699
0.216898
0.22809
0.232904
0.248898
0.326268
0.525295
0.737479
0.833989
0.914042
0.933005
0.927145
0.918559
0.929046
0.95427
0.966265
0.966974
0.959804
0.948455
0.952897
0.239154
0.262558
0.285795
0.292537
0.282568
0.279022
0.297443
0.391354
0.621805
0.840338
0.890569
0.896024
0.893782
0.913378
0.950708
0.970799
0.969909
0.95574
0.945488
0.954568
0.300192
0.330002
0.345518
0.334988
0.313142
0.305145
0.309347
0.321702
0.371194
0.528981
0.733483
0.860076
0.861355
0.8993
0.9366
0.963844
0.964171
0.952603
0.948052
0.960768
0.388608
0.41025
0.40818
0.392738
0.364081
0.355338
0.36139
0.363755
0.370718
0.38417
0.46736
0.66641
0.833206
0.904028
0.914592
0.947906
0.950075
0.941823
0.949056
0.967223
0.515382
0.501365
0.484956
0.464887
0.427698
0.394923
0.39844
0.398024
0.39531
0.392225
0.399406
0.443994
0.65695
0.843162
0.897958
0.941065
0.931555
0.932444
0.957442
0.968898
0.67646
0.614072
0.562195
0.533248
0.493729
0.443407
0.436212
0.432819
0.427345
0.419616
0.419278
0.419816
0.459955
0.636999
0.848767
0.929964
0.903662
0.922337
0.968234
0.967376
0.871199
0.750886
0.657225
0.621833
0.580808
0.520351
0.48275
0.469872
0.444379
0.441717
0.442406
0.436559
0.441179
0.467404
0.618522
0.826008
0.867242
0.930383
0.975892
0.963849
1.2779
0.976621
0.73534
0.661014
0.682077
0.668535
0.615093
0.561926
0.513942
0.48973
0.488539
0.485426
0.479629
0.475754
0.484067
0.566038
0.750294
0.8915
0.941127
0.952731
2.02677
1.53297
1.15227
0.866246
0.838254
0.816165
0.763133
0.683874
0.604119
0.547142
0.539839
0.538161
0.527175
0.512447
0.493094
0.492733
0.532004
0.645338
0.785853
0.907218
2.50258
2.15825
1.74691
1.33742
1.06494
0.924688
0.825788
0.779273
0.73023
0.67063
0.651609
0.629088
0.602802
0.570927
0.541198
0.520673
0.528733
0.538185
0.57652
0.744121
2.36822
2.34796
2.23247
1.9436
1.56717
1.27224
1.03698
0.952548
0.898305
0.834528
0.773245
0.717799
0.6566
0.614773
0.596595
0.582545
0.571275
0.560992
0.548289
0.581355
1.68306
2.15064
2.22222
2.19385
2.04812
1.78576
1.49359
1.23184
1.07572
0.949326
0.860198
0.802855
0.743891
0.707498
0.696883
0.674894
0.647797
0.621497
0.57772
0.575488
1.10823
1.44011
1.85152
2.11217
2.10941
2.07068
1.93869
1.6888
1.44332
1.22111
1.05771
0.979396
0.922199
0.859525
0.79907
0.733407
0.685705
0.658121
0.637075
0.610296
1.00454
1.04431
1.20728
1.54557
1.86106
2.02046
2.0171
1.9716
1.83474
1.62791
1.38964
1.21452
1.08134
0.975259
0.898831
0.82479
0.752713
0.727555
0.728404
0.700639
1.00009
1.00111
1.0105
1.07908
1.26563
1.56915
1.82325
1.93697
1.92955
1.88822
1.77017
1.58063
1.38272
1.21202
1.09481
1.0205
0.934307
0.87144
0.829209
0.764139
1
1.00001
1.00015
1.00256
1.01822
1.09983
1.29175
1.56013
1.76329
1.85776
1.85286
1.81659
1.72076
1.55822
1.37458
1.22678
1.10809
0.997745
0.91913
0.833111
1
1
1
1.00003
1.00031
1.00397
1.02463
1.10937
1.28489
1.52538
1.70137
1.78641
1.7834
1.75705
1.6774
1.53646
1.38287
1.232
1.123
0.998864
1
1
1
1
1
1.00005
1.00049
1.00475
1.02699
1.10386
1.26466
1.47583
1.64422
1.7229
1.72061
1.70139
1.64242
1.52731
1.39531
1.19567
1
1
1
1
1
1
1
1.00006
1.0006
1.00453
1.02613
1.09436
1.23496
1.4184
1.57865
1.66861
1.66601
1.65182
1.61658
1.46424
1
1
1
1
1
1
1
1
1.00001
1.00006
1.00061
1.00426
1.02128
1.08275
1.19721
1.36818
1.505
1.61285
1.61531
1.59145
1
1
1
1
1
1
1
1
1
1
1.00001
1.00006
1.00048
1.00375
1.01671
1.06496
1.16442
1.31518
1.44302
1.55015
1
1
1
1
1
1
1
1
1
1
1
1
1.00001
1.00005
1.00039
1.00262
1.01411
1.05143
1.13606
1.38877
1.61544
2.46492
2.5845
2.08514
1.30955
1.03692
1.00188
1.00005
1
1
1
1
1
1
1
2.34422
2.81498
2.52622
1.54004
1.04809
1.0008
1
1
1
1
1
1
1
1
1
2.92906
2.86769
1.98042
1.15297
1.00526
1.00005
1
1
1
1
1
1
1
1
1
3.25104
2.5585
1.36582
1.01935
1.00019
1
1
1
1
1
1
1
1
1
1
3.32343
1.68423
1.0471
1.0005
1
1
1
1
1
1
1
1
1
1
1
2.06624
1.07348
1.00051
0.999999
1
1
1
1
1
1
1
1
1
1
1
1.10091
1.00054
0.999997
1
1
1
1
1
1
1
1
1
1
1
1
0.99815
0.999864
0.999996
1
1
1
1
1
1
1
1
1
1
1
1
0.999967
1
1
1
1
1
1
1
1
1
1
1
1
1
1
1
1
1
1
1
1
1
1
1
1
1
1
1
1
1
1
1
1
1
1
1
1
1
1
1
1
1
1
1
1
1
1
1
1
1
1
1
1
1
1
1
1
1
1
1
1
1
1
1
1
1
1
1
1
1
1
1
1
1
1
1
1
1
1
1
1
1
1
1
1
1
1
1
1
1
1
1
1
1
1
1
1
1
1
1
1
1
1
1
1
1
1
1
1
1
1
1
1
1
1
1
1
1
1
1
1
1
1
1
1
1
1
1
1
1
1
1
1
1
1
1
1
1
1
1
1
1
1
1
1
1
1
1
1
1
1
1
1
1
1
1
1
1
1
1
1
1
1
1
1
1
1
1
1
1
1
1
1
1
1
1
1
1
1
1
1
1
1
1
1
1
1
1
1
1
1
1
1
1
1
1
1
1
1
1
1
1
1
1
1
1
1
1
1
1
1
1
1
1
1
1
1
1
1
1
1
1
1
1
1
1
1
1
1
1
1
1
1
1
1
1
1
1
1
1
1
1
1
1
1
1
1
1
1
1
1
1
1
1
1
1
1
1
1
1
1
1
1
1
1
1
1
1
1
1
1
1
1
1
1
1
1
1
1
1
1
1
1
1
1
1
1
1
1
1
1
1
1
1
1
1
1
1
1
1
1
1
1
1
1
1
1
1
1
1
1
1
1
1
1
1
1
1
1
1
1
1
1
1
1
1
1
1
1
1
1
1
1
1
1
1
1
1
1
1
1
1
1
1
1
1
1
1
1
1
1
1
1
1
1
1
1
1
1
1
1
1
1
1
1
1
1
1
1
1
1
1
1
1
1
1
1
1
1
1
1
1
1
1
1
1
1
1
1
1
1
1
1
1
1
1
1
1
1
1
1
1
1
1
1
1
1
1
1
1
1
1
1
1
1
1
1
1
1
1
1
1
1
1
1
1
1
1
1
1
1
1
1
1
1
1
1
1
1
1
1
1
1
1
1
1
1
1
1
1
1
1
1
1
1
1
1
1
1
1
1
1
1
1
1
1
1
1
1
1
1
1
1
1
1
1
1
1
1
1
1
1
1
1
1
1
1
1
1
1
1
1
1
1
1
1
1
1
1
1
1
1
1
1
1
1
1
1
1
1
1
1
1
1
1
1
1
1
1
1
1
1
1
1
1
1
1
1
1
1
1
1
1
1
1
1
1
1
1
1
1
1
1
1
1
1
1
1
1
1
1
1
1
1
1
1
1
1
1
1
1
1
1
1
1
1
1
1
1
1
1
1
1
1
1
1
1
1
1
1
1
1
1
1
1
1
1
1
1
1
1
1
1
1
1
1
1
1
1
1
1
1
1
1
1
1
1
1
1
1
1
1
1
1
1
1
1
1
1
1
1
1
1
1
1
1
1
1
1
1
1
1
1
1
1
1
1
1
1
1
1
1
1
1
1
1
1
1
1
1
1
1
1
1
1
1
1
1
1
1
1
1
1
1
1
1
1
1
1
1
1
1
1
1
1
1
1
1
1
1
1
1
1
1
1
1
1
1
1
1
1
1
1
1
1
1
1
1
1
1
1
1
1
1
1
1
1
1
1
1
1
1
1
1
1
1
1
1
1
1
1
1
1
1
1
1
1
1
1
1
1
1
1
1
1
1
1
1
1
1
1
1
1
1
1
1
1
1
1
1
1
1
1
1
1
1
1
1
1
1
1
1
1
1
1
1
1
1
1
1
1
1
1
1
1
1
1
1
1
1
1
1
1
1
1
1
1
1
1
1
1
1
1
1
1
1
1
1
1
1
1
1
1
1
1
1
1
1
1
1
1
1
1
1
1
1
1
1
1
1
1
1
1
1
1
1
1
1
1
1
1
1
1
1
1
1
1
1
1
1
1
1
1
1
1
0.999966
1
1
1
1
1
1
1
1
1
1
1
1
1
1
0.99815
0.999864
0.999996
1
1
1
1
1
1
1
1
1
1
1
1
1.101
1.00054
0.999997
1
1
1
1
1
1
1
1
1
1
1
1
2.06619
1.07337
1.0005
0.999999
1
1
1
1
1
1
1
1
1
1
1
3.32328
1.6837
1.04711
1.0005
1
1
1
1
1
1
1
1
1
1
1
3.25083
2.55749
1.36536
1.01932
1.00019
1
1
1
1
1
1
1
1
1
1
2.92989
2.8677
1.98026
1.15287
1.00525
1.00005
1
1
1
1
1
1
1
1
1
2.34325
2.81504
2.52627
1.54026
1.04816
1.00081
1
1
1
1
1
1
1
1
1
1.61769
2.46405
2.58419
2.08533
1.30972
1.03688
1.00187
1.00005
1
1
1
1
1
1
1
1.27011
2.03265
2.50231
2.36767
1.6828
1.10886
1.00455
1.00009
1
1
1
1
1
1
1
0.975891
1.51833
2.1603
2.3485
2.14913
1.43997
1.04436
1.00111
1.00001
1
1
1
1
1
1
0.745084
1.14677
1.74619
2.23263
2.22388
1.85154
1.20733
1.01053
1.00015
1
1
1
1
1
1
0.670265
0.886963
1.34679
1.94096
2.19582
2.11297
1.54581
1.07907
1.00255
1.00003
1
1
1
1
1
0.679499
0.841712
1.06053
1.58116
2.05107
2.11017
1.86173
1.26594
1.01826
1.00031
1
1
1
1
1
0.663585
0.820636
0.907321
1.25933
1.79012
2.07207
2.02074
1.56934
1.09995
1.00397
1.00005
1
1
1
1
0.613809
0.772078
0.83246
1.02553
1.48118
1.93547
2.01655
1.82309
1.29157
1.02466
1.00049
1
1
1
1
0.541373
0.684141
0.787101
0.959531
1.23403
1.68332
1.97049
1.93625
1.56009
1.10922
1.00473
1.00006
1
1
1
0.496375
0.597057
0.723511
0.898329
1.08759
1.44245
1.83381
1.92928
1.76357
1.28528
1.027
1.0006
1.00001
1
1
0.491308
0.55025
0.668636
0.821356
0.946864
1.23122
1.62791
1.88851
1.85806
1.52524
1.10407
1.00456
1.00006
1
1
0.4925
0.543138
0.662088
0.771016
0.850279
1.05597
1.39497
1.77101
1.85318
1.7021
1.26446
1.02597
1.00061
1.00001
1
0.483259
0.537667
0.641167
0.716122
0.793203
0.979903
1.21469
1.58229
1.8179
1.78727
1.47607
1.09427
1.00424
1.00006
1
0.476115
0.522524
0.603181
0.655572
0.74342
0.921175
1.08124
1.38426
1.72132
1.7839
1.64311
1.23488
1.02143
1.00048
1.00001
0.471452
0.5099
0.571174
0.616852
0.708657
0.859048
0.977671
1.2155
1.55701
1.75702
1.72325
1.41829
1.08239
1.00372
1.00005
0.480571
0.490874
0.547069
0.594707
0.696107
0.796969
0.895591
1.09873
1.37813
1.6773
1.72116
1.57962
1.19682
1.01667
1.00039
0.559653
0.490308
0.521576
0.584845
0.676869
0.734374
0.816674
1.01639
1.22838
1.53772
1.70189
1.66817
1.36872
1.06508
1.00263
0.743099
0.526004
0.525886
0.57596
0.653562
0.691342
0.754637
0.930296
1.10371
1.38301
1.6427
1.66517
1.50535
1.16493
1.01416
0.887451
0.638799
0.534878
0.564275
0.622933
0.659064
0.733112
0.872493
0.99656
1.23144
1.5268
1.65109
1.61265
1.31475
1.05127
0.939153
0.784174
0.573805
0.546768
0.572678
0.633087
0.730419
0.8302
0.920427
1.12336
1.39513
1.6162
1.61491
1.44249
1.13576
0.953172
0.909243
0.74242
0.578497
0.570893
0.610183
0.699796
0.763537
0.833053
0.998595
1.196
1.4639
1.59102
1.55002
1.38864
0.869735
0.758515
0.666758
0.618742
0.574914
0.522966
0.492358
0.476038
0.454094
0.450068
0.445238
0.434336
0.439821
0.464873
0.615328
0.824385
0.872118
0.930766
0.974372
0.963509
0.678931
0.616801
0.563742
0.526072
0.492089
0.454457
0.443272
0.439409
0.430798
0.424822
0.418911
0.418793
0.45602
0.634942
0.838495
0.942336
0.912361
0.927059
0.967422
0.966669
0.519085
0.503593
0.483401
0.457872
0.418951
0.392421
0.394371
0.39793
0.393117
0.399696
0.403674
0.447609
0.653719
0.835903
0.898081
0.949763
0.942306
0.93642
0.957856
0.967097
0.390609
0.411639
0.405652
0.385859
0.358756
0.35458
0.360802
0.366196
0.374253
0.387015
0.466171
0.680551
0.842968
0.90021
0.934272
0.963065
0.962647
0.946674
0.949493
0.963703
0.300746
0.331529
0.341998
0.330841
0.309692
0.305574
0.310003
0.323591
0.377433
0.528923
0.740563
0.862039
0.868515
0.907205
0.953224
0.970791
0.968663
0.949163
0.944556
0.957546
0.239674
0.262092
0.283259
0.289065
0.28133
0.280442
0.296612
0.396974
0.637962
0.8287
0.880086
0.886575
0.895084
0.922116
0.962512
0.976771
0.972154
0.951642
0.942656
0.954078
0.193995
0.21702
0.226767
0.232038
0.246091
0.318942
0.515091
0.739622
0.836915
0.902447
0.917004
0.906592
0.912806
0.934526
0.960896
0.967416
0.965926
0.952575
0.94663
0.954881
0.138829
0.163748
0.241512
0.339561
0.509002
0.690437
0.786435
0.864444
0.894319
0.901173
0.907737
0.927505
0.940263
0.950229
0.955431
0.955451
0.956521
0.953684
0.951287
0.955662
0.290411
0.422591
0.547847
0.670265
0.769594
0.852453
0.871187
0.884775
0.877859
0.88218
0.901611
0.945041
0.960961
0.957392
0.941108
0.935666
0.942461
0.957866
0.963135
0.960093
0.558728
0.643881
0.70039
0.796319
0.837965
0.880338
0.878128
0.866925
0.851968
0.860075
0.901331
0.960678
0.97898
0.966331
0.933313
0.929393
0.94383
0.970968
0.976374
0.965046
)
;

boundaryField
{
    inlet
    {
        type            fixedValue;
        value           uniform 1;
    }
    outlet
    {
        type            zeroGradient;
    }
    airfoil
    {
        type            zeroGradient;
    }
    top
    {
        type            symmetryPlane;
    }
    bottom
    {
        type            symmetryPlane;
    }
    defaultFaces
    {
        type            empty;
    }
}


// ************************************************************************* //
