/*--------------------------------*- C++ -*----------------------------------*\
  =========                 |
  \\      /  F ield         | OpenFOAM: The Open Source CFD Toolbox
   \\    /   O peration     | Website:  https://openfoam.org
    \\  /    A nd           | Version:  7
     \\/     M anipulation  |
\*---------------------------------------------------------------------------*/
FoamFile
{
    version     2.0;
    format      ascii;
    class       volScalarField;
    location    "8";
    object      rho;
}
// * * * * * * * * * * * * * * * * * * * * * * * * * * * * * * * * * * * * * //

dimensions      [1 -3 0 0 0 0 0];

internalField   nonuniform List<scalar> 
3700
(
0.277728
0.377944
0.475281
0.51604
0.50749
0.511408
0.52456
0.549246
0.553667
0.581339
0.599969
0.643948
0.665968
0.671256
0.679322
0.692645
0.692733
0.68183
0.721611
0.731764
0.166997
0.154667
0.173401
0.162656
0.139851
0.144091
0.161905
0.181061
0.189868
0.215754
0.255622
0.289031
0.298077
0.294185
0.285949
0.268768
0.248832
0.243396
0.256583
0.270165
0.130809
0.12387
0.114917
0.0947585
0.0685376
0.0657836
0.0710379
0.0849086
0.0974204
0.109836
0.127234
0.126393
0.126846
0.127098
0.128042
0.130662
0.138619
0.154003
0.171744
0.191907
0.108187
0.109724
0.103152
0.0804831
0.0608093
0.0630047
0.0689905
0.0829633
0.0978409
0.114778
0.140374
0.159857
0.178057
0.187428
0.190804
0.193392
0.189593
0.191346
0.206193
0.246749
0.0976504
0.0946136
0.085705
0.0649544
0.0594825
0.0634322
0.0737462
0.0831042
0.096164
0.112463
0.13829
0.163554
0.196123
0.22385
0.242287
0.260583
0.255309
0.256132
0.256025
0.284146
0.0893128
0.0785133
0.0678974
0.063345
0.0684038
0.0813869
0.0976811
0.104498
0.115279
0.131351
0.141789
0.160012
0.197318
0.240997
0.277014
0.311871
0.34138
0.369526
0.378519
0.404094
0.070076
0.0630641
0.0672435
0.0713869
0.0792402
0.0993403
0.124765
0.145929
0.16926
0.196542
0.189971
0.199194
0.212898
0.248719
0.294421
0.347776
0.405411
0.462906
0.50929
0.583514
0.0537882
0.0590595
0.0701992
0.07524
0.0833276
0.10587
0.133673
0.165832
0.217375
0.258922
0.282176
0.30625
0.319255
0.345564
0.370372
0.411599
0.472139
0.562701
0.641597
0.785974
0.0417937
0.0575451
0.0728281
0.0765948
0.0820202
0.106611
0.130161
0.165305
0.233201
0.299864
0.361959
0.40913
0.465259
0.518807
0.558073
0.600421
0.641024
0.717477
0.815217
1.02725
0.0350274
0.0551784
0.0744877
0.0779081
0.0869098
0.120764
0.133994
0.161061
0.226317
0.316826
0.411506
0.490473
0.594497
0.676001
0.761506
0.844499
0.922016
0.997369
1.11942
1.32376
0.033655
0.0557692
0.0721595
0.0863772
0.120388
0.165918
0.185311
0.229454
0.29354
0.369386
0.478646
0.593019
0.728566
0.843806
0.976308
1.12091
1.2634
1.3837
1.60266
1.55725
0.040929
0.0521291
0.0712582
0.114227
0.168189
0.226967
0.288235
0.390852
0.514282
0.643532
0.766204
0.88762
1.01415
1.13465
1.27107
1.46442
1.68979
1.88673
2.17284
2.09948
0.0495944
0.0491952
0.0808935
0.136217
0.196218
0.261576
0.372272
0.535429
0.727706
0.95028
1.13054
1.30971
1.4805
1.64292
1.81748
2.0395
2.29825
2.54964
2.92564
2.91365
0.0523448
0.0519538
0.0811332
0.124013
0.186755
0.259926
0.430499
0.657009
0.941823
1.27951
1.55619
1.82127
2.07359
2.32007
2.61779
2.93931
3.25219
3.58953
3.8999
4.16598
0.0478438
0.0514421
0.0697081
0.0970541
0.164546
0.354457
0.685928
1.0638
1.53567
1.96887
2.32874
2.65144
2.97387
3.31111
3.74236
4.13979
4.51855
4.86593
5.08737
5.26215
0.029258
0.0434974
0.0730946
0.132937
0.388992
0.969035
1.54611
2.13225
2.77407
3.29207
3.66265
4.01455
4.38133
4.79072
5.24348
5.52161
5.67645
5.72949
5.60167
5.42866
0.0174582
0.0425033
0.143253
0.538283
1.28614
2.08885
2.83669
3.63599
4.455
4.9592
5.24074
5.5477
5.83402
6.07611
6.22193
6.1198
5.82084
5.08219
3.88899
2.63272
0.0359076
0.184954
0.703379
1.69714
2.97939
4.01838
4.89608
5.8277
6.64128
6.71666
6.57492
6.56544
6.50718
6.28275
5.59018
4.27355
2.92618
1.86804
1.42654
1.39016
0.430334
1.22687
2.7948
4.44531
5.82945
6.7101
7.52434
8.18122
7.9865
7.35876
6.75435
5.99818
4.72512
3.24634
1.99565
1.44119
1.38513
1.39289
1.39625
1.39922
3.21529
5.05008
6.74663
7.92048
8.71149
8.94072
9.11496
8.63981
6.29118
4.4517
3.29956
2.19099
1.51812
1.38268
1.39041
1.395
1.39886
1.39997
1.40003
1.40002
9.62405
9.55966
9.47739
9.60969
9.80334
9.41223
8.29771
3.11837
0.932178
1.40001
1.40001
1.40001
1.40001
1.40001
1.40001
1.40001
1.40001
1.40001
1.40001
1.40001
9.57851
9.51785
9.35686
9.29602
9.49658
8.026
3.7065
1.42934
1.40001
1.40001
1.40001
1.40001
1.40001
1.40001
1.40001
1.40001
1.40001
1.40001
1.40001
1.40001
9.44379
9.50352
9.44686
9.2129
8.65424
4.82297
1.48815
1.39815
1.40001
1.40001
1.40001
1.40001
1.40001
1.40001
1.40001
1.40001
1.40001
1.40001
1.40001
1.40001
9.23014
9.45745
9.47461
9.2455
6.55247
1.99681
1.39013
1.40019
1.4
1.40001
1.40001
1.40001
1.40001
1.40001
1.40001
1.40001
1.40001
1.40001
1.40001
1.40001
9.02858
9.36273
9.41387
8.54172
3.65658
1.36715
1.4005
1.4
1.40001
1.40001
1.40001
1.40001
1.40001
1.40001
1.40001
1.40001
1.40001
1.40001
1.40001
1.40001
8.93302
9.31802
9.28693
6.81802
2.05748
1.40001
1.40001
1.40001
1.40001
1.40001
1.40001
1.40001
1.40001
1.40001
1.40001
1.40001
1.40001
1.40001
1.40001
1.40001
8.89214
9.39268
9.29657
4.99362
1.37808
1.40001
1.40001
1.40001
1.40001
1.40001
1.40001
1.40001
1.40001
1.40001
1.40001
1.40001
1.40001
1.40001
1.40001
1.40001
9.06051
9.31299
8.44904
2.79894
1.4
1.40001
1.40001
1.40001
1.40001
1.40001
1.40001
1.40001
1.40001
1.40001
1.40001
1.40001
1.40001
1.40001
1.40001
1.40001
9.63959
9.15088
6.73946
1.71255
1.4
1.40001
1.40001
1.40001
1.40001
1.40001
1.40001
1.40001
1.40001
1.40001
1.40001
1.40001
1.40001
1.40001
1.40001
1.40001
10.0886
8.88273
4.79155
1.38267
1.40001
1.40001
1.40001
1.40001
1.40001
1.40001
1.40001
1.40001
1.40001
1.40001
1.40001
1.40001
1.40001
1.40001
1.40001
1.40001
10.3372
8.3211
3.17653
1.40001
1.40001
1.40001
1.40001
1.40001
1.40001
1.40001
1.40001
1.40001
1.40001
1.40001
1.40001
1.40001
1.40001
1.40001
1.40001
1.40001
10.4193
7.43496
2.23051
1.40001
1.40001
1.40001
1.40001
1.40001
1.40001
1.40001
1.40001
1.40001
1.40001
1.40001
1.40001
1.40001
1.40001
1.40001
1.40001
1.40001
10.4634
6.58616
1.6208
1.40001
1.40001
1.40001
1.40001
1.40001
1.40001
1.40001
1.40001
1.40001
1.40001
1.40001
1.40001
1.40001
1.40001
1.40001
1.40001
1.40001
10.1737
5.58892
1.41273
1.40001
1.40001
1.40001
1.40001
1.40001
1.40001
1.40001
1.40001
1.40001
1.40001
1.40001
1.40001
1.40001
1.40001
1.40001
1.40001
1.40001
9.91546
4.56923
1.40001
1.40001
1.40001
1.40001
1.40001
1.40001
1.40001
1.40001
1.40001
1.40001
1.40001
1.40001
1.40001
1.40001
1.40001
1.40001
1.40001
1.40001
9.78605
3.46425
1.40001
1.40001
1.40001
1.40001
1.40001
1.40001
1.40001
1.40001
1.40001
1.40001
1.40001
1.40001
1.40001
1.40001
1.40001
1.40001
1.40001
1.40001
9.19339
2.56773
1.40001
1.40001
1.40001
1.40001
1.40001
1.40001
1.40001
1.40001
1.40001
1.40001
1.40001
1.40001
1.40001
1.40001
1.40001
1.40001
1.40001
1.40001
8.74731
1.89455
1.40001
1.40001
1.40001
1.40001
1.40001
1.40001
1.40001
1.40001
1.40001
1.40001
1.40001
1.40001
1.40001
1.40001
1.40001
1.40001
1.40001
1.40001
7.98803
1.40773
1.40001
1.40001
1.40001
1.40001
1.40001
1.40001
1.40001
1.40001
1.40001
1.40001
1.40001
1.40001
1.40001
1.40001
1.40001
1.40001
1.40001
1.40001
6.44487
1.40015
1.40001
1.40001
1.40001
1.40001
1.40001
1.40001
1.40001
1.40001
1.40001
1.40001
1.40001
1.40001
1.40001
1.40001
1.40001
1.40001
1.40001
1.40001
6.43627
1.40014
1.40001
1.40001
1.40001
1.40001
1.40001
1.40001
1.40001
1.40001
1.40001
1.40001
1.40001
1.40001
1.40001
1.40001
1.40001
1.40001
1.40001
1.40001
7.98887
1.40822
1.40001
1.40001
1.40001
1.40001
1.40001
1.40001
1.40001
1.40001
1.40001
1.40001
1.40001
1.40001
1.40001
1.40001
1.40001
1.40001
1.40001
1.40001
8.76263
1.90699
1.40001
1.40001
1.40001
1.40001
1.40001
1.40001
1.40001
1.40001
1.40001
1.40001
1.40001
1.40001
1.40001
1.40001
1.40001
1.40001
1.40001
1.40001
9.17139
2.57733
1.40001
1.40001
1.40001
1.40001
1.40001
1.40001
1.40001
1.40001
1.40001
1.40001
1.40001
1.40001
1.40001
1.40001
1.40001
1.40001
1.40001
1.40001
9.76857
3.45016
1.40001
1.40001
1.40001
1.40001
1.40001
1.40001
1.40001
1.40001
1.40001
1.40001
1.40001
1.40001
1.40001
1.40001
1.40001
1.40001
1.40001
1.40001
9.93627
4.5451
1.40001
1.40001
1.40001
1.40001
1.40001
1.40001
1.40001
1.40001
1.40001
1.40001
1.40001
1.40001
1.40001
1.40001
1.40001
1.40001
1.40001
1.40001
10.1721
5.6
1.41969
1.40001
1.40001
1.40001
1.40001
1.40001
1.40001
1.40001
1.40001
1.40001
1.40001
1.40001
1.40001
1.40001
1.40001
1.40001
1.40001
1.40001
10.4549
6.59774
1.62728
1.40001
1.40001
1.40001
1.40001
1.40001
1.40001
1.40001
1.40001
1.40001
1.40001
1.40001
1.40001
1.40001
1.40001
1.40001
1.40001
1.40001
10.4135
7.44346
2.23245
1.40001
1.40001
1.40001
1.40001
1.40001
1.40001
1.40001
1.40001
1.40001
1.40001
1.40001
1.40001
1.40001
1.40001
1.40001
1.40001
1.40001
10.3324
8.30227
3.1841
1.40001
1.40001
1.40001
1.40001
1.40001
1.40001
1.40001
1.40001
1.40001
1.40001
1.40001
1.40001
1.40001
1.40001
1.40001
1.40001
1.40001
10.0981
8.89942
4.77489
1.38277
1.40001
1.40001
1.40001
1.40001
1.40001
1.40001
1.40001
1.40001
1.40001
1.40001
1.40001
1.40001
1.40001
1.40001
1.40001
1.40001
9.64344
9.14728
6.74138
1.71537
1.4
1.40001
1.40001
1.40001
1.40001
1.40001
1.40001
1.40001
1.40001
1.40001
1.40001
1.40001
1.40001
1.40001
1.40001
1.40001
9.04585
9.27422
8.40796
2.7994
1.39999
1.40001
1.40001
1.40001
1.40001
1.40001
1.40001
1.40001
1.40001
1.40001
1.40001
1.40001
1.40001
1.40001
1.40001
1.40001
8.90686
9.42368
9.33347
4.97929
1.36927
1.40001
1.40001
1.40001
1.40001
1.40001
1.40001
1.40001
1.40001
1.40001
1.40001
1.40001
1.40001
1.40001
1.40001
1.40001
8.95083
9.34365
9.31247
6.83272
2.07993
1.40001
1.40001
1.40001
1.40001
1.40001
1.40001
1.40001
1.40001
1.40001
1.40001
1.40001
1.40001
1.40001
1.40001
1.40001
9.04121
9.35589
9.39915
8.49575
3.66784
1.36724
1.4005
1.4
1.40001
1.40001
1.40001
1.40001
1.40001
1.40001
1.40001
1.40001
1.40001
1.40001
1.40001
1.40001
9.22678
9.43415
9.46253
9.25649
6.54459
1.97577
1.39054
1.40019
1.4
1.40001
1.40001
1.40001
1.40001
1.40001
1.40001
1.40001
1.40001
1.40001
1.40001
1.40001
9.44558
9.50054
9.46024
9.24464
8.65693
4.80672
1.48077
1.39822
1.40001
1.40001
1.40001
1.40001
1.40001
1.40001
1.40001
1.40001
1.40001
1.40001
1.40001
1.40001
9.60104
9.52105
9.37032
9.31456
9.44944
8.00617
3.73584
1.43557
1.40001
1.40001
1.40001
1.40001
1.40001
1.40001
1.40001
1.40001
1.40001
1.40001
1.40001
1.40001
9.61725
9.55433
9.47816
9.60764
9.79731
9.4085
8.30186
3.12377
0.934854
1.40001
1.40001
1.40001
1.40001
1.40001
1.40001
1.40001
1.40001
1.40001
1.40001
1.40001
3.20938
5.03082
6.72364
7.90272
8.70168
8.94047
9.12412
8.64295
6.29486
4.45598
3.30251
2.1909
1.51753
1.38258
1.39041
1.395
1.39887
1.39997
1.40003
1.40002
0.440425
1.27001
2.8131
4.4391
5.82531
6.70702
7.51312
8.167
7.97494
7.35527
6.75589
6.00225
4.72789
3.24727
1.99583
1.44126
1.38517
1.39291
1.39626
1.39922
0.0236317
0.149105
0.719365
1.73972
3.001
4.01818
4.88417
5.81311
6.6221
6.71577
6.57834
6.56238
6.50333
6.27755
5.58463
4.26961
2.92485
1.86782
1.42649
1.39016
0.0220893
0.0368047
0.139814
0.536538
1.31043
2.1138
2.85002
3.6376
4.44672
4.95717
5.23862
5.54347
5.82828
6.06916
6.22148
6.12057
5.82265
5.08457
3.89134
2.63408
0.0437179
0.044548
0.0411536
0.102969
0.399169
0.999163
1.57243
2.15145
2.7846
3.29762
3.66445
4.01249
4.37675
4.78602
5.241
5.52136
5.67999
5.73306
5.60501
5.43101
0.0576289
0.0445226
0.0451851
0.0849675
0.149972
0.355343
0.704903
1.08432
1.55339
1.98254
2.33706
2.65416
2.97271
3.30875
3.73969
4.13714
4.51787
4.86793
5.09053
5.26373
0.0560219
0.0454075
0.0654437
0.119026
0.162632
0.251573
0.432745
0.663539
0.951637
1.29033
1.56538
1.82804
2.07798
2.32154
2.61626
2.93565
3.24843
3.59027
3.90404
4.16954
0.0507689
0.0456455
0.072792
0.133945
0.182144
0.250002
0.364585
0.532556
0.729392
0.955575
1.13737
1.31611
1.48501
1.64482
1.81629
2.03646
2.29586
2.55048
2.92942
2.91679
0.0416944
0.046455
0.0680978
0.114678
0.161938
0.216834
0.278979
0.383612
0.509767
0.64245
0.76713
0.888196
1.01338
1.13272
1.2673
1.46023
1.68747
1.88643
2.17473
2.10081
0.0343615
0.0458416
0.068901
0.0891959
0.118746
0.158119
0.183028
0.228036
0.294109
0.365507
0.471857
0.587013
0.724144
0.840081
0.972747
1.11839
1.26271
1.38407
1.60324
1.55956
0.0350702
0.047926
0.0699317
0.0799314
0.0911666
0.118805
0.135995
0.163274
0.22496
0.313568
0.40753
0.487492
0.592637
0.674642
0.760493
0.844029
0.922536
0.998646
1.11979
1.32445
0.0402425
0.0529363
0.0701294
0.0756145
0.0851234
0.108841
0.129237
0.165489
0.232145
0.300158
0.362077
0.409265
0.465485
0.518849
0.557982
0.600726
0.641502
0.717896
0.814716
1.02657
0.0513332
0.0577901
0.0693758
0.0720396
0.0841723
0.108134
0.13124
0.166439
0.217895
0.261281
0.285602
0.309216
0.320915
0.346239
0.370687
0.412142
0.472402
0.562621
0.641041
0.784137
0.0680865
0.0639397
0.0671244
0.0682145
0.0797461
0.101863
0.122434
0.148404
0.172311
0.201235
0.19351
0.201104
0.213894
0.250011
0.295253
0.34794
0.405053
0.46231
0.508777
0.580633
0.0871469
0.0794824
0.0689903
0.0595297
0.0681444
0.0838608
0.0956532
0.109805
0.12029
0.135068
0.143531
0.161374
0.197986
0.24061
0.27677
0.311895
0.341344
0.36932
0.377492
0.402
0.0966669
0.0947545
0.0871411
0.0624253
0.0598946
0.0635551
0.0716554
0.084458
0.0961668
0.112862
0.139316
0.164284
0.195162
0.22258
0.24149
0.260451
0.255391
0.255618
0.255203
0.283202
0.110656
0.109837
0.105966
0.0820137
0.0616415
0.0624086
0.0673901
0.0837876
0.0973477
0.114957
0.140382
0.159064
0.176585
0.186561
0.190076
0.19271
0.189495
0.191466
0.206209
0.24585
0.14038
0.125894
0.120285
0.0997921
0.0697789
0.0646107
0.0688129
0.0850216
0.096529
0.108833
0.123682
0.125795
0.127105
0.127355
0.128189
0.131326
0.140556
0.155387
0.171981
0.191157
0.181266
0.169003
0.181597
0.183409
0.165389
0.134928
0.125088
0.144313
0.175052
0.198904
0.214415
0.210529
0.205556
0.204667
0.211196
0.22833
0.260244
0.299098
0.340308
0.33894
0.28198
0.390793
0.467693
0.527391
0.526646
0.509269
0.490445
0.510086
0.538702
0.561535
0.568052
0.601739
0.637351
0.650831
0.672633
0.706422
0.726464
0.727816
0.741525
0.73641
0.779882
0.884488
0.968643
1.10152
1.16057
1.22943
1.23097
1.21965
1.19794
1.20808
1.25193
1.32659
1.35151
1.33373
1.29602
1.28981
1.31047
1.34982
1.35345
1.33515
0.403652
0.578993
0.75774
0.924941
1.06559
1.18182
1.20564
1.22923
1.22264
1.2343
1.26746
1.32186
1.3412
1.33303
1.31447
1.31063
1.32199
1.34469
1.3448
1.33318
0.193773
0.221327
0.330158
0.469027
0.711814
0.965413
1.09377
1.19884
1.24485
1.265
1.2826
1.30519
1.31061
1.31597
1.32712
1.33479
1.33952
1.33676
1.32713
1.32672
0.270949
0.30337
0.319024
0.325777
0.348094
0.455901
0.7329
1.02793
1.16176
1.27274
1.29896
1.29073
1.2787
1.29317
1.3281
1.34467
1.34559
1.33556
1.31972
1.32572
0.334384
0.367076
0.399544
0.408981
0.39512
0.390178
0.41584
0.546657
0.867294
1.17101
1.24085
1.24841
1.24524
1.27235
1.32413
1.35199
1.3507
1.33094
1.31662
1.32909
0.419527
0.46115
0.482829
0.468172
0.43773
0.426594
0.432463
0.449688
0.518653
0.738278
1.02275
1.19884
1.20059
1.25324
1.30503
1.34289
1.34332
1.3272
1.32084
1.33843
0.542789
0.572999
0.570146
0.54866
0.508716
0.496543
0.504991
0.508312
0.518033
0.5368
0.652657
0.929697
1.16164
1.26004
1.27473
1.32104
1.32405
1.31257
1.32261
1.34783
0.719382
0.699921
0.677094
0.649147
0.59733
0.551668
0.556616
0.556081
0.552343
0.548091
0.558109
0.620253
0.916658
1.17565
1.25183
1.31174
1.29853
1.29977
1.3345
1.35042
0.943615
0.856796
0.784599
0.744309
0.689282
0.619187
0.609234
0.604579
0.597015
0.586293
0.585855
0.586633
0.642588
0.889089
1.18366
1.29654
1.25996
1.28591
1.3497
1.3485
1.21444
1.04708
0.916824
0.867624
0.810543
0.726368
0.674052
0.656206
0.620778
0.617127
0.618123
0.610014
0.616489
0.653085
0.863516
1.15222
1.20954
1.29728
1.36055
1.34382
1.77953
1.361
1.02558
0.922263
0.951595
0.932768
0.858403
0.78446
0.717729
0.684073
0.68247
0.678181
0.670151
0.664829
0.676464
0.790668
1.04714
1.24359
1.31266
1.32878
2.8201
2.13441
1.60543
1.20787
1.1691
1.13844
1.06469
0.954422
0.843436
0.764144
0.754056
0.751774
0.736539
0.716102
0.68919
0.688761
0.743519
0.901442
1.09717
1.26607
3.48244
3.00399
2.43244
1.86342
1.48469
1.28974
1.1522
1.08748
1.01922
0.936282
0.909899
0.878626
0.842097
0.797771
0.756414
0.727858
0.739166
0.752449
0.805952
1.03949
3.2994
3.26928
3.10866
2.70701
2.1837
1.77367
1.44649
1.32905
1.2536
1.16488
1.07964
1.0025
0.917308
0.859089
0.83383
0.814339
0.798719
0.784466
0.766826
0.813024
2.3504
2.99958
3.09731
3.05663
2.85388
2.4889
2.08249
1.71838
1.50114
1.32524
1.20119
1.12137
1.03926
0.988608
0.973903
0.94335
0.905667
0.869085
0.808054
0.805087
1.55086
2.01323
2.58555
2.94714
2.94181
2.887
2.70321
2.35538
2.01372
1.7044
1.47688
1.36785
1.28822
1.20095
1.11677
1.0253
0.958867
0.920469
0.891153
0.853879
1.40633
1.46182
1.68909
2.16046
2.59946
2.8205
2.81465
2.75066
2.55996
2.27188
1.94007
1.69616
1.51063
1.36283
1.25633
1.15313
1.05267
1.01764
1.01888
0.980231
1.40014
1.40155
1.41466
1.51034
1.77052
2.19358
2.54725
2.70498
2.69385
2.63584
2.47128
2.20715
1.93141
1.69352
1.53016
1.42656
1.3064
1.21876
1.15991
1.06919
1.40001
1.40002
1.40021
1.40358
1.42544
1.53929
1.80699
2.18113
2.46401
2.59527
2.58778
2.53704
2.40339
2.17679
1.92085
1.71479
1.5493
1.39542
1.28578
1.16579
1.40001
1.40001
1.40001
1.40004
1.40043
1.40554
1.43437
1.55262
1.79744
2.13279
2.37791
2.49621
2.49153
2.45473
2.34365
2.14714
1.93301
1.72264
1.57062
1.39745
1.40001
1.40001
1.40001
1.40001
1.40001
1.40007
1.40069
1.40663
1.43767
1.54494
1.76924
2.06373
2.29834
2.40789
2.4044
2.37758
2.29533
2.13481
1.95078
1.67231
1.40001
1.40001
1.40001
1.40001
1.40001
1.40001
1.40001
1.40009
1.40085
1.40633
1.43647
1.53167
1.72781
1.98366
2.207
2.33233
2.32851
2.3087
2.25956
2.0471
1.40001
1.40001
1.40001
1.40001
1.40001
1.40001
1.40001
1.40001
1.40001
1.40009
1.40086
1.40595
1.4297
1.51548
1.67516
1.91363
2.10435
2.25469
2.25795
2.22466
1.40001
1.40001
1.40001
1.40001
1.40001
1.40001
1.40001
1.40001
1.40001
1.40001
1.40001
1.40008
1.40068
1.40524
1.42333
1.49065
1.62942
1.8397
2.01796
2.16723
1.40001
1.40001
1.40001
1.40001
1.40001
1.40001
1.40001
1.40001
1.40001
1.40001
1.40001
1.40001
1.40001
1.40007
1.40054
1.40366
1.41969
1.47177
1.58984
1.94224
2.24822
3.42852
3.5964
2.90713
1.83078
1.45144
1.40262
1.40007
1.40001
1.40001
1.40001
1.40001
1.40001
1.40001
1.40001
3.26
3.91503
3.51849
2.15138
1.46702
1.40112
1.40001
1.4
1.40001
1.40001
1.40001
1.40001
1.40001
1.40001
1.40001
4.07201
3.98941
2.76228
1.61296
1.40733
1.40008
1.40001
1.40001
1.40001
1.40001
1.40001
1.40001
1.40001
1.40001
1.40001
4.51901
3.56345
1.90896
1.42696
1.40027
1.40001
1.40001
1.40001
1.40001
1.40001
1.40001
1.40001
1.40001
1.40001
1.40001
4.6227
2.35123
1.46559
1.4007
1.40001
1.40001
1.40001
1.40001
1.40001
1.40001
1.40001
1.40001
1.40001
1.40001
1.40001
2.88142
1.50231
1.40071
1.4
1.4
1.40001
1.40001
1.40001
1.40001
1.40001
1.40001
1.40001
1.40001
1.40001
1.40001
1.54064
1.40076
1.4
1.4
1.40001
1.40001
1.40001
1.40001
1.40001
1.40001
1.40001
1.40001
1.40001
1.40001
1.40001
1.39742
1.39982
1.4
1.40001
1.40001
1.40001
1.40001
1.40001
1.40001
1.40001
1.40001
1.40001
1.40001
1.40001
1.40001
1.39996
1.40001
1.40001
1.40001
1.40001
1.40001
1.40001
1.40001
1.40001
1.40001
1.40001
1.40001
1.40001
1.40001
1.40001
1.40001
1.40001
1.40001
1.40001
1.40001
1.40001
1.40001
1.40001
1.40001
1.40001
1.40001
1.40001
1.40001
1.40001
1.40001
1.40001
1.40001
1.40001
1.40001
1.40001
1.40001
1.40001
1.40001
1.40001
1.40001
1.40001
1.40001
1.40001
1.40001
1.40001
1.40001
1.40001
1.40001
1.40001
1.40001
1.40001
1.40001
1.40001
1.40001
1.40001
1.40001
1.40001
1.40001
1.40001
1.40001
1.40001
1.40001
1.40001
1.40001
1.40001
1.40001
1.40001
1.40001
1.40001
1.40001
1.40001
1.40001
1.40001
1.40001
1.40001
1.40001
1.40001
1.40001
1.40001
1.40001
1.40001
1.40001
1.40001
1.40001
1.40001
1.40001
1.40001
1.40001
1.40001
1.40001
1.40001
1.40001
1.40001
1.40001
1.40001
1.40001
1.40001
1.40001
1.40001
1.40001
1.40001
1.40001
1.40001
1.40001
1.40001
1.40001
1.40001
1.40001
1.40001
1.40001
1.40001
1.40001
1.40001
1.40001
1.40001
1.40001
1.40001
1.40001
1.40001
1.40001
1.40001
1.40001
1.40001
1.40001
1.40001
1.40001
1.40001
1.40001
1.40001
1.40001
1.40001
1.40001
1.40001
1.40001
1.40001
1.40001
1.40001
1.40001
1.40001
1.40001
1.40001
1.40001
1.40001
1.40001
1.40001
1.40001
1.40001
1.40001
1.40001
1.40001
1.40001
1.40001
1.40001
1.40001
1.40001
1.40001
1.40001
1.40001
1.40001
1.40001
1.40001
1.40001
1.40001
1.40001
1.40001
1.40001
1.40001
1.40001
1.40001
1.40001
1.40001
1.40001
1.40001
1.40001
1.40001
1.40001
1.40001
1.40001
1.40001
1.40001
1.40001
1.40001
1.40001
1.40001
1.40001
1.40001
1.40001
1.40001
1.40001
1.40001
1.40001
1.40001
1.40001
1.40001
1.40001
1.40001
1.40001
1.40001
1.40001
1.40001
1.40001
1.40001
1.40001
1.40001
1.40001
1.40001
1.40001
1.40001
1.40001
1.40001
1.40001
1.40001
1.40001
1.40001
1.40001
1.40001
1.40001
1.40001
1.40001
1.40001
1.40001
1.40001
1.40001
1.40001
1.40001
1.40001
1.40001
1.40001
1.40001
1.40001
1.40001
1.40001
1.40001
1.40001
1.40001
1.40001
1.40001
1.40001
1.40001
1.40001
1.40001
1.40001
1.40001
1.40001
1.40001
1.40001
1.40001
1.40001
1.40001
1.40001
1.40001
1.40001
1.40001
1.40001
1.40001
1.40001
1.40001
1.40001
1.40001
1.40001
1.40001
1.40001
1.40001
1.40001
1.40001
1.40001
1.40001
1.40001
1.40001
1.40001
1.40001
1.40001
1.40001
1.40001
1.40001
1.40001
1.40001
1.40001
1.40001
1.40001
1.40001
1.40001
1.40001
1.40001
1.40001
1.40001
1.40001
1.40001
1.40001
1.40001
1.40001
1.40001
1.40001
1.40001
1.40001
1.40001
1.40001
1.40001
1.40001
1.40001
1.40001
1.40001
1.40001
1.40001
1.40001
1.40001
1.40001
1.40001
1.40001
1.40001
1.40001
1.40001
1.40001
1.40001
1.40001
1.40001
1.40001
1.40001
1.40001
1.40001
1.40001
1.40001
1.40001
1.40001
1.40001
1.40001
1.40001
1.40001
1.40001
1.40001
1.40001
1.40001
1.40001
1.40001
1.40001
1.40001
1.40001
1.40001
1.40001
1.40001
1.40001
1.40001
1.40001
1.40001
1.40001
1.40001
1.40001
1.40001
1.40001
1.40001
1.40001
1.40001
1.40001
1.40001
1.40001
1.40001
1.40001
1.40001
1.40001
1.40001
1.40001
1.40001
1.40001
1.40001
1.40001
1.40001
1.40001
1.40001
1.40001
1.40001
1.40001
1.40001
1.40001
1.40001
1.40001
1.40001
1.40001
1.40001
1.40001
1.40001
1.40001
1.40001
1.40001
1.40001
1.40001
1.40001
1.40001
1.40001
1.40001
1.40001
1.40001
1.40001
1.40001
1.40001
1.40001
1.40001
1.40001
1.40001
1.40001
1.40001
1.40001
1.40001
1.40001
1.40001
1.40001
1.40001
1.40001
1.40001
1.40001
1.40001
1.40001
1.40001
1.40001
1.40001
1.40001
1.40001
1.40001
1.40001
1.40001
1.40001
1.40001
1.40001
1.40001
1.40001
1.40001
1.40001
1.40001
1.40001
1.40001
1.40001
1.40001
1.40001
1.40001
1.40001
1.40001
1.40001
1.40001
1.40001
1.40001
1.40001
1.40001
1.40001
1.40001
1.40001
1.40001
1.40001
1.40001
1.40001
1.40001
1.40001
1.40001
1.40001
1.40001
1.40001
1.40001
1.40001
1.40001
1.40001
1.40001
1.40001
1.40001
1.40001
1.40001
1.40001
1.40001
1.40001
1.40001
1.40001
1.40001
1.40001
1.40001
1.40001
1.40001
1.40001
1.40001
1.40001
1.40001
1.40001
1.40001
1.40001
1.40001
1.40001
1.40001
1.40001
1.40001
1.40001
1.40001
1.40001
1.40001
1.40001
1.40001
1.40001
1.40001
1.40001
1.40001
1.40001
1.40001
1.40001
1.40001
1.40001
1.40001
1.40001
1.40001
1.40001
1.40001
1.40001
1.40001
1.40001
1.40001
1.40001
1.40001
1.40001
1.40001
1.40001
1.40001
1.40001
1.40001
1.40001
1.40001
1.40001
1.40001
1.40001
1.40001
1.40001
1.40001
1.40001
1.40001
1.40001
1.40001
1.40001
1.40001
1.40001
1.40001
1.40001
1.40001
1.40001
1.40001
1.40001
1.40001
1.40001
1.40001
1.40001
1.40001
1.40001
1.40001
1.40001
1.40001
1.40001
1.40001
1.40001
1.40001
1.40001
1.40001
1.40001
1.40001
1.40001
1.40001
1.40001
1.40001
1.40001
1.40001
1.40001
1.40001
1.40001
1.40001
1.40001
1.40001
1.40001
1.40001
1.40001
1.40001
1.40001
1.40001
1.40001
1.40001
1.40001
1.40001
1.40001
1.40001
1.40001
1.40001
1.40001
1.40001
1.40001
1.40001
1.40001
1.40001
1.40001
1.40001
1.40001
1.40001
1.40001
1.40001
1.40001
1.40001
1.40001
1.40001
1.40001
1.40001
1.40001
1.40001
1.40001
1.40001
1.40001
1.40001
1.40001
1.40001
1.40001
1.40001
1.40001
1.40001
1.40001
1.40001
1.40001
1.40001
1.40001
1.40001
1.40001
1.40001
1.40001
1.40001
1.40001
1.40001
1.40001
1.40001
1.40001
1.40001
1.40001
1.40001
1.40001
1.40001
1.40001
1.40001
1.40001
1.40001
1.40001
1.40001
1.40001
1.40001
1.40001
1.40001
1.40001
1.40001
1.40001
1.40001
1.40001
1.40001
1.40001
1.40001
1.40001
1.40001
1.40001
1.40001
1.40001
1.40001
1.40001
1.40001
1.40001
1.40001
1.40001
1.40001
1.40001
1.40001
1.40001
1.40001
1.40001
1.40001
1.40001
1.40001
1.40001
1.40001
1.40001
1.40001
1.40001
1.40001
1.40001
1.40001
1.40001
1.40001
1.40001
1.40001
1.40001
1.40001
1.40001
1.40001
1.40001
1.40001
1.40001
1.40001
1.40001
1.40001
1.40001
1.40001
1.40001
1.40001
1.40001
1.40001
1.40001
1.40001
1.40001
1.40001
1.40001
1.40001
1.40001
1.40001
1.40001
1.40001
1.40001
1.40001
1.40001
1.40001
1.40001
1.40001
1.40001
1.40001
1.40001
1.40001
1.40001
1.40001
1.40001
1.40001
1.40001
1.40001
1.40001
1.40001
1.40001
1.40001
1.40001
1.40001
1.40001
1.40001
1.40001
1.40001
1.40001
1.40001
1.40001
1.40001
1.40001
1.40001
1.40001
1.40001
1.40001
1.40001
1.40001
1.40001
1.40001
1.40001
1.40001
1.40001
1.40001
1.40001
1.40001
1.40001
1.40001
1.40001
1.40001
1.40001
1.40001
1.40001
1.40001
1.40001
1.40001
1.40001
1.40001
1.40001
1.40001
1.40001
1.40001
1.40001
1.40001
1.40001
1.40001
1.40001
1.40001
1.40001
1.40001
1.40001
1.40001
1.40001
1.40001
1.40001
1.40001
1.40001
1.40001
1.40001
1.40001
1.40001
1.40001
1.40001
1.40001
1.40001
1.40001
1.40001
1.40001
1.40001
1.40001
1.40001
1.40001
1.40001
1.40001
1.40001
1.40001
1.40001
1.40001
1.40001
1.40001
1.40001
1.40001
1.40001
1.40001
1.40001
1.40001
1.40001
1.40001
1.40001
1.40001
1.40001
1.40001
1.40001
1.40001
1.40001
1.40001
1.40001
1.40001
1.40001
1.40001
1.40001
1.40001
1.40001
1.40001
1.40001
1.40001
1.40001
1.40001
1.40001
1.40001
1.40001
1.40001
1.40001
1.40001
1.40001
1.40001
1.40001
1.40001
1.40001
1.39996
1.40001
1.40001
1.40001
1.40001
1.40001
1.40001
1.40001
1.40001
1.40001
1.40001
1.40001
1.40001
1.40001
1.40001
1.39742
1.39982
1.4
1.40001
1.40001
1.40001
1.40001
1.40001
1.40001
1.40001
1.40001
1.40001
1.40001
1.40001
1.40001
1.54075
1.40076
1.4
1.4
1.40001
1.40001
1.40001
1.40001
1.40001
1.40001
1.40001
1.40001
1.40001
1.40001
1.40001
2.88134
1.50215
1.4007
1.4
1.4
1.40001
1.40001
1.40001
1.40001
1.40001
1.40001
1.40001
1.40001
1.40001
1.40001
4.6225
2.35051
1.46561
1.40071
1.40001
1.40001
1.40001
1.40001
1.40001
1.40001
1.40001
1.40001
1.40001
1.40001
1.40001
4.51871
3.56206
1.90832
1.42692
1.40027
1.40001
1.40001
1.40001
1.40001
1.40001
1.40001
1.40001
1.40001
1.40001
1.40001
4.07317
3.98943
2.76206
1.61283
1.40732
1.40008
1.40001
1.40001
1.40001
1.40001
1.40001
1.40001
1.40001
1.40001
1.40001
3.25867
3.91512
3.51856
2.15169
1.46711
1.40113
1.40001
1.4
1.40001
1.40001
1.40001
1.40001
1.40001
1.40001
1.40001
2.25135
3.42731
3.59596
2.90739
1.83102
1.45138
1.40262
1.40007
1.40001
1.40001
1.40001
1.40001
1.40001
1.40001
1.40001
1.76872
2.82826
3.48207
3.29863
2.35004
1.55174
1.40635
1.40014
1.40001
1.40001
1.40001
1.40001
1.40001
1.40001
1.40001
1.35999
2.11406
3.00682
3.27003
2.99748
2.01303
1.4619
1.40155
1.40002
1.40001
1.40001
1.40001
1.40001
1.40001
1.40001
1.03914
1.5978
2.43143
3.10888
3.09962
2.58559
1.68916
1.4147
1.40021
1.40001
1.40001
1.40001
1.40001
1.40001
1.40001
0.935122
1.23671
1.87646
2.70336
3.05937
2.94825
2.1608
1.51032
1.40357
1.40004
1.40001
1.40001
1.40001
1.40001
1.40001
0.948003
1.17393
1.47856
2.20314
2.85798
2.94287
2.60038
1.77096
1.42549
1.40043
1.40001
1.40001
1.40001
1.40001
1.40001
0.925877
1.14467
1.26559
1.75572
2.49496
2.88894
2.82089
2.19384
1.53947
1.40554
1.40007
1.40001
1.40001
1.40001
1.40001
0.856625
1.07714
1.16149
1.43055
2.06523
2.69874
2.81389
2.54703
1.80674
1.43442
1.40069
1.40001
1.40001
1.40001
1.40001
0.755846
0.954796
1.09838
1.33878
1.72143
2.34776
2.74912
2.70398
2.18107
1.5524
1.40661
1.40009
1.40001
1.40001
1.40001
0.693264
0.833596
1.00987
1.25364
1.51766
2.01251
2.55866
2.69347
2.46441
1.79799
1.43768
1.40084
1.40001
1.40001
1.40001
0.686278
0.76849
0.933517
1.14654
1.3218
1.71847
2.27188
2.63625
2.59568
2.1326
1.54522
1.40637
1.40009
1.40001
1.40001
0.687986
0.758659
0.924512
1.07655
1.18737
1.47446
1.94748
2.47245
2.58822
2.37893
1.76896
1.43625
1.40085
1.40001
1.40001
0.675157
0.751084
0.895463
1.00018
1.10793
1.36856
1.69639
2.20947
2.53886
2.4974
2.06406
1.53154
1.40592
1.40008
1.40001
0.66525
0.730047
0.842623
0.915881
1.03861
1.2868
1.5105
1.93355
2.40417
2.49222
2.2968
1.72771
1.42992
1.40068
1.40001
0.658834
0.712542
0.798108
0.861986
0.990224
1.20029
1.36619
1.69837
2.17512
2.4547
2.40839
1.9835
1.51498
1.40519
1.40007
0.671592
0.686088
0.764593
0.831194
0.972821
1.11384
1.25181
1.53562
1.92579
2.3435
2.40516
2.20836
1.67462
1.42327
1.40054
0.781785
0.68538
0.729115
0.817541
0.9461
1.02665
1.14182
1.42084
1.71702
2.1489
2.37827
2.33172
1.91438
1.49082
1.40368
1.03715
0.735167
0.735192
0.805246
0.913699
0.966733
1.05536
1.30081
1.5432
1.9332
2.29572
2.32733
2.10484
1.63012
1.41976
1.23797
0.892342
0.747823
0.78904
0.871087
0.921778
1.02539
1.22024
1.39377
1.72186
2.13411
2.3077
2.25441
1.8391
1.47155
1.30992
1.09483
0.802162
0.76471
0.801017
0.885582
1.02169
1.16129
1.28759
1.57113
1.95053
2.25903
2.25739
2.01722
1.58943
1.3294
1.26889
1.03712
0.809046
0.798678
0.853723
0.979055
1.06835
1.16571
1.39708
1.67278
2.04663
2.22407
2.16705
1.94206
1.2124
1.05769
0.930083
0.863314
0.802328
0.730015
0.687448
0.664804
0.634314
0.628755
0.622064
0.606912
0.614602
0.649568
0.859086
1.14998
1.21632
1.29782
1.35845
1.34335
0.947049
0.860588
0.786747
0.734315
0.686988
0.634586
0.619072
0.613766
0.601831
0.593541
0.585336
0.58521
0.637114
0.88624
1.1694
1.31375
1.27206
1.29248
1.34857
1.34753
0.724536
0.703018
0.674925
0.639376
0.585138
0.548187
0.550946
0.555957
0.549302
0.558495
0.564053
0.625281
0.912173
1.16557
1.25203
1.32384
1.31348
1.3053
1.33508
1.34792
0.545573
0.574927
0.566625
0.53908
0.501299
0.495489
0.50417
0.511719
0.522965
0.540758
0.650999
0.949324
1.17519
1.25474
1.30208
1.3421
1.34152
1.31931
1.32322
1.34294
0.420295
0.463274
0.477916