/*--------------------------------*- C++ -*----------------------------------*\
  =========                 |
  \\      /  F ield         | OpenFOAM: The Open Source CFD Toolbox
   \\    /   O peration     | Website:  https://openfoam.org
    \\  /    A nd           | Version:  7
     \\/     M anipulation  |
\*---------------------------------------------------------------------------*/
FoamFile
{
    version     2.0;
    format      ascii;
    class       volScalarField;
    location    "8";
    object      T;
}
// * * * * * * * * * * * * * * * * * * * * * * * * * * * * * * * * * * * * * //

dimensions      [0 0 0 1 0 0 0];

internalField   nonuniform List<scalar> 
3700
(
100.655
100.779
100.919
100.939
100.933
100.944
100.971
100.985
100.989
101.038
101.122
101.166
101.167
101.159
101.144
101.124
101.085
101.019
101.012
101.035
100.27
100.267
100.369
100.366
100.36
100.424
100.54
100.52
100.46
100.496
100.634
100.732
100.736
100.717
100.675
100.6
100.471
100.333
100.335
100.353
100.203
100.168
100.124
100.045
99.9182
99.8871
99.9101
99.9667
100.004
100.027
100.049
100.033
100.015
99.9965
99.9816
99.9806
99.9923
100.014
100.036
100.048
100.132
100.126
100.089
99.9916
99.8632
99.8577
99.8827
99.9353
99.9803
100.029
100.068
100.078
100.089
100.087
100.072
100.051
100.02
100.014
100.034
100.083
100.081
100.053
100.01
99.8937
99.8421
99.8463
99.8768
99.9187
99.9549
100.002
100.049
100.08
100.108
100.128
100.129
100.129
100.112
100.09
100.07
100.089
100.049
99.9907
99.9336
99.8723
99.8601
99.8989
99.9287
99.9339
99.9559
100.001
100.034
100.061
100.097
100.132
100.151
100.164
100.174
100.178
100.173
100.181
99.9877
99.944
99.9333
99.9283
99.9636
100.021
100.055
100.061
100.063
100.079
100.063
100.075
100.094
100.12
100.147
100.176
100.205
100.227
100.238
100.266
99.929
99.9493
99.9727
99.9947
100.041
100.096
100.12
100.14
100.168
100.176
100.177
100.177
100.176
100.181
100.183
100.196
100.224
100.262
100.285
100.327
99.8892
99.9886
100.034
100.039
100.072
100.131
100.131
100.158
100.207
100.232
100.251
100.255
100.273
100.283
100.289
100.293
100.296
100.31
100.334
100.386
99.8787
100.029
100.069
100.047
100.08
100.139
100.134
100.152
100.204
100.251
100.281
100.298
100.329
100.342
100.358
100.371
100.381
100.392
100.412
100.448
99.9048
100.05
100.039
100.03
100.097
100.151
100.147
100.194
100.239
100.275
100.303
100.329
100.361
100.381
100.406
100.431
100.452
100.468
100.503
100.492
99.9602
99.9387
99.9747
100.052
100.14
100.201
100.236
100.297
100.342
100.389
100.408
100.423
100.432
100.441
100.455
100.483
100.517
100.542
100.58
100.57
99.9409
99.7948
99.9537
100.089
100.161
100.223
100.3
100.37
100.426
100.472
100.49
100.507
100.518
100.529
100.544
100.566
100.593
100.618
100.655
100.654
99.9034
99.7488
99.9158
100.073
100.143
100.209
100.333
100.414
100.48
100.532
100.554
100.574
100.589
100.607
100.633
100.662
100.689
100.711
100.726
100.734
99.8495
99.719
99.8251
99.9797
100.118
100.318
100.453
100.522
100.585
100.616
100.634
100.65
100.668
100.691
100.723
100.751
100.773
100.784
100.78
100.775
99.6812
99.6873
99.8155
100.106
100.396
100.571
100.631
100.675
100.708
100.725
100.737
100.752
100.771
100.793
100.812
100.823
100.821
100.815
100.789
100.744
99.4368
99.6948
100.086
100.443
100.631
100.701
100.738
100.772
100.795
100.809
100.82
100.836
100.852
100.855
100.854
100.843
100.793
100.68
100.517
100.276
99.4384
100.066
100.475
100.672
100.774
100.812
100.836
100.858
100.873
100.881
100.882
100.883
100.882
100.858
100.771
100.621
100.36
100.102
100.006
99.9979
100.118
100.529
100.743
100.841
100.887
100.905
100.92
100.921
100.917
100.908
100.895
100.842
100.728
100.471
100.148
100.01
99.9966
99.9985
99.9992
99.9998
100.696
100.837
100.911
100.949
100.964
100.956
100.953
100.927
100.843
100.764
100.579
100.236
100.031
99.9958
99.9978
99.9989
99.9998
100
100
100
100.997
100.995
100.991
100.991
100.985
100.951
100.876
100.435
99.8573
100
100
100
100
100
100
100
100
100
100
100
100.994
100.992
100.985
100.975
100.963
100.871
100.505
100.016
100
100
100
100
100
100
100
100
100
100
100
100
100.989
100.99
100.985
100.965
100.917
100.65
100.049
99.9991
100
100
100
100
100
100
100
100
100
100
100
100
100.984
100.989
100.984
100.954
100.784
100.233
99.9963
100
100
100
100
100
100
100
100
100
100
100
100
100
100.98
100.987
100.982
100.918
100.547
99.9924
100
100
100
100
100
100
100
100
100
100
100
100
100
100
100.978
100.987
100.979
100.834
100.28
100
100
100
100
100
100
100
100
100
100
100
100
100
100
100
100.978
100.989
100.978
100.707
99.9991
100
100
100
100
100
100
100
100
100
100
100
100
100
100
100
100.983
100.981
100.923
100.457
99.9982
100
100
100
100
100
100
100
100
100
100
100
100
100
100
100
101
100.964
100.817
100.161
100
100
100
100
100
100
100
100
100
100
100
100
100
100
100
100
101.014
100.942
100.676
99.9964
100
100
100
100
100
100
100
100
100
100
100
100
100
100
100
100
101.023
100.902
100.5
100
100
100
100
100
100
100
100
100
100
100
100
100
100
100
100
100
101.029
100.848
100.315
100
100
100
100
100
100
100
100
100
100
100
100
100
100
100
100
100
101.034
100.796
100.11
100
100
100
100
100
100
100
100
100
100
100
100
100
100
100
100
100
101.033
100.741
100.008
100
100
100
100
100
100
100
100
100
100
100
100
100
100
100
100
100
101.011
100.683
100
100
100
100
100
100
100
100
100
100
100
100
100
100
100
100
100
100
100.986
100.564
100
100
100
100
100
100
100
100
100
100
100
100
100
100
100
100
100
100
100.944
100.417
100
100
100
100
100
100
100
100
100
100
100
100
100
100
100
100
100
100
100.909
100.231
100
100
100
100
100
100
100
100
100
100
100
100
100
100
100
100
100
100
100.868
100.005
100
100
100
100
100
100
100
100
100
100
100
100
100
100
100
100
100
100
100.81
100
100
100
100
100
100
100
100
100
100
100
100
100
100
100
100
100
100
100
100.809
100
100
100
100
100
100
100
100
100
100
100
100
100
100
100
100
100
100
100
100.868
100.005
100
100
100
100
100
100
100
100
100
100
100
100
100
100
100
100
100
100
100.912
100.237
100
100
100
100
100
100
100
100
100
100
100
100
100
100
100
100
100
100
100.945
100.419
100
100
100
100
100
100
100
100
100
100
100
100
100
100
100
100
100
100
100.985
100.561
100
100
100
100
100
100
100
100
100
100
100
100
100
100
100
100
100
100
101.009
100.679
100
100
100
100
100
100
100
100
100
100
100
100
100
100
100
100
100
100
101.033
100.743
100.011
100
100
100
100
100
100
100
100
100
100
100
100
100
100
100
100
100
101.034
100.798
100.113
100
100
100
100
100
100
100
100
100
100
100
100
100
100
100
100
100
101.03
100.849
100.316
100
100
100
100
100
100
100
100
100
100
100
100
100
100
100
100
100
101.023
100.902
100.5
100
100
100
100
100
100
100
100
100
100
100
100
100
100
100
100
100
101.014
100.942
100.675
99.9964
100
100
100
100
100
100
100
100
100
100
100
100
100
100
100
100
101
100.963
100.817
100.161
100
100
100
100
100
100
100
100
100
100
100
100
100
100
100
100
100.982
100.978
100.92
100.458
99.9992
100
100
100
100
100
100
100
100
100
100
100
100
100
100
100
100.978
100.99
100.979
100.702
99.9943
100
100
100
100
100
100
100
100
100
100
100
100
100
100
100
100.979
100.988
100.981
100.836
100.287
100
100
100
100
100
100
100
100
100
100
100
100
100
100
100
100.981
100.988
100.983
100.92
100.551
99.9924
100
100
100
100
100
100
100
100
100
100
100
100
100
100
100.985
100.989
100.984
100.954
100.782
100.227
99.9964
100
100
100
100
100
100
100
100
100
100
100
100
100
100.989
100.99
100.985
100.965
100.914
100.644
100.046
99.9991
100
100
100
100
100
100
100
100
100
100
100
100
100.994
100.991
100.985
100.974
100.961
100.87
100.511
100.019
100
100
100
100
100
100
100
100
100
100
100
100
100.997
100.994
100.991
100.99
100.985
100.952
100.878
100.437
99.8568
100
100
100
100
100
100
100
100
100
100
100
100.695
100.836
100.91
100.948
100.964
100.957
100.954
100.927
100.843
100.764
100.58
100.237
100.031
99.9958
99.9978
99.9989
99.9998
100
100
100
100.11
100.531
100.74
100.838
100.886
100.905
100.921
100.921
100.916
100.907
100.895
100.842
100.728
100.472
100.148
100.01
99.9967
99.9985
99.9992
99.9998
99.5018
100.079
100.49
100.678
100.774
100.811
100.836
100.857
100.872
100.88
100.881
100.883
100.882
100.858
100.771
100.621
100.359
100.102
100.006
99.9979
99.496
99.6529
100.122
100.453
100.637
100.703
100.738
100.771
100.794
100.808
100.819
100.835
100.852
100.856
100.855
100.843
100.792
100.68
100.518
100.277
99.7714
99.7146
99.7811
100.099
100.415
100.58
100.634
100.676
100.708
100.724
100.736
100.751
100.771
100.793
100.812
100.823
100.821
100.814
100.789
100.744
99.8405
99.7318
99.792
99.965
100.128
100.336
100.466
100.529
100.588
100.616
100.634
100.65
100.668
100.692
100.723
100.75
100.772
100.784
100.78
100.775
99.8381
99.7742
99.92
100.067
100.129
100.212
100.344
100.422
100.485
100.534
100.556
100.575
100.591
100.608
100.634
100.661
100.688
100.711
100.726
100.734
99.8149
99.8213
99.9808
100.088
100.148
100.217
100.3
100.374
100.429
100.475
100.492
100.509
100.52
100.53
100.545
100.566
100.592
100.618
100.655
100.655
99.7558
99.8648
99.9929
100.059
100.129
100.19
100.23
100.297
100.344
100.392
100.411
100.426
100.434
100.442
100.455
100.482
100.516
100.542
100.58
100.571
99.6826
99.8552
100.007
100.034
100.088
100.137
100.145
100.197
100.245
100.279
100.304
100.33
100.361
100.381
100.405
100.43
100.451
100.468
100.503
100.493
99.6802
99.8259
99.9901
100.036
100.078
100.125
100.133
100.154
100.205
100.251
100.28
100.298
100.329
100.341
100.357
100.37
100.38
100.393
100.412
100.448
99.716
99.8273
99.9484
100.011
100.067
100.115
100.122
100.153
100.205
100.231
100.25
100.255
100.272
100.281
100.287
100.291
100.295
100.311
100.334
100.385
99.8002
99.8504
99.9173
99.9567
100.024
100.078
100.102
100.135
100.166
100.177
100.178
100.177
100.175
100.178
100.18
100.194
100.223
100.262
100.284
100.326
99.9082
99.8922
99.9064
99.8975
99.951
100.009
100.039
100.064
100.067
100.084
100.065
100.073
100.09
100.118
100.145
100.174
100.204
100.226
100.236
100.263
100.007
99.9695
99.9196
99.8496
99.8582
99.8987
99.9178
99.9432
99.9618
100.003
100.033
100.059
100.095
100.129
100.149
100.163
100.172
100.176
100.171
100.178
100.076
100.053
100.012
99.881
99.8454
99.8456
99.8728
99.9255
99.9589
100.003
100.049
100.077
100.104
100.125
100.127
100.128
100.111
100.087
100.068
100.087
100.179
100.163
100.115
100.002
99.8692
99.8573
99.8825
99.9442
99.9846
100.03
100.065
100.074
100.085
100.085
100.07
100.049
100.019
100.014
100.035
100.083
100.31
100.243
100.169
100.067
99.9266
99.8865
99.909
99.9757
100.007
100.026
100.04
100.03
100.014
99.9964
99.9823
99.9832
99.998
100.019
100.038
100.049
100.386
100.389
100.416
100.476
100.511
100.443
100.327
100.356
100.49
100.535
100.523
100.485
100.448
100.411
100.415
100.457
100.508
100.552
100.566
100.536
100.731
100.87
100.946
100.99
100.992
100.975
100.936
100.937
100.992
101.071
101.1
101.101
101.097
101.085
101.078
101.097
101.114
101.111
101.104
101.088
101.058
101.028
101.002
100.986
100.961
100.952
100.94
100.915
100.88
100.866
100.863
100.865
100.862
100.849
100.829
100.82
100.82
100.82
100.816
100.803
100.598
100.636
100.695
100.727
100.765
100.799
100.816
100.817
100.803
100.796
100.801
100.811
100.812
100.804
100.794
100.789
100.788
100.788
100.785
100.778
100.026
100.052
100.177
100.283
100.411
100.509
100.575
100.626
100.65
100.661
100.674
100.688
100.695
100.697
100.701
100.706
100.709
100.709
100.71
100.715
100.085
100.095
100.095
100.089
100.105
100.192
100.343
100.442
100.501
100.544
100.558
100.564
100.57
100.58
100.594
100.603
100.608
100.612
100.616
100.629
100.129
100.138
100.143
100.14
100.121
100.117
100.14
100.227
100.373
100.467
100.48
100.483
100.487
100.501
100.519
100.527
100.531
100.533
100.537
100.55
100.177
100.185
100.186
100.174
100.153
100.143
100.144
100.155
100.197
100.311
100.403
100.44
100.442
100.462
100.476
100.484
100.486
100.486
100.487
100.497
100.233
100.236
100.23
100.214
100.196
100.188
100.189
100.186
100.188
100.194
100.253
100.353
100.418
100.445
100.448
100.456
100.458
100.456
100.459
100.467
100.3
100.285
100.273
100.261
100.243
100.222
100.216
100.208
100.198
100.187
100.19
100.216
100.336
100.407
100.425
100.438
100.435
100.435
100.444
100.448
100.364
100.339
100.316
100.301
100.282
100.256
100.24
100.226
100.213
100.2
100.194
100.19
100.21
100.305
100.39
100.418
100.41
100.417
100.432
100.432
100.432
100.397
100.359
100.339
100.32
100.293
100.267
100.246
100.218
100.207
100.202
100.192
100.189
100.196
100.28
100.364
100.381
100.405
100.419
100.415
100.536
100.461
100.38
100.343
100.349
100.341
100.318
100.285
100.25
100.227
100.218
100.209
100.199
100.185
100.182
100.226
100.313
100.363
100.375
100.38
100.616
100.551
100.482
100.404
100.382
100.368
100.347
100.315
100.277
100.243
100.228
100.22
100.205
100.185
100.166
100.155
100.173
100.226
100.276
100.319
100.608
100.585
100.544
100.481
100.42
100.374
100.339
100.323
100.304
100.278
100.259
100.239
100.217
100.192
100.167
100.149
100.144
100.135
100.146
100.22
100.489
100.547
100.541
100.518
100.474
100.421
100.366
100.34
100.321
100.297
100.269
100.241
100.211
100.186
100.169
100.151
100.134
100.118
100.102
100.108
100.251
100.377
100.446
100.483
100.473
100.449
100.41
100.361
100.325
100.288
100.258
100.234
100.211
100.192
100.178
100.159
100.138
100.117
100.094
100.074
100.043
100.146
100.255
100.336
100.387
100.414
100.406
100.38
100.345
100.303
100.265
100.242
100.222
100.199
100.173
100.144
100.117
100.098
100.085
100.063
100.002
100.015
100.066
100.155
100.232
100.289
100.33
100.349
100.339
100.317
100.28
100.246
100.215
100.187
100.162
100.137
100.108
100.093
100.087
100.068
100
100
100.003
100.025
100.077
100.148
100.208
100.251
100.28
100.291
100.282
100.26
100.228
100.196
100.169
100.15
100.125
100.103
100.085
100.057
100
100
100
100.001
100.006
100.03
100.081
100.14
100.187
100.216
100.241
100.244
100.237
100.217
100.186
100.158
100.131
100.102
100.078
100.049
100
100
100
100
100
100.001
100.008
100.033
100.078
100.129
100.169
100.192
100.211
100.21
100.202
100.182
100.156
100.126
100.101
100.069
100
100
100
100
100
100
100
100.001
100.008
100.031
100.073
100.118
100.155
100.173
100.186
100.184
100.177
100.16
100.136
100.097
100
100
100
100
100
100
100
100
100
100.001
100.008
100.028
100.065
100.106
100.141
100.16
100.168
100.167
100.162
100.139
100
100
100
100
100
100
100
100
100
100
100
100.001
100.007
100.025
100.056
100.096
100.127
100.147
100.155
100.152
100
100
100
100
100
100
100
100
100
100
100
100
100
100.001
100.005
100.02
100.048
100.085
100.113
100.138
100
100
100
100
100
100
100
100
100
100
100
100
100
100
100
100.001
100.004
100.016
100.04
100.105
100.596
100.653
100.609
100.416
100.142
100.017
100.001
100
100
100
100
100
100
100
100
100.672
100.663
100.518
100.217
100.022
100
100
100
100
100
100
100
100
100
100
100.704
100.636
100.374
100.074
100.002
100
100
100
100
100
100
100
100
100
100
100.718
100.518
100.167
100.009
100
100
100
100
100
100
100
100
100
100
100
100.652
100.285
100.024
100
100
100
100
100
100
100
100
100
100
100
100
100.393
100.038
100
100
100
100
100
100
100
100
100
100
100
100
100
100.042
100
100
100
100
100
100
100
100
100
100
100
100
100
100
99.9995
100
100
100
100
100
100
100
100
100
100
100
100
100
100
100
100
100
100
100
100
100
100
100
100
100
100
100
100
100
100
100
100
100
100
100
100
100
100
100
100
100
100
100
100
100
100
100
100
100
100
100
100
100
100
100
100
100
100
100
100
100
100
100
100
100
100
100
100
100
100
100
100
100
100
100
100
100
100
100
100
100
100
100
100
100
100
100
100
100
100
100
100
100
100
100
100
100
100
100
100
100
100
100
100
100
100
100
100
100
100
100
100
100
100
100
100
100
100
100
100
100
100
100
100
100
100
100
100
100
100
100
100
100
100
100
100
100
100
100
100
100
100
100
100
100
100
100
100
100
100
100
100
100
100
100
100
100
100
100
100
100
100
100
100
100
100
100
100
100
100
100
100
100
100
100
100
100
100
100
100
100
100
100
100
100
100
100
100
100
100
100
100
100
100
100
100
100
100
100
100
100
100
100
100
100
100
100
100
100
100
100
100
100
100
100
100
100
100
100
100
100
100
100
100
100
100
100
100
100
100
100
100
100
100
100
100
100
100
100
100
100
100
100
100
100
100
100
100
100
100
100
100
100
100
100
100
100
100
100
100
100
100
100
100
100
100
100
100
100
100
100
100
100
100
100
100
100
100
100
100
100
100
100
100
100
100
100
100
100
100
100
100
100
100
100
100
100
100
100
100
100
100
100
100
100
100
100
100
100
100
100
100
100
100
100
100
100
100
100
100
100
100
100
100
100
100
100
100
100
100
100
100
100
100
100
100
100
100
100
100
100
100
100
100
100
100
100
100
100
100
100
100
100
100
100
100
100
100
100
100
100
100
100
100
100
100
100
100
100
100
100
100
100
100
100
100
100
100
100
100
100
100
100
100
100
100
100
100
100
100
100
100
100
100
100
100
100
100
100
100
100
100
100
100
100
100
100
100
100
100
100
100
100
100
100
100
100
100
100
100
100
100
100
100
100
100
100
100
100
100
100
100
100
100
100
100
100
100
100
100
100
100
100
100
100
100
100
100
100
100
100
100
100
100
100
100
100
100
100
100
100
100
100
100
100
100
100
100
100
100
100
100
100
100
100
100
100
100
100
100
100
100
100
100
100
100
100
100
100
100
100
100
100
100
100
100
100
100
100
100
100
100
100
100
100
100
100
100
100
100
100
100
100
100
100
100
100
100
100
100
100
100
100
100
100
100
100
100
100
100
100
100
100
100
100
100
100
100
100
100
100
100
100
100
100
100
100
100
100
100
100
100
100
100
100
100
100
100
100
100
100
100
100
100
100
100
100
100
100
100
100
100
100
100
100
100
100
100
100
100
100
100
100
100
100
100
100
100
100
100
100
100
100
100
100
100
100
100
100
100
100
100
100
100
100
100
100
100
100
100
100
100
100
100
100
100
100
100
100
100
100
100
100
100
100
100
100
100
100
100
100
100
100
100
100
100
100
100
100
100
100
100
100
100
100
100
100
100
100
100
100
100
100
100
100
100
100
100
100
100
100
100
100
100
100
100
100
100
100
100
100
100
100
100
100
100
100
100
100
100
100
100
100
100
100
100
100
100
100
100
100
100
100
100
100
100
100
100
100
100
100
100
100
100
100
100
100
100
100
100
100
100
100
100
100
100
100
100
100
100
100
100
100
100
100
100
100
100
100
100
100
100
100
100
100
100
100
100
100
100
100
100
100
100
100
100
100
100
100
100
100
100
100
100
100
100
100
100
100
100
100
100
100
100
100
100
100
100
100
100
100
100
100
100
100
100
100
100
100
100
100
100
100
100
100
100
100
100
100
100
100
100
100
100
100
100
100
100
100
100
100
100
100
100
100
100
100
100
100
100
100
100
100
100
100
100
100
100
100
100
100
100
100
100
100
100
100
100
100
100
100
100
100
100
100
100
100
100
100
100
100
100
100
100
100
100
100
100
100
100
100
100
100
100
100
100
100
100
100
100
100
100
100
100
100
100
100
100
100
100
100
100
100
100
99.9995
100
100
100
100
100
100
100
100
100
100
100
100
100
100
100.042
100
100
100
100
100
100
100
100
100
100
100
100
100
100
100.393
100.038
100
100
100
100
100
100
100
100
100
100
100
100
100
100.652
100.284
100.024
100
100
100
100
100
100
100
100
100
100
100
100
100.719
100.518
100.167
100.009
100
100
100
100
100
100
100
100
100
100
100
100.704
100.636
100.374
100.074
100.002
100
100
100
100
100
100
100
100
100
100
100.672
100.663
100.518
100.218
100.022
100
100
100
100
100
100
100
100
100
100
100.596
100.653
100.609
100.416
100.142
100.017
100.001
100
100
100
100
100
100
100
100
100.534
100.617
100.608
100.489
100.251
100.043
100.002
100
100
100
100
100
100
100
100
100.46
100.549
100.586
100.547
100.377
100.146
100.015
100
100
100
100
100
100
100
100
100.383
100.481
100.544
100.541
100.446
100.255
100.066
100.003
100
100
100
100
100
100
100
100.348
100.408
100.482
100.518
100.483
100.336
100.155
100.025
100.001
100
100
100
100
100
100
100.348
100.381
100.419
100.476
100.473
100.387
100.232
100.077
100.006
100
100
100
100
100
100
100.34
100.369
100.369
100.419
100.449
100.414
100.289
100.148
100.03
100.001
100
100
100
100
100
100.316
100.35
100.341
100.363
100.408
100.405
100.33
100.208
100.081
100.008
100
100
100
100
100
100.275
100.315
100.324
100.341
100.361
100.379
100.348
100.251
100.14
100.033
100.001
100
100
100
100
100.24
100.274
100.302
100.321
100.327
100.344
100.339
100.28
100.187
100.078
100.008
100
100
100
100
100.227
100.242
100.276
100.293
100.289
100.305
100.317
100.291
100.216
100.129
100.031
100.001
100
100
100
100.22
100.229
100.261
100.267
100.255
100.265
100.282
100.282
100.241
100.169
100.073
100.008
100
100
100
100.208
100.22
100.243
100.239
100.231
100.242
100.246
100.26
100.244
100.192
100.118
100.028
100.001
100
100
100.197
100.204
100.218
100.21
100.21
100.222
100.215
100.228
100.237
100.211
100.155
100.065
100.007
100
100
100.182
100.185
100.193
100.187
100.192
100.199
100.187
100.196
100.216
100.21
100.173
100.106
100.025
100.001
100
100.18
100.166
100.171
100.168
100.178
100.173
100.162
100.17
100.187
100.202
100.186
100.141
100.056
100.005
100
100.222
100.154
100.15
100.152
100.161
100.144
100.134
100.149
100.158
100.183
100.184
100.16
100.096
100.02
100.001
100.308
100.169
100.143
100.137
100.141
100.119
100.107
100.124
100.13
100.156
100.177
100.168
100.127
100.048
100.004
100.361
100.222
100.135
100.12
100.117
100.099
100.094
100.103
100.102
100.126
100.16
100.167
100.147
100.084
100.016
100.374
100.276
100.146
100.1
100.092
100.084
100.088
100.085
100.079
100.101
100.136
100.162
100.155
100.113
100.04
100.38
100.32
100.219
100.105
100.072
100.063
100.068
100.056
100.049
100.069
100.097
100.138
100.151
100.138
100.105
100.431
100.4
100.364
100.339
100.318
100.293
100.27
100.248
100.224
100.213
100.204
100.191
100.187
100.193
100.277
100.362
100.382
100.405
100.418
100.414
100.365
100.341
100.317
100.298
100.282
100.261
100.244
100.23
100.214
100.204
100.195
100.189
100.207
100.303
100.384
100.421
100.413
100.418
100.432
100.431
100.302
100.287
100.272
100.258
100.238
100.22
100.213
100.206
100.194
100.194
100.194
100.22
100.333
100.403
100.423
100.441
100.438
100.436
100.443
100.447
100.235
100.238
100.228
100.209
100.192
100.187
100.189
100.187
100.19
100.197
100.252
100.364
100.423
100.443
100.454
100.461
100.461
100.458
100.459
100.465
100.179
100.187
100.185
100.169
100.148
100.142
100.143
100.155
100.201
100.307
100.403
100.442
100.447
100.465
100.483
100.487
100.488
100.485
100.487
100.495
100.132
100.139
100.141
100.136
100.119
100.118
100.138
100.229
100.382
100.462
100.471
100.476
100.485
100.506
100.525
100.533
100.534
100.535
100.537
100.55
100.088
100.09
100.092
100.088
100.101
100.184
100.332
100.439
100.514
100.554
100.55
100.546
100.557
100.58
100.601
100.611
100.614
100.615
100.619
100.631
100.028
100.075
100.194
100.29
100.411
100.499
100.556
100.618
100.67
100.679
100.671
100.669
100.677
100.693
100.708
100.714
100.715
100.713
100.714
100.719
100.567
100.654
100.72
100.737
100.764
100.784
100.791
100.808
100.816
100.812
100.803
100.8
100.801
100.801
100.796
100.792
100.791
100.79
100.788
100.782
101.045
101.03
101.013
100.991
100.96
100.944
100.926
100.905
100.881
100.869
100.866
100.865
100.862
100.85
100.831
100.822
100.821
100.821
100.818
100.806
)
;

boundaryField
{
    inlet
    {
        type            fixedValue;
        value           uniform 100;
    }
    outlet
    {
        type            inletOutlet;
        inletValue      uniform 100;
        value           nonuniform List<scalar> 
50
(
100.38
100.319
100.22
100.108
100.074
100.063
100.068
100.057
100.049
100.069
100.097
100.139
100.152
100.138
100.105
100.803
100.778
100.715
100.629
100.55
100.497
100.467
100.448
100.432
100.415
100.414
100.431
100.447
100.465
100.495
100.55
100.631
100.719
100.782
100.806
100.38
100.32
100.219
100.105
100.072
100.063
100.068
100.057
100.049
100.069
100.097
100.138
100.151
100.138
100.105
)
;
    }
    airfoil
    {
        type            zeroGradient;
    }
    top
    {
        type            symmetryPlane;
    }
    bottom
    {
        type            symmetryPlane;
    }
    defaultFaces
    {
        type            empty;
    }
}


// ************************************************************************* //
