/*--------------------------------*- C++ -*----------------------------------*\
  =========                 |
  \\      /  F ield         | OpenFOAM: The Open Source CFD Toolbox
   \\    /   O peration     | Website:  https://openfoam.org
    \\  /    A nd           | Version:  7
     \\/     M anipulation  |
\*---------------------------------------------------------------------------*/
FoamFile
{
    version     2.0;
    format      ascii;
    class       volVectorField;
    location    "8";
    object      U;
}
// * * * * * * * * * * * * * * * * * * * * * * * * * * * * * * * * * * * * * //

dimensions      [0 1 -1 0 0 0 0];

internalField   nonuniform List<vector> 
3700
(
(1.37862 -0.391821 0)
(1.43219 -0.492133 0)
(1.41073 -0.316956 0)
(1.46723 -0.327875 0)
(1.47315 -0.31686 0)
(1.43704 -0.295652 0)
(1.42476 -0.212451 0)
(1.44152 -0.228022 0)
(1.51262 -0.329736 0)
(1.50703 -0.319149 0)
(1.4662 -0.200636 0)
(1.49332 -0.0738297 0)
(1.57201 -0.0519975 0)
(1.62375 -0.0488809 0)
(1.67359 -0.0482672 0)
(1.74703 -0.0893203 0)
(1.78949 -0.186232 0)
(1.82914 -0.300345 0)
(1.86727 -0.330744 0)
(1.85814 -0.307188 0)
(1.83592 -1.35712 0)
(1.86428 -1.25167 0)
(1.94829 -1.31941 0)
(2.05197 -1.53613 0)
(1.94743 -1.71052 0)
(1.77544 -1.64794 0)
(1.73709 -1.44899 0)
(1.74859 -1.48821 0)
(1.79383 -1.56899 0)
(1.79059 -1.48132 0)
(1.74336 -1.18238 0)
(1.79988 -0.945431 0)
(1.92178 -0.868623 0)
(2.00052 -0.864991 0)
(2.09232 -0.907157 0)
(2.19245 -1.00571 0)
(2.30332 -1.26065 0)
(2.3377 -1.37699 0)
(2.314 -1.37341 0)
(2.29694 -1.30771 0)
(1.81014 -1.28986 0)
(1.96582 -1.10284 0)
(2.16467 -1.36602 0)
(2.30555 -1.6927 0)
(2.1271 -2.07088 0)
(2.00023 -2.2265 0)
(2.03557 -2.20678 0)
(1.99651 -2.21286 0)
(1.99828 -2.17926 0)
(2.05382 -2.0943 0)
(2.13256 -2.05043 0)
(2.21591 -1.95702 0)
(2.33497 -1.89961 0)
(2.44599 -1.83394 0)
(2.53765 -1.78464 0)
(2.60161 -1.72932 0)
(2.59834 -1.75102 0)
(2.59011 -1.68703 0)
(2.55101 -1.66863 0)
(2.55163 -1.59202 0)
(1.84198 -1.34939 0)
(1.96725 -1.19956 0)
(2.0768 -1.43357 0)
(2.09467 -1.82066 0)
(2.01364 -2.12102 0)
(1.99628 -2.22817 0)
(2.06705 -2.20602 0)
(2.08482 -2.13478 0)
(2.09481 -2.12743 0)
(2.18828 -2.02572 0)
(2.17336 -2.06424 0)
(2.26872 -1.87912 0)
(2.34094 -1.7909 0)
(2.43915 -1.6971 0)
(2.57375 -1.60136 0)
(2.72403 -1.45463 0)
(2.76558 -1.34769 0)
(2.80262 -1.31766 0)
(2.78758 -1.35446 0)
(2.68716 -1.39014 0)
(1.74753 -1.37583 0)
(1.84386 -1.32349 0)
(1.83369 -1.68183 0)
(1.78233 -2.04139 0)
(1.82162 -2.22162 0)
(1.94916 -2.22525 0)
(2.0418 -2.23804 0)
(2.14653 -2.06995 0)
(2.16869 -2.06535 0)
(2.31824 -1.84772 0)
(2.33181 -1.90565 0)
(2.41897 -1.7971 0)
(2.41813 -1.72888 0)
(2.44822 -1.64925 0)
(2.52221 -1.56759 0)
(2.6245 -1.43888 0)
(2.67001 -1.29961 0)
(2.78805 -1.1132 0)
(2.86531 -0.916723 0)
(2.82175 -0.903363 0)
(1.56407 -1.3843 0)
(1.65945 -1.42073 0)
(1.6071 -1.82004 0)
(1.59067 -2.17126 0)
(1.55997 -2.25837 0)
(1.83039 -2.14285 0)
(1.95837 -2.15984 0)
(2.19574 -1.82514 0)
(2.32652 -1.84828 0)
(2.50053 -1.72274 0)
(2.50404 -1.65456 0)
(2.56946 -1.54675 0)
(2.59562 -1.51345 0)
(2.58861 -1.48813 0)
(2.60371 -1.4029 0)
(2.61448 -1.34047 0)
(2.62767 -1.20855 0)
(2.72677 -1.15088 0)
(2.75858 -0.979908 0)
(2.84551 -0.748193 0)
(1.41023 -1.25292 0)
(1.45561 -1.38975 0)
(1.4627 -1.8914 0)
(1.43296 -2.17868 0)
(1.55989 -2.2191 0)
(1.81493 -2.0927 0)
(1.92795 -2.08038 0)
(2.11288 -1.82083 0)
(2.25357 -1.70437 0)
(2.45825 -1.63937 0)
(2.56393 -1.40504 0)
(2.69097 -1.29737 0)
(2.72858 -1.1636 0)
(2.72004 -1.1633 0)
(2.73759 -1.0593 0)
(2.72051 -1.05368 0)
(2.70517 -0.945627 0)
(2.70438 -0.948945 0)
(2.72402 -0.895832 0)
(2.75838 -0.663304 0)
(1.30069 -1.10007 0)
(1.32497 -1.39511 0)
(1.36766 -1.91397 0)
(1.47677 -2.16941 0)
(1.68248 -2.20838 0)
(1.89293 -2.10304 0)
(2.03235 -2.05709 0)
(2.16034 -1.8232 0)
(2.23023 -1.67847 0)
(2.35058 -1.6283 0)
(2.46806 -1.38053 0)
(2.63375 -1.29009 0)
(2.68114 -0.983548 0)
(2.76747 -0.876127 0)
(2.77737 -0.665202 0)
(2.7727 -0.642644 0)
(2.76868 -0.564543 0)
(2.74386 -0.555993 0)
(2.72451 -0.651851 0)
(2.6944 -0.496986 0)
(1.23012 -1.01584 0)
(1.28539 -1.4633 0)
(1.4679 -1.96263 0)
(1.64616 -2.16006 0)
(1.98047 -2.05817 0)
(2.18961 -2.00975 0)
(2.30255 -1.82578 0)
(2.40147 -1.66694 0)
(2.39839 -1.61216 0)
(2.4207 -1.53555 0)
(2.48693 -1.33687 0)
(2.56782 -1.21998 0)
(2.60439 -0.98044 0)
(2.71479 -0.880002 0)
(2.72372 -0.621219 0)
(2.76957 -0.474738 0)
(2.76488 -0.296644 0)
(2.74348 -0.181144 0)
(2.70131 -0.268486 0)
(2.65886 -0.235923 0)
(1.212 -1.03879 0)
(1.33751 -1.60848 0)
(1.7125 -2.11688 0)
(1.96259 -2.25256 0)
(2.40361 -1.91032 0)
(2.52521 -1.91215 0)
(2.58682 -1.54926 0)
(2.61966 -1.32622 0)
(2.6694 -1.26206 0)
(2.67451 -1.19857 0)
(2.65655 -1.11465 0)
(2.67081 -0.932313 0)
(2.65185 -0.795381 0)
(2.68348 -0.70104 0)
(2.67697 -0.527633 0)
(2.70188 -0.42326 0)
(2.7152 -0.270445 0)
(2.6923 -0.0763299 0)
(2.64927 0.0299657 0)
(2.61546 0.0186421 0)
(1.22745 -1.15564 0)
(1.55227 -1.98731 0)
(1.91867 -2.33569 0)
(2.12605 -2.33466 0)
(2.32342 -1.88974 0)
(2.38699 -1.79087 0)
(2.59193 -1.41643 0)
(2.73406 -1.09321 0)
(2.79855 -0.959912 0)
(2.76024 -0.676648 0)
(2.75812 -0.605805 0)
(2.73775 -0.416083 0)
(2.7282 -0.365371 0)
(2.7098 -0.254696 0)
(2.68167 -0.185591 0)
(2.65208 -0.150204 0)
(2.64201 -0.121745 0)
(2.6188 -0.0205709 0)
(2.55638 0.159825 0)
(2.56636 0.155017 0)
(1.33669 -1.52823 0)
(1.76027 -2.38622 0)
(1.95119 -2.33189 0)
(1.94751 -2.04577 0)
(2.07899 -1.76652 0)
(2.19986 -1.57882 0)
(2.34397 -1.34757 0)
(2.46544 -1.09009 0)
(2.53453 -0.980466 0)
(2.59216 -0.678417 0)
(2.66558 -0.48306 0)
(2.65507 -0.215308 0)
(2.67049 -0.0690849 0)
(2.63375 0.104837 0)
(2.59654 0.217423 0)
(2.56231 0.250365 0)
(2.53465 0.245079 0)
(2.53217 0.189235 0)
(2.45366 0.313281 0)
(2.47023 0.292777 0)
(1.37146 -1.77284 0)
(1.7346 -2.53115 0)
(1.79118 -2.07081 0)
(1.85121 -1.88516 0)
(2.03756 -1.66811 0)
(2.20065 -1.40953 0)
(2.31443 -1.18543 0)
(2.40076 -0.977841 0)
(2.44918 -0.761132 0)
(2.49408 -0.587207 0)
(2.55355 -0.387301 0)
(2.55799 -0.159368 0)
(2.57433 0.0106527 0)
(2.54479 0.192483 0)
(2.48381 0.376541 0)
(2.44917 0.458314 0)
(2.37943 0.565116 0)
(2.3609 0.526098 0)
(2.31965 0.558873 0)
(2.32914 0.510832 0)
(1.32586 -1.82528 0)
(1.58265 -2.35586 0)
(1.81964 -1.95304 0)
(2.00327 -1.51091 0)
(2.22966 -1.42442 0)
(2.36318 -0.89403 0)
(2.47573 -0.685079 0)
(2.5542 -0.512633 0)
(2.52811 -0.190152 0)
(2.54075 -0.103083 0)
(2.52271 0.0804358 0)
(2.49092 0.217159 0)
(2.45797 0.322122 0)
(2.41757 0.413585 0)
(2.35648 0.516271 0)
(2.32868 0.565555 0)
(2.24825 0.671665 0)
(2.19376 0.743571 0)
(2.15947 0.788882 0)
(2.14129 0.79099 0)
(1.21743 -1.78926 0)
(1.57076 -2.11804 0)
(1.92878 -1.70004 0)
(2.05543 -0.84342 0)
(2.33722 -0.693082 0)
(2.48486 -0.207727 0)
(2.56134 -0.0983037 0)
(2.54039 0.120983 0)
(2.49446 0.228377 0)
(2.45945 0.372437 0)
(2.39889 0.521391 0)
(2.32619 0.647471 0)
(2.27269 0.716837 0)
(2.21413 0.782506 0)
(2.17149 0.798896 0)
(2.13226 0.814129 0)
(2.08749 0.856206 0)
(2.06771 0.880587 0)
(2.03344 0.930734 0)
(2.05741 0.955838 0)
(1.09301 -1.34909 0)
(1.57921 -1.57898 0)
(2.26253 -1.31445 0)
(2.40625 -0.172252 0)
(2.46933 0.0808074 0)
(2.46745 -0.109834 0)
(2.4683 0.0317265 0)
(2.40589 0.279674 0)
(2.3489 0.403869 0)
(2.31169 0.566982 0)
(2.21892 0.728373 0)
(2.13476 0.850405 0)
(2.07355 0.919647 0)
(2.01467 0.981341 0)
(1.97686 0.988859 0)
(1.94999 1.00069 0)
(1.95392 1.01862 0)
(1.97106 0.994071 0)
(1.99716 0.993027 0)
(2.07203 0.976205 0)
(1.12282 -0.663268 0)
(1.53875 -0.900169 0)
(2.15528 -0.0795628 0)
(2.33869 -0.0727644 0)
(2.35582 0.0471321 0)
(2.36835 0.272908 0)
(2.27998 0.530811 0)
(2.21531 0.647289 0)
(2.14053 0.748482 0)
(2.08857 0.887072 0)
(1.97599 0.995986 0)
(1.92 1.05143 0)
(1.88898 1.0719 0)
(1.87234 1.08505 0)
(1.8731 1.05664 0)
(1.89548 1.05029 0)
(1.95907 1.02418 0)
(2.1621 0.907157 0)
(2.38338 0.793089 0)
(2.78216 0.438053 0)
(0.974239 0.0634632 0)
(1.93726 0.0786383 0)
(2.24692 0.376734 0)
(2.22238 0.540634 0)
(2.19314 0.615188 0)
(2.15081 0.740247 0)
(2.04702 0.895499 0)
(1.96428 0.98319 0)
(1.90353 1.04394 0)
(1.84587 1.13135 0)
(1.786 1.15917 0)
(1.78822 1.15238 0)
(1.80985 1.13107 0)
(1.85398 1.08621 0)
(2.04456 0.947616 0)
(2.25902 0.827845 0)
(2.66001 0.507402 0)
(3.03406 0.0950121 0)
(3.05502 -0.0232095 0)
(3.00399 -0.00461493 0)
(1.01173 0.0232392 0)
(1.9119 0.796047 0)
(2.11256 0.789246 0)
(1.99807 0.935189 0)
(1.96172 0.974602 0)
(1.86124 1.08988 0)
(1.79609 1.13637 0)
(1.76637 1.14587 0)
(1.76233 1.16279 0)
(1.73706 1.20239 0)
(1.71155 1.19643 0)
(1.85085 1.07387 0)
(2.09177 0.889621 0)
(2.50382 0.580042 0)
(2.98876 0.136783 0)
(3.07425 -0.0295774 0)
(3.00822 -0.00775539 0)
(3.00294 -0.00387008 0)
(3.00123 -0.00220902 0)
(3.00008 -0.000488984 0)
(1.15591 0.772093 0)
(1.82816 1.14971 0)
(1.83785 1.1531 0)
(1.72806 1.20176 0)
(1.70711 1.19028 0)
(1.6683 1.23807 0)
(1.66582 1.21078 0)
(1.73476 1.16475 0)
(1.76805 1.22567 0)
(1.79447 1.13487 0)
(2.26487 0.738548 0)
(2.8535 0.211784 0)
(3.0978 -0.0271979 0)
(3.02124 -0.0126246 0)
(3.00421 -0.00525674 0)
(3.00177 -0.00290505 0)
(3.00006 -0.000574061 0)
(2.99998 -2.4009e-05 0)
(2.99999 1.43942e-05 0)
(3 5.91638e-06 0)
(1.57555 1.25789 0)
(1.5815 1.26561 0)
(1.58486 1.27298 0)
(1.59201 1.26372 0)
(1.60758 1.24417 0)
(1.60325 1.266 0)
(1.92098 1.16844 0)
(2.99073 0.368724 0)
(3.31269 -0.566754 0)
(3 6.5354e-11 0)
(3 -7.68389e-11 0)
(3 7.93688e-11 0)
(3 3.17977e-15 0)
(3 -4.24163e-13 0)
(3 -1.41562e-14 0)
(3 1.51805e-14 0)
(3 -1.09417e-14 0)
(3 -7.98044e-16 0)
(3 -2.03134e-15 0)
(3 -3.4684e-15 0)
(1.58227 1.25158 0)
(1.59296 1.25963 0)
(1.59694 1.27703 0)
(1.59712 1.28495 0)
(1.65733 1.26547 0)
(1.72315 1.23906 0)
(2.27209 0.750503 0)
(2.9965 0.0165646 0)
(3 5.52008e-08 0)
(3 -3.07317e-11 0)
(3 1.99304e-14 0)
(3 -1.09895e-15 0)
(3 -1.25281e-15 0)
(3 3.34269e-16 0)
(3 6.76563e-17 0)
(3 2.29896e-16 0)
(3 7.71038e-16 0)
(3 5.53993e-16 0)
(3 6.77408e-16 0)
(3 9.35154e-16 0)
(1.58805 1.25008 0)
(1.60629 1.25459 0)
(1.6144 1.26099 0)
(1.59754 1.29023 0)
(1.67507 1.23691 0)
(2.18784 0.807724 0)
(2.98571 0.00790805 0)
(3.00054 -0.00100479 0)
(3 6.90836e-07 0)
(3 6.11453e-11 0)
(3 -2.41991e-13 0)
(3 -9.70068e-16 0)
(3 -1.08576e-15 0)
(3 -1.36878e-15 0)
(3 2.30337e-16 0)
(3 7.23577e-16 0)
(3 1.32926e-15 0)
(3 3.48766e-16 0)
(3 -5.48224e-16 0)
(3 -8.49478e-16 0)
(1.58707 1.25336 0)
(1.61002 1.25521 0)
(1.62547 1.25332 0)
(1.64116 1.26608 0)
(1.86375 1.0785 0)
(2.75194 0.209419 0)
(3.00529 -0.00261969 0)
(2.9999 9.36416e-05 0)
(3 -8.81788e-07 0)
(3 8.93253e-10 0)
(3 -3.3419e-14 0)
(3 -1.5854e-15 0)
(3 -6.82498e-16 0)
(3 -2.29127e-16 0)
(3 -4.33651e-16 0)
(3 1.04543e-15 0)
(3 1.61654e-15 0)
(3 -5.58288e-16 0)
(3 -3.86476e-16 0)
(3 -1.19442e-15 0)
(1.58582 1.26416 0)
(1.5961 1.26033 0)
(1.6252 1.2495 0)
(1.73875 1.19664 0)
(2.38301 0.625431 0)
(3.01896 -0.0173824 0)
(2.99976 0.000190117 0)
(3 -4.39102e-06 0)
(3 8.57872e-08 0)
(3 -9.20516e-10 0)
(3 2.7817e-13 0)
(3 -1.4821e-15 0)
(3 -4.13486e-16 0)
(3 9.73436e-17 0)
(3 -3.70483e-16 0)
(3 4.58008e-16 0)
(3 -1.39708e-16 0)
(3 -5.73697e-16 0)
(3 -1.67412e-15 0)
(3 -2.12935e-15 0)
(1.58282 1.27497 0)
(1.57895 1.26945 0)
(1.62951 1.26329 0)
(1.75919 1.17349 0)
(2.68202 0.277408 0)
(3 -5.94355e-10 0)
(3 1.43832e-08 0)
(3 -1.30089e-08 0)
(3 5.66066e-10 0)
(3 3.18065e-12 0)
(3 -1.0838e-13 0)
(3 1.92847e-15 0)
(3 -2.19594e-17 0)
(3 2.9529e-16 0)
(3 -4.07967e-16 0)
(3 4.56399e-16 0)
(3 8.66349e-16 0)
(3 -1.64875e-15 0)
(3 -2.16567e-15 0)
(3 -2.29431e-15 0)
(1.57922 1.29524 0)
(1.55902 1.29291 0)
(1.67341 1.24144 0)
(2.16084 0.84273 0)
(3.0148 -0.0153011 0)
(3 -7.36441e-12 0)
(3 -9.05501e-12 0)
(3 1.63303e-11 0)
(3 -2.78798e-12 0)
(3 1.02709e-14 0)
(3 1.51497e-15 0)
(3 9.22602e-16 0)
(3 1.74302e-15 0)
(3 1.11042e-15 0)
(3 -1.55498e-16 0)
(3 1.01555e-15 0)
(3 7.55106e-16 0)
(3 -9.74563e-16 0)
(3 -2.49029e-15 0)
(3 -2.84066e-15 0)
(1.58795 1.32214 0)
(1.50162 1.32954 0)
(1.78784 1.17885 0)
(2.44619 0.535285 0)
(3 -4.86094e-06 0)
(3 -1.11528e-12 0)
(3 3.68979e-14 0)
(3 -2.81645e-14 0)
(3 1.29098e-14 0)
(3 -4.17717e-16 0)
(3 2.71156e-16 0)
(3 1.4521e-15 0)
(3 2.24892e-15 0)
(3 1.68779e-15 0)
(3 1.11364e-15 0)
(3 2.09464e-15 0)
(3 2.21596e-15 0)
(3 3.83058e-16 0)
(3 -3.19952e-15 0)
(3 -3.40754e-15 0)
(1.59074 1.30869 0)
(1.46609 1.36496 0)
(1.90933 1.05164 0)
(2.84379 0.134323 0)
(3 -2.2759e-08 0)
(3 2.51932e-12 0)
(3 2.62751e-14 0)
(3 1.40055e-15 0)
(3 9.05469e-16 0)
(3 4.2595e-16 0)
(3 -3.6334e-16 0)
(3 3.52439e-16 0)
(3 1.2641e-15 0)
(3 9.28246e-16 0)
(3 1.64111e-15 0)
(3 2.48395e-15 0)
(3 2.57547e-15 0)
(3 1.83987e-15 0)
(3 -2.23467e-15 0)
(3 -3.4665e-15 0)
(1.60497 1.29462 0)
(1.47924 1.37688 0)
(2.17852 0.812032 0)
(3.01084 -0.00922077 0)
(3 2.77695e-08 0)
(3 2.98547e-13 0)
(3 -1.63556e-14 0)
(3 1.93374e-15 0)
(3 1.62598e-15 0)
(3 1.30476e-15 0)
(3 1.06473e-15 0)
(3 1.15809e-15 0)
(3 1.04393e-15 0)
(3 3.47306e-16 0)
(3 1.42833e-15 0)
(3 2.3587e-15 0)
(3 3.70741e-15 0)
(3 4.08122e-15 0)
(3 1.86633e-15 0)
(3 -1.90691e-15 0)
(1.62198 1.27943 0)
(1.57472 1.31247 0)
(2.4189 0.535709 0)
(3 -3.18297e-12 0)
(3 -2.17299e-11 0)
(3 4.90187e-14 0)
(3 3.14123e-15 0)
(3 2.699e-15 0)
(3 2.00501e-15 0)
(3 1.58139e-15 0)
(3 1.67191e-15 0)
(3 1.80127e-15 0)
(3 2.65032e-15 0)
(3 1.88673e-15 0)
(3 1.86217e-15 0)
(3 2.58861e-15 0)
(3 3.15858e-15 0)
(3 3.1992e-15 0)
(3 2.55507e-15 0)
(3 1.11787e-15 0)
(1.63912 1.25991 0)
(1.62508 1.24965 0)
(2.65235 0.289057 0)
(3 3.52321e-13 0)
(3 -3.59975e-14 0)
(3 2.40225e-15 0)
(3 2.43287e-15 0)
(3 1.89381e-15 0)
(3 1.96357e-15 0)
(3 1.48816e-15 0)
(3 1.01521e-15 0)
(3 9.89237e-16 0)
(3 3.40164e-16 0)
(3 6.45221e-16 0)
(3 1.25643e-15 0)
(3 1.72758e-15 0)
(3 1.67031e-15 0)
(3 5.98682e-16 0)
(3 2.1729e-15 0)
(3 1.2506e-15 0)
(1.65683 1.23875 0)
(1.83288 1.1011 0)
(2.87744 0.0920346 0)
(3 -3.1418e-13 0)
(3 2.67635e-15 0)
(3 2.17175e-15 0)
(3 2.38702e-15 0)
(3 2.01284e-15 0)
(3 1.563e-15 0)
(3 1.0407e-15 0)
(3 7.33176e-16 0)
(3 3.77883e-16 0)
(3 5.2558e-16 0)
(3 9.57651e-16 0)
(3 9.70213e-16 0)
(3 1.33021e-15 0)
(3 1.68556e-15 0)
(3 1.04118e-15 0)
(3 1.72685e-15 0)
(3 1.82173e-15 0)
(1.67174 1.19733 0)
(1.89052 0.983376 0)
(2.99022 0.0082306 0)
(3 -1.98021e-17 0)
(3 1.17037e-15 0)
(3 1.61347e-15 0)
(3 2.11227e-15 0)
(3 2.07884e-15 0)
(3 1.69659e-15 0)
(3 1.05522e-15 0)
(3 3.20312e-16 0)
(3 1.28351e-15 0)
(3 1.81026e-15 0)
(3 1.70787e-15 0)
(3 1.41116e-15 0)
(3 1.47392e-15 0)
(3 1.67042e-15 0)
(3 1.57689e-15 0)
(3 1.50545e-15 0)
(3 1.41626e-15 0)
(1.69012 1.17474 0)
(2.037 0.829361 0)
(3 -3.8723e-15 0)
(3 -2.17018e-15 0)
(3 -4.81877e-16 0)
(3 8.29636e-16 0)
(3 1.11807e-15 0)
(3 1.47934e-15 0)
(3 1.56517e-15 0)
(3 1.17909e-15 0)
(3 -1.04586e-16 0)
(3 1.62964e-16 0)
(3 7.0468e-16 0)
(3 2.00436e-15 0)
(3 1.96932e-15 0)
(3 1.86745e-15 0)
(3 2.04924e-15 0)
(3 2.29652e-15 0)
(3 2.47031e-15 0)
(3 2.56694e-15 0)
(1.77453 1.10686 0)
(2.23505 0.647409 0)
(3 -4.14053e-15 0)
(3 -3.67845e-15 0)
(3 -2.87558e-15 0)
(3 -4.59029e-16 0)
(3 7.16924e-16 0)
(3 5.09478e-16 0)
(3 9.45249e-16 0)
(3 1.33654e-15 0)
(3 2.28792e-15 0)
(3 1.91493e-15 0)
(3 1.49611e-15 0)
(3 2.12616e-15 0)
(3 2.89899e-15 0)
(3 3.14975e-15 0)
(3 2.98723e-15 0)
(3 2.95478e-15 0)
(3 2.99825e-15 0)
(3 3.08217e-15 0)
(1.84217 1.00383 0)
(2.47015 0.431935 0)
(3 -5.04653e-15 0)
(3 -4.41374e-15 0)
(3 -4.5909e-15 0)
(3 -4.17681e-15 0)
(3 -3.65766e-15 0)
(3 -3.72049e-15 0)
(3 -2.80756e-15 0)
(3 -1.54478e-15 0)
(3 7.65922e-16 0)
(3 1.77163e-15 0)
(3 1.98971e-15 0)
(3 2.34973e-15 0)
(3 2.47939e-15 0)
(3 2.71533e-15 0)
(3 2.95044e-15 0)
(3 3.0895e-15 0)
(3 3.05347e-15 0)
(3 3.47699e-15 0)
(1.92823 0.867573 0)
(2.71401 0.205012 0)
(3 -8.00281e-16 0)
(3 -1.45192e-15 0)
(3 -1.00455e-15 0)
(3 -2.5816e-16 0)
(3 1.08453e-16 0)
(3 1.8982e-16 0)
(3 9.86738e-17 0)
(3 5.45793e-16 0)
(3 2.05749e-15 0)
(3 2.73158e-15 0)
(3 3.40474e-15 0)
(3 4.12524e-15 0)
(3 5.03735e-15 0)
(3 5.0202e-15 0)
(3 5.16952e-15 0)
(3 4.90609e-15 0)
(3 4.78177e-15 0)
(3 4.49297e-15 0)
(2.09083 0.663347 0)
(2.99116 6.53055e-06 0)
(3 -1.77567e-15 0)
(3 -1.70517e-15 0)
(3 -1.63144e-15 0)
(3 -1.26984e-15 0)
(3 -7.68765e-16 0)
(3 -5.84312e-16 0)
(3 -3.12365e-16 0)
(3 -5.2612e-16 0)
(3 -5.68117e-16 0)
(3 -3.59344e-16 0)
(3 -1.68613e-16 0)
(3 5.59795e-16 0)
(3 1.0482e-15 0)
(3 1.77709e-15 0)
(3 2.21683e-15 0)
(3 2.85e-15 0)
(3 2.68271e-15 0)
(3 3.04888e-15 0)
(1.9918 0.372926 0)
(2.99987 -1.01848e-05 0)
(3 -2.162e-15 0)
(3 -2.2048e-15 0)
(3 -2.01584e-15 0)
(3 -1.74723e-15 0)
(3 -1.2444e-15 0)
(3 -6.98312e-16 0)
(3 -5.05105e-16 0)
(3 -3.40983e-16 0)
(3 -7.49906e-16 0)
(3 -1.14664e-15 0)
(3 -1.23738e-15 0)
(3 -1.44176e-15 0)
(3 -1.4242e-15 0)
(3 -1.22962e-15 0)
(3 -9.52963e-16 0)
(3 -6.71977e-16 0)
(3 -3.92907e-16 0)
(3 -4.10353e-16 0)
(1.99251 -0.37256 0)
(2.99989 6.62146e-06 0)
(3 -2.91042e-15 0)
(3 -1.85223e-15 0)
(3 -1.39357e-15 0)
(3 -6.64993e-16 0)
(3 -9.56831e-17 0)
(3 5.9457e-17 0)
(3 5.10306e-17 0)
(3 -3.25913e-16 0)
(3 -2.66213e-16 0)
(3 -3.83206e-16 0)
(3 -7.66467e-16 0)
(3 -7.14433e-16 0)
(3 -9.90455e-16 0)
(3 -1.5961e-15 0)
(3 -2.11621e-15 0)
(3 -1.93485e-15 0)
(3 -2.03957e-15 0)
(3 -1.78181e-15 0)
(2.09502 -0.665134 0)
(2.99063 -1.69478e-05 0)
(3 -3.68804e-16 0)
(3 -1.33207e-15 0)
(3 -1.55742e-15 0)
(3 -1.18131e-15 0)
(3 -7.8679e-16 0)
(3 -7.16552e-16 0)
(3 -1.02448e-15 0)
(3 -1.54136e-15 0)
(3 -1.53779e-15 0)
(3 -1.36649e-15 0)
(3 -1.30068e-15 0)
(3 -1.6595e-15 0)
(3 -2.45913e-15 0)
(3 -2.85306e-15 0)
(3 -2.97749e-15 0)
(3 -2.95705e-15 0)
(3 -3.12142e-15 0)
(3 -3.30041e-15 0)
(1.92516 -0.870373 0)
(2.70745 -0.209673 0)
(3 2.96162e-15 0)
(3 2.27326e-15 0)
(3 1.73986e-15 0)
(3 1.58033e-15 0)
(3 4.75875e-16 0)
(3 -1.29014e-16 0)
(3 -1.40787e-15 0)
(3 -1.90269e-15 0)
(3 -2.26916e-15 0)
(3 -2.15029e-15 0)
(3 -2.57486e-15 0)
(3 -3.00398e-15 0)
(3 -3.27191e-15 0)
(3 -2.99839e-15 0)
(3 -3.0764e-15 0)
(3 -3.52352e-15 0)
(3 -3.97103e-15 0)
(3 -4.35543e-15 0)
(1.8343 -1.00223 0)
(2.46692 -0.43277 0)
(3 5.36551e-15 0)
(3 6.2952e-15 0)
(3 6.91117e-15 0)
(3 5.96659e-15 0)
(3 4.93875e-15 0)
(3 4.54567e-15 0)
(3 2.78809e-15 0)
(3 1.66512e-15 0)
(3 2.66852e-16 0)
(3 -6.7517e-16 0)
(3 -1.9416e-15 0)
(3 -1.89283e-15 0)
(3 -1.70734e-15 0)
(3 -1.6601e-15 0)
(3 -1.7925e-15 0)
(3 -1.76377e-15 0)
(3 -1.79078e-15 0)
(3 -1.93308e-15 0)
(1.77871 -1.10675 0)
(2.23837 -0.647175 0)
(3 4.65038e-15 0)
(3 4.85545e-15 0)
(3 4.05307e-15 0)
(3 3.8491e-15 0)
(3 4.22615e-15 0)
(3 2.88138e-15 0)
(3 1.62883e-15 0)
(3 4.94083e-16 0)
(3 -4.65022e-16 0)
(3 -1.11918e-15 0)
(3 -1.24089e-15 0)
(3 -1.66297e-15 0)
(3 -1.70603e-15 0)
(3 -1.92421e-15 0)
(3 -1.9376e-15 0)
(3 -1.93605e-15 0)
(3 -1.52202e-15 0)
(3 -1.09366e-15 0)
(1.69478 -1.1721 0)
(2.04377 -0.824759 0)
(3 3.47654e-15 0)
(3 3.3567e-15 0)
(3 2.59755e-15 0)
(3 2.26635e-15 0)
(3 1.86717e-15 0)
(3 1.63537e-15 0)
(3 8.2571e-16 0)
(3 2.73844e-17 0)
(3 -2.20273e-16 0)
(3 -2.98029e-16 0)
(3 -8.31153e-16 0)
(3 -1.15256e-15 0)
(3 -1.38892e-15 0)
(3 -1.23589e-15 0)
(3 -7.95391e-16 0)
(3 -1.28286e-15 0)
(3 -1.01584e-15 0)
(3 -3.81696e-16 0)
(1.66908 -1.19992 0)
(1.88479 -0.985137 0)
(2.98499 -0.0120483 0)
(3 3.09788e-15 0)
(3 2.49289e-15 0)
(3 2.32872e-15 0)
(3 1.99671e-15 0)
(3 1.00751e-15 0)
(3 3.73693e-16 0)
(3 -2.31215e-16 0)
(3 -5.14434e-16 0)
(3 -8.70241e-16 0)
(3 -1.80737e-15 0)
(3 -1.99072e-15 0)
(3 -2.20433e-15 0)
(3 -1.86355e-15 0)
(3 -2.02966e-15 0)
(3 -1.2961e-15 0)
(3 -6.6247e-16 0)
(3 -3.85913e-16 0)
(1.65621 -1.23937 0)
(1.83255 -1.10314 0)
(2.87486 -0.0954508 0)
(3 1.66923e-13 0)
(3 1.30993e-15 0)
(3 1.30356e-15 0)
(3 1.18923e-15 0)
(3 1.83363e-16 0)
(3 -3.74481e-16 0)
(3 -8.81178e-16 0)
(3 -1.07324e-15 0)
(3 -1.72657e-15 0)
(3 -2.19622e-15 0)
(3 -1.71687e-15 0)
(3 -1.21332e-15 0)
(3 4.15571e-16 0)
(3 1.21052e-15 0)
(3 1.16791e-15 0)
(3 9.21541e-16 0)
(3 6.05051e-16 0)
(1.63902 -1.26012 0)
(1.62724 -1.24913 0)
(2.65306 -0.289344 0)
(3 -5.00544e-13 0)
(3 1.61417e-14 0)
(3 1.11376e-15 0)
(3 6.82817e-16 0)
(3 -1.53399e-15 0)
(3 -1.90048e-15 0)
(3 -1.98516e-15 0)
(3 -1.85391e-15 0)
(3 -1.53755e-15 0)
(3 -1.01384e-15 0)
(3 -4.03827e-16 0)
(3 6.40409e-16 0)
(3 1.60711e-15 0)
(3 1.63526e-15 0)
(3 9.47786e-16 0)
(3 7.23708e-16 0)
(3 -1.16107e-15 0)
(1.6216 -1.27896 0)
(1.57075 -1.31558 0)
(2.4146 -0.540715 0)
(3 2.84326e-12 0)
(3 3.27832e-11 0)
(3 -5.95485e-14 0)
(3 -2.63035e-17 0)
(3 -2.24584e-15 0)
(3 -1.32407e-15 0)
(3 -2.20578e-15 0)
(3 -2.26854e-15 0)
(3 -1.79843e-15 0)
(3 -9.84623e-16 0)
(3 -1.41939e-16 0)
(3 7.03872e-16 0)
(3 2.52389e-16 0)
(3 -2.06406e-15 0)
(3 -2.34382e-15 0)
(3 -2.86603e-15 0)
(3 -5.84956e-17 0)
(1.6047 -1.29358 0)
(1.4795 -1.37345 0)
(2.18755 -0.806407 0)
(3.0107 0.00911325 0)
(3 -3.25283e-08 0)
(3 2.53185e-12 0)
(3 -1.93595e-14 0)
(3 -1.29079e-15 0)
(3 -2.19059e-15 0)
(3 -2.21749e-15 0)
(3 -2.2032e-15 0)
(3 -1.90614e-15 0)
(3 -6.8698e-16 0)
(3 -1.46325e-16 0)
(3 -2.60823e-16 0)
(3 -1.02001e-15 0)
(3 -1.31337e-15 0)
(3 -4.78741e-16 0)
(3 5.86907e-16 0)
(3 5.44599e-15 0)
(1.5904 -1.30857 0)
(1.46707 -1.36702 0)
(1.91062 -1.05112 0)
(2.84362 -0.133053 0)
(3 1.89353e-08 0)
(3 -7.39937e-12 0)
(3 3.9047e-14 0)
(3 -3.27446e-15 0)
(3 -1.97046e-15 0)
(3 -2.24793e-15 0)
(3 -2.21709e-15 0)
(3 -2.03648e-15 0)
(3 -4.06838e-16 0)
(3 -5.1223e-17 0)
(3 2.60448e-16 0)
(3 -9.07206e-18 0)
(3 -3.90952e-16 0)
(3 -2.47255e-16 0)
(3 3.70667e-15 0)
(3 5.93205e-15 0)
(1.58943 -1.32321 0)
(1.49695 -1.33149 0)
(1.77743 -1.17855 0)
(2.43919 -0.537638 0)
(3 1.86932e-05 0)
(3 9.09146e-12 0)
(3 -1.98102e-13 0)
(3 1.20097e-13 0)
(3 -2.14033e-14 0)
(3 -2.14096e-15 0)
(3 -2.30906e-15 0)
(3 -1.31011e-15 0)
(3 -1.14429e-16 0)
(3 7.49923e-17 0)
(3 3.07669e-16 0)
(3 3.51149e-17 0)
(3 5.62455e-16 0)
(3 7.22763e-16 0)
(3 4.95633e-15 0)
(3 5.90853e-15 0)
(1.57925 -1.29623 0)
(1.56142 -1.29606 0)
(1.67694 -1.24199 0)
(2.18133 -0.834209 0)
(3.0199 0.0208477 0)
(3 1.83946e-12 0)
(3 2.66321e-11 0)
(3 -3.0127e-11 0)
(3 3.35356e-12 0)
(3 -2.68714e-15 0)
(3 -3.32691e-15 0)
(3 -9.26349e-16 0)
(3 -3.93249e-16 0)
(3 -2.96593e-16 0)
(3 -1.02334e-16 0)
(3 1.17271e-16 0)
(3 1.98502e-15 0)
(3 3.32216e-15 0)
(3 5.32604e-15 0)
(3 5.34659e-15 0)
(1.58223 -1.27498 0)
(1.57854 -1.27155 0)
(1.63556 -1.26254 0)
(1.75152 -1.18054 0)
(2.671 -0.286037 0)
(3 5.9035e-10 0)
(3 -1.43376e-08 0)
(3 1.29643e-08 0)
(3 -5.63731e-10 0)
(3 -3.11017e-12 0)
(3 1.02508e-13 0)
(3 -7.07965e-16 0)
(3 -3.99868e-16 0)
(3 -5.59997e-16 0)
(3 -9.55833e-18 0)
(3 -1.90239e-18 0)
(3 3.59897e-15 0)
(3 4.28968e-15 0)
(3 5.27579e-15 0)
(3 4.57607e-15 0)
(1.58477 -1.2633 0)
(1.5942 -1.25979 0)
(1.62535 -1.25381 0)
(1.72708 -1.20266 0)
(2.37598 -0.628885 0)
(3.01898 0.0173355 0)
(2.99976 -0.000185666 0)
(3 4.40916e-06 0)
(3 -8.55912e-08 0)
(3 9.25193e-10 0)
(3 -2.08235e-13 0)
(3 -2.26004e-16 0)
(3 -2.61443e-16 0)
(3 -6.78245e-16 0)
(3 -3.35883e-16 0)
(3 2.29812e-16 0)
(3 3.90417e-15 0)
(3 4.14976e-15 0)
(3 4.65399e-15 0)
(3 4.381e-15 0)
(1.58602 -1.25297 0)
(1.60773 -1.25424 0)
(1.62368 -1.25224 0)
(1.64408 -1.26145 0)
(1.87856 -1.0708 0)
(2.7583 -0.206162 0)
(3.0051 0.00233034 0)
(2.9999 -9.21869e-05 0)
(3 9.19939e-07 0)
(3 -8.9902e-10 0)
(3 8.44592e-15 0)
(3 -6.08938e-16 0)
(3 -1.68143e-16 0)
(3 -3.16492e-16 0)
(3 3.40717e-17 0)
(3 -2.58246e-16 0)
(3 3.37175e-15 0)
(3 4.65407e-15 0)
(3 4.50241e-15 0)
(3 5.22082e-15 0)
(1.58756 -1.249 0)
(1.60601 -1.25453 0)
(1.61552 -1.2587 0)
(1.60341 -1.28648 0)
(1.67262 -1.23631 0)
(2.2054 -0.795447 0)
(2.99046 -0.00360435 0)
(3.00051 0.000979402 0)
(3 -7.45071e-07 0)
(3 -6.07104e-11 0)
(3 8.48754e-15 0)
(3 -1.06306e-15 0)
(3 -3.1106e-17 0)
(3 -5.81652e-17 0)
(3 -4.43825e-16 0)
(3 8.26994e-16 0)
(3 2.89648e-15 0)
(3 3.68469e-15 0)
(3 4.14084e-15 0)
(3 4.94225e-15 0)
(1.584 -1.25065 0)
(1.59437 -1.25865 0)
(1.59989 -1.27387 0)
(1.60146 -1.28374 0)
(1.65356 -1.26763 0)
(1.71216 -1.24106 0)
(2.25702 -0.758206 0)
(2.99406 -0.019619 0)
(3 -5.15266e-08 0)
(3 3.13043e-11 0)
(3 9.6414e-15 0)
(3 2.43844e-16 0)
(3 2.41332e-16 0)
(3 -7.23512e-16 0)
(3 -4.50177e-16 0)
(3 2.62237e-15 0)
(3 2.65645e-15 0)
(3 3.05188e-15 0)
(3 3.67971e-15 0)
(3 4.02713e-15 0)
(1.57651 -1.25842 0)
(1.58213 -1.26571 0)
(1.58635 -1.27273 0)
(1.59306 -1.26452 0)
(1.60576 -1.24657 0)
(1.59985 -1.26687 0)
(1.92013 -1.17004 0)
(2.98924 -0.373549 0)
(3.31042 0.565533 0)
(3 -6.45964e-11 0)
(3 7.77434e-11 0)
(3 -8.03944e-11 0)
(3 -3.99588e-15 0)
(3 4.24219e-13 0)
(3 1.29969e-14 0)
(3 -1.12861e-14 0)
(3 1.27505e-14 0)
(3 4.01122e-15 0)
(3 2.26089e-15 0)
(3 3.7164e-15 0)
(1.16426 -0.761946 0)
(1.82632 -1.15695 0)
(1.83804 -1.15886 0)
(1.72905 -1.2055 0)
(1.70485 -1.194 0)
(1.66485 -1.24063 0)
(1.66289 -1.21173 0)
(1.73314 -1.16594 0)
(1.76873 -1.22631 0)
(1.796 -1.13564 0)
(2.26504 -0.738809 0)
(2.85408 -0.211406 0)
(3.09855 0.0278094 0)
(3.02133 0.0127154 0)
(3.00423 0.00526587 0)
(3.00175 0.00290531 0)
(3.00006 0.000572285 0)
(2.99998 2.35498e-05 0)
(2.99999 -1.43854e-05 0)
(3 -5.91883e-06 0)
(0.985929 -0.0564243 0)
(1.91799 -0.726355 0)
(2.11422 -0.770584 0)
(1.99304 -0.941475 0)
(1.96186 -0.974807 0)
(1.85797 -1.09074 0)
(1.79531 -1.13435 0)
(1.7671 -1.14521 0)
(1.76369 -1.16246 0)
(1.73904 -1.20208 0)
(1.71349 -1.19608 0)
(1.85124 -1.07324 0)
(2.08995 -0.889918 0)
(2.50187 -0.581052 0)
(2.98816 -0.137389 0)
(3.07414 0.029347 0)
(3.00819 0.00772901 0)
(3.00293 0.00386046 0)
(3.00122 0.00220563 0)
(3.00008 0.000489464 0)
(1.09223 0.111926 0)
(1.95315 -0.523373 0)
(2.26179 -0.323046 0)
(2.22495 -0.480233 0)
(2.19298 -0.59955 0)
(2.14518 -0.741484 0)
(2.04394 -0.895847 0)
(1.96253 -0.983856 0)
(1.90673 -1.04464 0)
(1.84614 -1.1311 0)
(1.78665 -1.15889 0)
(1.78848 -1.15176 0)
(1.80886 -1.13113 0)
(1.85338 -1.08647 0)
(2.04482 -0.947675 0)
(2.25989 -0.827386 0)
(2.66059 -0.506666 0)
(3.03422 -0.094737 0)
(3.05507 0.02325 0)
(3.00399 0.00461859 0)
(1.00188 0.513249 0)
(1.53743 0.635414 0)
(2.27161 0.0881802 0)
(2.3691 -0.00226119 0)
(2.35672 -0.0380731 0)
(2.36413 -0.258885 0)
(2.27761 -0.520398 0)
(2.2125 -0.64602 0)
(2.14215 -0.749819 0)
(2.09028 -0.886822 0)
(1.9762 -0.994911 0)
(1.91944 -1.05093 0)
(1.88784 -1.07202 0)
(1.87159 -1.08495 0)
(1.8736 -1.05618 0)
(1.89624 -1.04971 0)
(1.95925 -1.02388 0)
(2.16165 -0.907345 0)
(2.38281 -0.793609 0)
(2.78194 -0.438723 0)
(0.89003 1.2607 0)
(1.3327 1.56479 0)
(1.96144 0.884819 0)
(2.48178 0.18032 0)
(2.50781 0.0304989 0)
(2.48045 0.144366 0)
(2.46957 -0.029594 0)
(2.40373 -0.28145 0)
(2.34921 -0.404941 0)
(2.31226 -0.568198 0)
(2.21807 -0.728789 0)
(2.13319 -0.850558 0)
(2.07198 -0.919834 0)
(2.01359 -0.981146 0)
(1.97736 -0.987712 0)
(1.95078 -0.999715 0)
(1.95372 -1.01869 0)
(1.97055 -0.994717 0)
(1.99659 -0.993753 0)
(2.07188 -0.976755 0)
(1.19129 1.44174 0)
(1.382 1.77554 0)
(1.82366 1.23688 0)
(1.98018 1.11517 0)
(2.334 0.696479 0)
(2.52097 0.228045 0)
(2.58473 0.120119 0)
(2.54911 -0.119178 0)
(2.49708 -0.229768 0)
(2.4611 -0.371395 0)
(2.39837 -0.520807 0)
(2.32377 -0.648357 0)
(2.27013 -0.718103 0)
(2.21287 -0.782642 0)
(2.17206 -0.797281 0)
(2.1331 -0.812854 0)
(2.0875 -0.856214 0)
(2.06739 -0.881261 0)
(2.0329 -0.931983 0)
(2.05742 -0.956333 0)
(1.3167 1.45826 0)
(1.52262 2.05673 0)
(1.76075 1.8109 0)
(1.9351 1.75085 0)
(2.22055 1.28973 0)
(2.37384 0.932851 0)
(2.49256 0.700664 0)
(2.56695 0.517543 0)
(2.5346 0.191597 0)
(2.54427 0.103898 0)
(2.52297 -0.0816206 0)
(2.48934 -0.219294 0)
(2.45671 -0.322556 0)
(2.4177 -0.412017 0)
(2.35795 -0.512981 0)
(2.33018 -0.562991 0)
(2.2487 -0.670982 0)
(2.19332 -0.744682 0)
(2.15977 -0.789577 0)
(2.14176 -0.791275 0)
(1.39704 1.47886 0)
(1.70389 2.13488 0)
(1.81934 2.07356 0)
(1.80664 1.98466 0)
(2.03094 1.68815 0)
(2.19699 1.42728 0)
(2.32394 1.19511 0)
(2.41308 0.982049 0)
(2.45658 0.761127 0)
(2.49905 0.58601 0)
(2.55627 0.385425 0)
(2.55922 0.158657 0)
(2.57489 -0.0107444 0)
(2.54696 -0.190324 0)
(2.48635 -0.373788 0)
(2.45115 -0.456727 0)
(2.38 -0.565638 0)
(2.36109 -0.526934 0)
(2.32008 -0.559683 0)
(2.32929 -0.512036 0)
(1.45687 1.41583 0)
(1.72445 1.97596 0)
(1.93027 2.18816 0)
(1.90961 2.09864 0)
(2.08209 1.7892 0)
(2.21741 1.57275 0)
(2.3535 1.36305 0)
(2.47418 1.10089 0)
(2.54368 0.987944 0)
(2.60116 0.681111 0)
(2.67491 0.48539 0)
(2.66187 0.214362 0)
(2.67408 0.065045 0)
(2.63696 -0.106795 0)
(2.59909 -0.217595 0)
(2.5634 -0.252377 0)
(2.53508 -0.24669 0)
(2.53264 -0.19063 0)
(2.45407 -0.314159 0)
(2.47077 -0.292852 0)
(1.4622 1.22142 0)
(1.54632 1.61959 0)
(1.82749 2.15483 0)
(2.0399 2.32515 0)
(2.30331 1.93138 0)
(2.40768 1.79092 0)
(2.60054 1.50007 0)
(2.73724 1.11738 0)
(2.79861 0.980162 0)
(2.7673 0.67723 0)
(2.76641 0.602822 0)
(2.74254 0.411081 0)
(2.73034 0.362224 0)
(2.71196 0.255337 0)
(2.683 0.186895 0)
(2.65198 0.1501 0)
(2.64191 0.123158 0)
(2.61885 0.0221809 0)
(2.55609 -0.159475 0)
(2.56505 -0.154584 0)
(1.44514 1.14872 0)
(1.42627 1.47082 0)
(1.62115 1.96463 0)
(1.89327 2.25531 0)
(2.35456 2.01253 0)
(2.50509 1.93649 0)
(2.59357 1.57679 0)
(2.59032 1.32274 0)
(2.62784 1.25217 0)
(2.65136 1.19791 0)
(2.64686 1.11368 0)
(2.66612 0.933138 0)
(2.64882 0.798873 0)
(2.68144 0.706086 0)
(2.67457 0.531456 0)
(2.69911 0.424944 0)
(2.71355 0.272062 0)
(2.6907 0.0757633 0)
(2.64787 -0.027748 0)
(2.61421 -0.0215249 0)
(1.4056 1.0877 0)
(1.3626 1.38988 0)
(1.48348 1.87309 0)
(1.59994 2.16951 0)
(1.96183 2.07082 0)
(2.1353 2.04644 0)
(2.27825 1.77193 0)
(2.35652 1.65272 0)
(2.37354 1.59691 0)
(2.39524 1.52893 0)
(2.47028 1.3321 0)
(2.55762 1.21794 0)
(2.59834 0.982169 0)
(2.71159 0.880496 0)
(2.71992 0.617938 0)
(2.76508 0.472128 0)
(2.7607 0.295703 0)
(2.74065 0.180622 0)
(2.69982 0.270145 0)
(2.65954 0.234275 0)
(1.41085 1.13012 0)
(1.41324 1.37055 0)
(1.42863 1.87156 0)
(1.4248 2.19205 0)
(1.69732 2.14844 0)
(1.83044 2.13494 0)
(2.03898 1.95196 0)
(2.12285 1.83016 0)
(2.20848 1.66399 0)
(2.32414 1.61525 0)
(2.44887 1.37648 0)
(2.62296 1.28335 0)
(2.67457 0.979566 0)
(2.76333 0.871268 0)
(2.77428 0.665292 0)
(2.76992 0.646137 0)
(2.76583 0.567313 0)
(2.74135 0.557042 0)
(2.72386 0.655916 0)
(2.69481 0.495832 0)
(1.49104 1.26321 0)
(1.53649 1.39038 0)
(1.49893 1.88499 0)
(1.38257 2.20219 0)
(1.5966 2.16346 0)
(1.75434 2.12042 0)
(1.936 1.97933 0)
(2.08299 1.85233 0)
(2.2302 1.70065 0)
(2.43931 1.61469 0)
(2.55095 1.38418 0)
(2.68555 1.27403 0)
(2.73116 1.15486 0)