/*--------------------------------*- C++ -*----------------------------------*\
  =========                 |
  \\      /  F ield         | OpenFOAM: The Open Source CFD Toolbox
   \\    /   O peration     | Website:  https://openfoam.org
    \\  /    A nd           | Version:  7
     \\/     M anipulation  |
\*---------------------------------------------------------------------------*/
FoamFile
{
    version     2.0;
    format      ascii;
    class       volScalarField;
    location    "1";
    object      p;
}
// * * * * * * * * * * * * * * * * * * * * * * * * * * * * * * * * * * * * * //

dimensions      [0 2 -2 0 0 0 0];

internalField   nonuniform List<scalar> 
12000
(
-0.408043
-0.383174
-0.360024
-0.341804
-0.326492
-0.313076
-0.301071
-0.290089
-0.279832
-0.270109
-0.260794
-0.25181
-0.243103
-0.234638
-0.22639
-0.218343
-0.210484
-0.202806
-0.195303
-0.18797
-0.180808
-0.173813
-0.166989
-0.160335
-0.153855
-0.147551
-0.141427
-0.135487
-0.129735
-0.124177
-0.118816
-0.113658
-0.108708
-0.103968
-0.0994435
-0.0951392
-0.0910528
-0.0871468
-0.0834258
-0.0803431
-0.345518
-0.348553
-0.339929
-0.328935
-0.317383
-0.305951
-0.295044
-0.284762
-0.275053
-0.265824
-0.256988
-0.248469
-0.240211
-0.232174
-0.224328
-0.216653
-0.209136
-0.201769
-0.194547
-0.187467
-0.180529
-0.173734
-0.167085
-0.160585
-0.154238
-0.148049
-0.142023
-0.136166
-0.130485
-0.124985
-0.119673
-0.114555
-0.109636
-0.104923
-0.100421
-0.0961358
-0.0920658
-0.0881631
-0.0844406
-0.0814869
-0.328101
-0.333861
-0.33204
-0.3265
-0.318686
-0.309596
-0.300004
-0.290362
-0.280889
-0.271671
-0.262729
-0.25405
-0.245609
-0.237384
-0.229352
-0.221496
-0.213804
-0.206268
-0.198882
-0.191643
-0.18455
-0.177604
-0.170807
-0.164162
-0.157672
-0.151344
-0.14518
-0.139188
-0.133374
-0.127742
-0.122301
-0.117056
-0.112013
-0.107178
-0.102558
-0.0981614
-0.0939855
-0.0899619
-0.0861086
-0.0833047
-0.313768
-0.319648
-0.320533
-0.318441
-0.313908
-0.307535
-0.299992
-0.291796
-0.283296
-0.274711
-0.266167
-0.257731
-0.249432
-0.241282
-0.233282
-0.225429
-0.21772
-0.210151
-0.202722
-0.19543
-0.188277
-0.181265
-0.174397
-0.167675
-0.161104
-0.15469
-0.148437
-0.142351
-0.136439
-0.130708
-0.125163
-0.119811
-0.114659
-0.109713
-0.10498
-0.100474
-0.0961897
-0.0920282
-0.0880036
-0.0854107
-0.302829
-0.308045
-0.310027
-0.309854
-0.307572
-0.303418
-0.29783
-0.291232
-0.283975
-0.276323
-0.268463
-0.260521
-0.252577
-0.24468
-0.236859
-0.229131
-0.221506
-0.213992
-0.206593
-0.199313
-0.192155
-0.185125
-0.178225
-0.171462
-0.164841
-0.158366
-0.152045
-0.145883
-0.139887
-0.134064
-0.128421
-0.122966
-0.117704
-0.112643
-0.10779
-0.103164
-0.0987606
-0.0944389
-0.090198
-0.0878438
-0.294532
-0.299042
-0.30139
-0.302174
-0.301282
-0.298731
-0.294746
-0.289615
-0.283619
-0.277007
-0.269979
-0.262689
-0.255249
-0.247738
-0.240212
-0.232708
-0.225252
-0.217862
-0.210553
-0.203335
-0.196215
-0.189202
-0.182303
-0.175525
-0.168874
-0.162358
-0.155982
-0.149755
-0.143684
-0.137775
-0.132038
-0.126479
-0.121105
-0.115925
-0.110947
-0.106194
-0.101664
-0.0971674
-0.092678
-0.0905804
-0.287322
-0.29147
-0.293961
-0.295256
-0.295238
-0.293819
-0.291085
-0.287205
-0.282379
-0.276808
-0.270673
-0.264131
-0.257306
-0.250294
-0.24317
-0.235987
-0.228787
-0.221599
-0.214447
-0.207348
-0.200317
-0.193366
-0.186505
-0.179744
-0.173091
-0.166556
-0.160145
-0.153869
-0.147735
-0.141751
-0.135925
-0.130268
-0.124786
-0.119487
-0.114384
-0.109504
-0.104845
-0.100168
-0.0954094
-0.0935704
-0.28054
-0.284634
-0.287272
-0.288917
-0.289502
-0.288905
-0.28714
-0.284296
-0.280502
-0.275907
-0.27066
-0.264902
-0.258755
-0.252319
-0.245678
-0.238898
-0.232031
-0.225116
-0.218185
-0.211264
-0.204372
-0.197527
-0.190743
-0.184032
-0.177407
-0.170877
-0.164453
-0.158144
-0.151961
-0.145913
-0.140009
-0.134259
-0.128674
-0.123261
-0.118035
-0.113029
-0.108245
-0.10339
-0.0983498
-0.0967537
-0.273778
-0.278066
-0.280927
-0.282895
-0.283965
-0.284014
-0.283025
-0.281043
-0.278148
-0.274442
-0.270042
-0.265064
-0.259619
-0.253804
-0.247704
-0.241389
-0.234917
-0.228337
-0.221686
-0.214996
-0.208293
-0.201598
-0.194931
-0.188305
-0.181737
-0.175239
-0.168822
-0.162499
-0.156282
-0.150181
-0.144207
-0.138374
-0.132691
-0.12717
-0.121825
-0.116698
-0.111794
-0.106768
-0.101442
-0.100058
-0.266731
-0.271427
-0.274605
-0.276927
-0.278451
-0.279061
-0.278733
-0.277492
-0.275386
-0.272487
-0.268879
-0.264658
-0.259916
-0.254743
-0.249218
-0.243413
-0.237387
-0.231193
-0.224874
-0.218465
-0.211997
-0.205496
-0.198983
-0.192478
-0.185997
-0.179557
-0.173171
-0.166852
-0.160616
-0.154474
-0.148441
-0.142531
-0.136756
-0.131131
-0.125671
-0.120429
-0.11541
-0.110224
-0.104614
-0.103396
-0.2592
-0.264489
-0.268071
-0.270801
-0.27279
-0.27393
-0.274203
-0.273625
-0.272231
-0.270069
-0.267202
-0.263704
-0.259654
-0.255127
-0.250197
-0.244931
-0.239389
-0.233624
-0.227679
-0.221596
-0.215407
-0.20914
-0.202821
-0.19647
-0.190109
-0.183754
-0.177421
-0.171128
-0.164888
-0.158718
-0.152634
-0.146652
-0.14079
-0.135062
-0.12949
-0.124132
-0.119004
-0.113667
-0.107775
-0.106665
-0.251068
-0.25711
-0.261172
-0.264362
-0.266845
-0.268514
-0.269358
-0.269399
-0.268663
-0.267185
-0.265014
-0.262207
-0.258829
-0.254944
-0.250617
-0.245909
-0.240877
-0.235572
-0.23004
-0.22432
-0.218449
-0.212455
-0.206367
-0.200208
-0.193998
-0.187757
-0.181504
-0.175256
-0.169031
-0.162845
-0.156717
-0.150668
-0.144718
-0.138884
-0.133195
-0.127716
-0.122476
-0.116993
-0.110819
-0.109746
-0.242299
-0.24923
-0.253824
-0.257517
-0.260523
-0.262727
-0.264131
-0.264763
-0.264648
-0.263815
-0.262301
-0.260155
-0.257427
-0.254173
-0.250448
-0.246308
-0.241804
-0.236984
-0.231894
-0.226572
-0.221055
-0.215372
-0.209552
-0.203619
-0.197596
-0.191503
-0.185358
-0.17918
-0.172988
-0.1668
-0.160638
-0.154523
-0.14848
-0.142532
-0.13671
-0.131094
-0.125726
-0.120089
-0.113618
-0.112493
-0.232945
-0.240872
-0.246021
-0.25024
-0.253784
-0.256526
-0.258479
-0.259681
-0.260159
-0.259937
-0.259049
-0.257533
-0.255432
-0.252794
-0.249665
-0.246094
-0.242128
-0.237812
-0.233188
-0.228292
-0.22316
-0.217823
-0.212309
-0.206641
-0.200841
-0.194931
-0.188928
-0.182852
-0.176719
-0.170549
-0.164364
-0.158186
-0.152044
-0.145963
-0.139982
-0.134194
-0.12866
-0.122838
-0.116027
-0.114732
-0.22315
-0.232151
-0.237838
-0.242577
-0.246652
-0.249916
-0.252398
-0.254145
-0.255185
-0.255542
-0.255245
-0.254329
-0.25283
-0.250787
-0.248242
-0.245236
-0.241812
-0.23801
-0.233868
-0.229422
-0.224705
-0.219746
-0.214573
-0.209208
-0.203674
-0.197988
-0.192169
-0.186233
-0.180195
-0.174073
-0.167886
-0.161656
-0.15541
-0.149176
-0.142998
-0.136981
-0.131213
-0.125135
-0.117893
-0.116263
-0.21317
-0.223293
-0.229427
-0.23463
-0.239183
-0.242921
-0.245887
-0.248137
-0.2497
-0.250596
-0.250852
-0.250501
-0.249574
-0.248103
-0.246125
-0.243675
-0.240791
-0.237508
-0.233861
-0.229884
-0.225606
-0.221056
-0.21626
-0.211239
-0.206013
-0.200601
-0.195016
-0.189272
-0.183381
-0.177356
-0.171208
-0.164956
-0.158619
-0.152223
-0.145806
-0.139485
-0.133377
-0.126913
-0.119066
-0.116822
-0.203546
-0.214689
-0.221139
-0.226706
-0.231615
-0.235715
-0.23907
-0.241748
-0.243773
-0.245152
-0.245912
-0.246081
-0.245687
-0.244757
-0.243321
-0.241409
-0.239054
-0.236288
-0.23314
-0.229642
-0.225822
-0.221705
-0.217317
-0.212677
-0.207805
-0.202716
-0.197422
-0.191934
-0.186259
-0.180402
-0.174366
-0.168157
-0.16178
-0.155246
-0.148577
-0.141881
-0.135298
-0.128254
-0.119482
-0.116116
-0.19591
-0.206899
-0.213854
-0.219639
-0.224763
-0.229064
-0.23264
-0.235625
-0.238006
-0.239768
-0.240932
-0.241535
-0.2416
-0.241145
-0.240195
-0.238775
-0.236911
-0.234631
-0.231961
-0.22893
-0.225561
-0.22188
-0.217909
-0.213668
-0.209176
-0.204446
-0.199491
-0.194317
-0.188929
-0.183325
-0.177499
-0.171439
-0.165133
-0.158557
-0.151695
-0.144616
-0.137466
-0.129623
-0.119376
-0.114001
-0.191868
-0.20035
-0.206326
-0.211486
-0.216866
-0.221291
-0.224953
-0.228006
-0.230687
-0.232774
-0.234286
-0.235285
-0.235785
-0.235794
-0.235328
-0.234407
-0.23305
-0.231279
-0.229117
-0.226587
-0.223712
-0.220514
-0.217014
-0.213232
-0.209186
-0.204892
-0.20036
-0.195601
-0.190618
-0.185408
-0.179959
-0.174251
-0.168249
-0.161892
-0.155098
-0.147864
-0.140265
-0.131409
-0.11866
-0.109378
-0.196317
-0.197421
-0.199244
-0.202347
-0.205971
-0.209695
-0.213517
-0.215627
-0.218896
-0.221432
-0.223401
-0.224919
-0.225979
-0.226578
-0.226723
-0.226428
-0.225705
-0.224572
-0.223045
-0.221144
-0.21889
-0.216302
-0.213399
-0.210203
-0.206731
-0.203001
-0.199029
-0.194827
-0.190405
-0.185768
-0.180912
-0.175826
-0.170477
-0.164795
-0.158667
-0.152016
-0.144692
-0.135185
-0.119782
-0.105067
-0.252568
-0.242601
-0.238505
-0.237235
-0.237252
-0.238076
-0.239304
-0.240487
-0.241723
-0.242712
-0.243453
-0.243904
-0.244018
-0.243778
-0.243176
-0.242207
-0.240876
-0.239187
-0.237151
-0.23478
-0.232087
-0.229087
-0.225797
-0.222232
-0.21841
-0.214349
-0.210063
-0.205572
-0.200892
-0.196038
-0.191029
-0.185883
-0.180616
-0.175245
-0.169798
-0.164355
-0.158962
-0.153263
-0.146821
-0.141859
-0.251096
-0.244793
-0.240641
-0.23837
-0.23726
-0.237011
-0.237337
-0.237965
-0.238698
-0.239419
-0.240027
-0.240439
-0.2406
-0.240475
-0.240042
-0.239285
-0.238198
-0.236778
-0.235029
-0.232957
-0.230571
-0.227883
-0.224906
-0.221655
-0.218146
-0.214394
-0.210419
-0.206237
-0.201868
-0.197331
-0.192649
-0.187844
-0.182944
-0.177982
-0.173004
-0.168078
-0.163263
-0.158694
-0.154852
-0.15154
-0.248638
-0.245658
-0.243093
-0.241156
-0.239818
-0.239068
-0.238797
-0.238852
-0.239098
-0.23942
-0.239714
-0.239901
-0.239919
-0.239722
-0.239276
-0.238556
-0.237546
-0.236238
-0.234626
-0.232713
-0.230501
-0.227999
-0.225217
-0.222165
-0.218858
-0.215311
-0.211542
-0.207567
-0.203408
-0.199086
-0.194625
-0.190051
-0.185395
-0.180693
-0.175992
-0.171334
-0.166774
-0.162562
-0.159143
-0.155117
-0.248551
-0.246878
-0.245176
-0.243658
-0.24241
-0.241496
-0.240903
-0.240569
-0.240415
-0.240359
-0.240322
-0.240234
-0.240036
-0.23968
-0.239127
-0.238348
-0.23732
-0.236029
-0.234465
-0.232623
-0.230504
-0.22811
-0.225448
-0.222526
-0.219356
-0.215952
-0.212329
-0.208504
-0.204497
-0.20033
-0.196027
-0.191614
-0.187123
-0.182589
-0.178054
-0.173547
-0.169118
-0.165033
-0.16163
-0.156991
-0.248384
-0.247196
-0.24594
-0.244768
-0.243711
-0.242823
-0.242124
-0.2416
-0.241209
-0.2409
-0.24062
-0.240312
-0.239927
-0.239421
-0.238756
-0.237901
-0.236832
-0.235531
-0.233985
-0.232184
-0.230125
-0.227808
-0.225235
-0.222414
-0.219353
-0.216062
-0.212557
-0.208853
-0.204968
-0.200922
-0.196739
-0.192442
-0.188062
-0.18363
-0.17918
-0.174731
-0.170325
-0.166222
-0.162692
-0.157627
-0.248246
-0.247257
-0.246241
-0.245289
-0.244387
-0.243564
-0.242847
-0.242233
-0.241704
-0.241229
-0.240771
-0.24029
-0.239746
-0.239101
-0.238322
-0.237379
-0.236249
-0.234911
-0.233351
-0.231557
-0.229524
-0.227248
-0.224729
-0.221973
-0.218984
-0.215773
-0.212351
-0.208733
-0.204934
-0.200974
-0.196873
-0.192653
-0.18834
-0.183963
-0.179547
-0.175106
-0.170673
-0.166494
-0.1628
-0.157434
-0.24814
-0.24721
-0.246296
-0.245459
-0.244648
-0.243876
-0.24316
-0.242501
-0.241887
-0.2413
-0.240713
-0.240097
-0.23942
-0.238652
-0.237764
-0.23673
-0.235526
-0.234134
-0.232538
-0.230725
-0.228689
-0.226424
-0.223929
-0.221205
-0.218258
-0.215095
-0.211725
-0.208161
-0.204418
-0.200511
-0.19646
-0.192284
-0.188006
-0.183651
-0.17924
-0.174779
-0.170299
-0.166031
-0.162178
-0.156613
-0.24798
-0.247038
-0.24615
-0.245356
-0.244586
-0.243836
-0.243116
-0.242425
-0.241752
-0.241083
-0.240399
-0.239676
-0.23889
-0.238015
-0.237027
-0.235902
-0.234621
-0.233164
-0.231517
-0.229667
-0.227606
-0.225329
-0.222831
-0.220115
-0.217182
-0.214039
-0.210693
-0.207156
-0.203441
-0.199561
-0.195534
-0.191377
-0.18711
-0.182754
-0.178328
-0.173835
-0.169301
-0.164946
-0.160948
-0.155262
-0.247726
-0.246737
-0.24583
-0.245036
-0.244267
-0.243512
-0.242774
-0.242048
-0.241323
-0.240586
-0.239821
-0.239008
-0.238127
-0.237157
-0.236076
-0.234864
-0.233503
-0.231975
-0.230267
-0.228366
-0.226264
-0.223954
-0.221434
-0.218702
-0.21576
-0.212614
-0.209269
-0.205736
-0.202025
-0.19815
-0.194125
-0.189966
-0.185692
-0.18132
-0.176867
-0.172336
-0.16775
-0.163313
-0.159186
-0.153439
-0.247361
-0.246301
-0.245347
-0.244523
-0.243727
-0.242943
-0.24217
-0.2414
-0.24062
-0.239819
-0.238979
-0.238085
-0.237117
-0.236058
-0.234889
-0.233591
-0.232148
-0.230544
-0.228766
-0.226803
-0.224647
-0.22229
-0.219729
-0.216964
-0.213994
-0.210825
-0.207461
-0.203911
-0.200186
-0.196296
-0.192256
-0.18808
-0.183784
-0.179386
-0.1749
-0.170327
-0.165692
-0.161183
-0.156943
-0.151179
-0.24687
-0.245724
-0.244704
-0.243828
-0.242984
-0.242152
-0.241328
-0.240503
-0.239662
-0.238791
-0.237877
-0.236902
-0.235851
-0.234705
-0.233448
-0.232064
-0.230536
-0.228852
-0.226998
-0.224964
-0.222742
-0.220325
-0.21771
-0.214895
-0.211882
-0.208672
-0.205272
-0.20169
-0.197933
-0.194014
-0.189945
-0.185739
-0.181412
-0.176979
-0.172455
-0.167842
-0.163162
-0.158589
-0.15425
-0.148502
-0.246248
-0.245002
-0.243902
-0.242957
-0.242048
-0.241152
-0.240263
-0.23937
-0.238458
-0.237513
-0.236519
-0.235462
-0.234324
-0.23309
-0.231744
-0.23027
-0.228655
-0.226885
-0.224948
-0.222835
-0.220537
-0.218049
-0.215368
-0.212491
-0.209419
-0.206156
-0.202706
-0.199076
-0.195276
-0.191315
-0.187205
-0.182959
-0.178593
-0.174121
-0.169556
-0.164902
-0.160182
-0.155553
-0.151126
-0.145421
-0.245487
-0.244132
-0.242939
-0.241913
-0.240925
-0.23995
-0.238983
-0.238011
-0.237018
-0.235989
-0.23491
-0.233763
-0.232534
-0.231208
-0.229768
-0.2282
-0.226492
-0.22463
-0.222603
-0.220403
-0.218021
-0.215452
-0.212694
-0.209743
-0.206602
-0.203273
-0.199761
-0.196073
-0.192217
-0.188204
-0.184044
-0.179752
-0.17534
-0.170824
-0.166218
-0.161525
-0.156768
-0.152089
-0.147583
-0.14194
-0.244584
-0.243112
-0.241817
-0.240699
-0.23962
-0.238555
-0.237497
-0.236433
-0.235348
-0.234226
-0.233052
-0.231808
-0.230481
-0.229055
-0.227516
-0.225848
-0.22404
-0.222079
-0.219955
-0.217659
-0.215184
-0.212526
-0.20968
-0.206646
-0.203426
-0.20002
-0.196436
-0.19268
-0.188759
-0.184685
-0.180469
-0.176123
-0.171661
-0.1671
-0.16245
-0.15772
-0.15293
-0.148206
-0.14363
-0.138064
-0.243537
-0.241944
-0.24054
-0.239319
-0.238138
-0.23697
-0.235809
-0.234643
-0.233454
-0.232228
-0.230948
-0.229599
-0.228165
-0.226631
-0.224983
-0.223208
-0.221292
-0.219224
-0.216995
-0.214595
-0.212019
-0.209262
-0.20632
-0.203194
-0.199884
-0.196393
-0.192728
-0.188894
-0.184902
-0.18076
-0.17648
-0.172076
-0.167562
-0.162951
-0.158259
-0.153492
-0.148673
-0.143908
-0.139269
-0.133791
-0.242345
-0.240628
-0.23911
-0.237779
-0.236485
-0.235201
-0.233925
-0.232643
-0.231338
-0.229995
-0.228598
-0.227131
-0.22558
-0.223929
-0.222164
-0.220272
-0.218239
-0.216056
-0.213713
-0.211201
-0.208515
-0.20565
-0.202603
-0.199376
-0.195968
-0.192385
-0.18863
-0.184713
-0.180641
-0.176425
-0.172078
-0.167612
-0.163041
-0.158381
-0.153646
-0.148844
-0.143997
-0.139197
-0.134499
-0.12912
-0.241016
-0.239182
-0.237548
-0.236096
-0.234676
-0.233263
-0.231857
-0.230444
-0.229008
-0.227535
-0.226008
-0.224412
-0.222732
-0.220952
-0.219059
-0.21704
-0.214881
-0.212573
-0.210106
-0.207473
-0.204668
-0.201686
-0.198527
-0.195189
-0.191676
-0.187991
-0.184141
-0.180132
-0.175975
-0.171681
-0.167261
-0.16273
-0.158101
-0.15339
-0.148611
-0.143776
-0.138904
-0.134071
-0.129321
-0.124047
-0.239566
-0.237644
-0.235905
-0.234324
-0.232763
-0.231205
-0.229652
-0.228092
-0.226511
-0.224892
-0.223221
-0.221483
-0.219661
-0.217741
-0.215708
-0.21355
-0.211254
-0.20881
-0.206209
-0.203444
-0.200508
-0.1974
-0.194117
-0.19066
-0.187031
-0.183236
-0.179281
-0.175173
-0.170924
-0.166544
-0.162046
-0.157444
-0.152753
-0.147988
-0.143165
-0.138295
-0.133399
-0.128534
-0.123735
-0.118573
-0.237919
-0.235919
-0.234059
-0.232318
-0.230583
-0.22885
-0.227122
-0.225391
-0.223641
-0.221858
-0.220027
-0.21813
-0.216153
-0.21408
-0.211898
-0.209592
-0.20715
-0.204564
-0.201822
-0.19892
-0.195851
-0.192612
-0.189203
-0.185625
-0.18188
-0.177975
-0.173915
-0.16971
-0.165371
-0.160909
-0.156337
-0.15167
-0.146922
-0.142111
-0.13725
-0.132354
-0.127442
-0.122555
-0.117717
-0.112675
-0.236542
-0.234194
-0.232018
-0.229995
-0.228
-0.226025
-0.224072
-0.222129
-0.220179
-0.218206
-0.216191
-0.214119
-0.211972
-0.209735
-0.207393
-0.204932
-0.202342
-0.19961
-0.196728
-0.19369
-0.190491
-0.187128
-0.1836
-0.179908
-0.176057
-0.172051
-0.167899
-0.16361
-0.159194
-0.154663
-0.150033
-0.145316
-0.140528
-0.135685
-0.130804
-0.125899
-0.120988
-0.116094
-0.111231
-0.106326
-0.239409
-0.236137
-0.233504
-0.231232
-0.229043
-0.226898
-0.224788
-0.222689
-0.22058
-0.218438
-0.216245
-0.213982
-0.211633
-0.209182
-0.206613
-0.203915
-0.201075
-0.198084
-0.194934
-0.19162
-0.188138
-0.184488
-0.18067
-0.176687
-0.172546
-0.168253
-0.163817
-0.159251
-0.154567
-0.149779
-0.144902
-0.139952
-0.134945
-0.129899
-0.12483
-0.119756
-0.114694
-0.109648
-0.104616
-0.0997135
-0.237788
-0.234116
-0.23114
-0.228553
-0.226069
-0.223647
-0.221275
-0.218928
-0.216581
-0.21421
-0.211796
-0.209318
-0.20676
-0.204105
-0.201338
-0.198446
-0.195418
-0.192244
-0.188917
-0.185432
-0.181785
-0.177977
-0.174009
-0.169884
-0.16561
-0.161193
-0.156645
-0.151977
-0.147202
-0.142335
-0.137392
-0.132389
-0.127342
-0.122269
-0.117186
-0.112114
-0.107067
-0.102031
-0.0969947
-0.0922658
-0.235631
-0.231777
-0.228651
-0.225866
-0.22316
-0.220514
-0.21792
-0.215353
-0.21279
-0.210206
-0.207581
-0.204895
-0.202132
-0.199273
-0.196305
-0.193213
-0.189988
-0.186619
-0.1831
-0.179425
-0.175594
-0.171606
-0.167463
-0.16317
-0.158735
-0.154167
-0.149476
-0.144675
-0.139779
-0.134803
-0.129763
-0.124677
-0.119561
-0.114433
-0.10931
-0.104213
-0.0991558
-0.0941069
-0.0890425
-0.0844473
-0.233378
-0.229279
-0.226007
-0.22303
-0.220108
-0.217241
-0.214424
-0.211633
-0.208844
-0.206034
-0.203184
-0.200275
-0.197287
-0.194206
-0.191015
-0.187703
-0.184259
-0.180673
-0.176941
-0.173057
-0.169021
-0.164833
-0.160498
-0.156021
-0.15141
-0.146676
-0.141831
-0.136888
-0.131864
-0.126773
-0.121634
-0.116463
-0.111279
-0.106098
-0.100938
-0.0958226
-0.0907638
-0.0857126
-0.080632
-0.0761827
-0.230966
-0.226516
-0.223088
-0.219912
-0.216765
-0.21367
-0.210623
-0.207601
-0.204578
-0.201534
-0.198449
-0.195304
-0.192081
-0.188764
-0.185338
-0.181793
-0.178116
-0.174301
-0.170342
-0.166237
-0.161984
-0.157586
-0.153048
-0.148378
-0.143584
-0.138678
-0.133674
-0.128586
-0.123431
-0.118226
-0.112988
-0.107736
-0.102487
-0.0972586
-0.0920696
-0.086943
-0.0818925
-0.0768539
-0.0717723
-0.0674735
-0.228423
-0.223519
-0.219939
-0.216559
-0.213177
-0.209846
-0.206562
-0.203299
-0.200034
-0.196745
-0.193413
-0.190019
-0.186546
-0.182979
-0.179303
-0.175508
-0.171583
-0.167522
-0.163321
-0.158978
-0.154493
-0.149871
-0.145118
-0.140242
-0.135255
-0.130169
-0.124999
-0.119761
-0.114473
-0.109151
-0.103815
-0.0984827
-0.0931725
-0.0879013
-0.082688
-0.0775574
-0.0725263
-0.0675206
-0.0624449
-0.0582282
-0.225662
-0.220354
-0.216587
-0.212982
-0.209355
-0.205778
-0.202246
-0.198732
-0.195212
-0.191665
-0.188072
-0.184414
-0.180675
-0.17684
-0.172896
-0.168832
-0.16464
-0.160314
-0.155852
-0.151253
-0.146519
-0.141657
-0.136675
-0.131581
-0.12639
-0.121116
-0.115773
-0.110381
-0.104957
-0.099518
-0.0940847
-0.0886765
-0.0833105
-0.0780022
-0.0727708
-0.0676422
-0.0626215
-0.0576566
-0.0525482
-0.0480547
-0.222658
-0.21704
-0.213036
-0.209182
-0.205304
-0.201472
-0.197681
-0.193903
-0.190114
-0.186294
-0.182423
-0.178483
-0.174459
-0.170335
-0.166101
-0.161746
-0.157265
-0.152652
-0.147908
-0.143032
-0.138032
-0.132912
-0.127684
-0.12236
-0.116955
-0.111483
-0.105962
-0.100412
-0.094854
-0.0893048
-0.0837831
-0.0783134
-0.0729093
-0.0675781
-0.0623713
-0.0573052
-0.0522056
-0.0472972
-0.0422415
-0.0382821
-0.21938
-0.213621
-0.209296
-0.205156
-0.201023
-0.196935
-0.192875
-0.18882
-0.184748
-0.180636
-0.176467
-0.172223
-0.16789
-0.163453
-0.158903
-0.154231
-0.149434
-0.144509
-0.139457
-0.134282
-0.128991
-0.123595
-0.118103
-0.112531
-0.1069
-0.10123
-0.095536
-0.0898335
-0.0841523
-0.0784915
-0.0729039
-0.0674057
-0.0619541
-0.0564771
-0.0513089
-0.046265
-0.0413508
-0.0364728
-0.0314689
-0.0278334
-0.215977
-0.209971
-0.205408
-0.200936
-0.196512
-0.192171
-0.187827
-0.183491
-0.17912
-0.174699
-0.17021
-0.165635
-0.160962
-0.156181
-0.151283
-0.146262
-0.141116
-0.135846
-0.130456
-0.124954
-0.11935
-0.113656
-0.107885
-0.102048
-0.096192
-0.0903556
-0.0844444
-0.0786502
-0.0728914
-0.0669404
-0.0612588
-0.0557223
-0.0502761
-0.044945
-0.039776
-0.0347761
-0.0299532
-0.0251547
-0.0202324
-0.0168505
-0.212407
-0.206121
-0.20122
-0.196568
-0.191915
-0.187274
-0.182512
-0.177909
-0.173241
-0.168484
-0.163642
-0.158708
-0.153659
-0.148494
-0.143209
-0.137803
-0.132274
-0.126625
-0.120864
-0.115004
-0.109066
-0.103073
-0.0970087
-0.0909035
-0.0848681
-0.079068
-0.0722601
-0.0665292
-0.0606643
-0.054799
-0.0490735
-0.0434878
-0.0380432
-0.0327576
-0.0276471
-0.0227359
-0.0180272
-0.0133457
-0.00853399
-0.00540823
-0.208654
-0.202084
-0.196879
-0.191967
-0.18703
-0.18211
-0.177177
-0.172235
-0.167249
-0.16204
-0.156718
-0.151409
-0.14595
-0.140357
-0.134646
-0.128817
-0.122855
-0.116792
-0.110634
-0.104392
-0.0981078
-0.0918298
-0.0852972
-0.078796
-0.0724986
-0.0662467
-0.059956
-0.053848
-0.0478255
-0.0419131
-0.0361547
-0.0305684
-0.0251637
-0.0199505
-0.01494
-0.0101553
-0.00559541
-0.00106603
0.00360298
0.00645707
-0.204707
-0.197855
-0.192384
-0.187238
-0.182052
-0.176852
-0.171618
-0.166308
-0.160895
-0.15535
-0.149676
-0.143879
-0.137942
-0.131873
-0.125681
-0.119339
-0.112706
-0.106098
-0.0994918
-0.0928335
-0.0861391
-0.0794399
-0.0727326
-0.0660675
-0.0594772
-0.052963
-0.0465594
-0.0402924
-0.0341816
-0.0282423
-0.0224949
-0.0169552
-0.011633
-0.00653487
-0.00166801
0.00294698
0.00731539
0.0116497
0.0161351
0.0186975
-0.200547
-0.193445
-0.187758
-0.182428
-0.177034
-0.171576
-0.166023
-0.160329
-0.154468
-0.148431
-0.142221
-0.135841
-0.129302
-0.122616
-0.115802
-0.108879
-0.101853
-0.0947762
-0.0876641
-0.0805297
-0.0733987
-0.0662984
-0.0592574
-0.0523045
-0.0454654
-0.0387621
-0.0322205
-0.0258651
-0.0197149
-0.0137857
-0.00809262
-0.00264749
0.00254214
0.00747356
0.0121438
0.0165358
0.0206602
0.0247462
0.0289962
0.0312438
-0.196124
-0.188871
-0.183081
-0.177662
-0.172117
-0.16641
-0.160504
-0.154358
-0.147957
-0.141313
-0.134446
-0.127381
-0.120145
-0.112766
-0.105273
-0.0976924
-0.0900565
-0.0823956
-0.0747375
-0.0671091
-0.0595391
-0.0520559
-0.0446884
-0.0374656
-0.0304145
-0.0235593
-0.0169231
-0.0105272
-0.00438933
0.00147631
0.00705815
0.0123481
0.0173425
0.0220428
0.0264509
0.0305544
0.0343691
0.0381384
0.042084
0.0439878
-0.191287
-0.184149
-0.17847
-0.173125
-0.167503
-0.16153
-0.15518
-0.148441
-0.141335
-0.133908
-0.126214
-0.118305
-0.11023
-0.102034
-0.0937581
-0.0854398
-0.0771161
-0.0688228
-0.060593
-0.052458
-0.0444487
-0.0365949
-0.0289258
-0.0214693
-0.0142513
-0.00729485
-0.000620763
0.00575285
0.0118113
0.0175433
0.0229413
0.0280013
0.0327237
0.0371143
0.0411796
0.0449125
0.0483333
0.0516933
0.0552353
0.0567552
-0.186068
-0.179651
-0.174414
-0.169328
-0.16365
-0.15728
-0.150262
-0.142663
-0.134576
-0.126108
-0.117355
-0.108403
-0.0993223
-0.0901744
-0.0810101
-0.0718746
-0.0628098
-0.0538541
-0.0450425
-0.0364078
-0.0279813
-0.0197921
-0.0118676
-0.0042341
0.00308548
0.0100722
0.0167079
0.0229787
0.0288743
0.034388
0.0395161
0.044259
0.0486211
0.0526115
0.0562412
0.0595083
0.0624354
0.065266
0.0682577
0.069335
-0.180842
-0.17666
-0.172581
-0.167823
-0.161831
-0.154625
-0.146429
-0.13747
-0.127953
-0.118056
-0.107923
-0.0976658
-0.0873712
-0.0771084
-0.0669332
-0.0568929
-0.047031
-0.037385
-0.0279872
-0.018869
-0.0100589
-0.00158163
0.00653913
0.0142789
0.0216205
0.028554
0.0350656
0.0411428
0.0467822
0.0519839
0.0567495
0.0610834
0.0649936
0.0684915
0.0715909
0.0742955
0.0766217
0.0787587
0.0809239
0.0813771
-0.171308
-0.173082
-0.171421
-0.166699
-0.15967
-0.150878
-0.140853
-0.13003
-0.118729
-0.107175
-0.0955306
-0.0839097
-0.0723993
-0.0610621
-0.0499498
-0.0391068
-0.0285741
-0.0183822
-0.00855037
0.000889997
0.00991634
0.0185156
0.0266708
0.0343511
0.0415403
0.0482469
0.054483
0.0602316
0.065483
0.0702436
0.0745219
0.0783249
0.0816591
0.0845303
0.0869445
0.088898
0.090362
0.0913489
0.0919139
0.0911265
-0.164335
-0.171718
-0.169768
-0.162596
-0.152707
-0.141191
-0.12874
-0.115836
-0.102782
-0.0897653
-0.0769021
-0.0642796
-0.0519872
-0.0400328
-0.0284277
-0.0172043
-0.00640781
0.00393906
0.0138433
0.0232654
0.0321639
0.0405523
0.0484426
0.0557827
0.0625408
0.0688553
0.0745728
0.0797901
0.0844941
0.0886653
0.0923144
0.0954501
0.0980699
0.10016
0.1017
0.102654
0.10287
0.101978
0.0999227
0.0976404
-0.26598
-0.250432
-0.235993
-0.219113
-0.200726
-0.181853
-0.162897
-0.144101
-0.125642
-0.107641
-0.0901684
-0.0732738
-0.0570098
-0.0414134
-0.0264984
-0.0122841
0.00115478
0.0137946
0.0257038
0.0368816
0.0472113
0.0567785
0.0656451
0.0735743
0.0805961
0.0881801
0.0940633
0.0990954
0.103606
0.107518
0.110826
0.113556
0.115732
0.117369
0.118494
0.119175
0.119356
0.118456
0.116748
0.121529
-0.269165
-0.23886
-0.21453
-0.191839
-0.169245
-0.147327
-0.126236
-0.10597
-0.0865318
-0.0679575
-0.0502566
-0.0334111
-0.0174415
-0.0023854
0.0117955
0.0251534
0.0375228
0.0488406
0.0598244
0.069459
0.0783283
0.0870062
0.0954164
0.101745
0.107558
0.11289
0.117451
0.121364
0.124723
0.127535
0.12982
0.131618
0.13297
0.133922
0.134539
0.134932
0.135126
0.134795
0.134583
0.140305
-0.256102
-0.219135
-0.191557
-0.166225
-0.141494
-0.117874
-0.095454
-0.0741743
-0.0539642
-0.0348664
-0.0169107
-5.5663e-06
0.0158637
0.030587
0.0442896
0.0571891
0.0686107
0.0780549
0.0919066
0.0995775
0.107333
0.114622
0.121106
0.12669
0.131605
0.135867
0.139467
0.142455
0.144888
0.14681
0.148266
0.149307
0.149986
0.150362
0.150509
0.15053
0.150429
0.149935
0.149772
0.154669
-0.23489
-0.193753
-0.165081
-0.137997
-0.111677
-0.0867455
-0.0632866
-0.0412692
-0.0205051
-0.00106059
0.0169276
0.0339071
0.0494459
0.06358
0.0771176
0.0908897
0.101396
0.111034
0.120321
0.12809
0.135058
0.141298
0.146685
0.151269
0.155134
0.158332
0.160901
0.162896
0.164378
0.165401
0.166018
0.166287
0.166264
0.166006
0.165585
0.165084
0.164478
0.163513
0.162912
0.166726
-0.207059
-0.162356
-0.133124
-0.104606
-0.0771503
-0.051321
-0.0272693
-0.00516597
0.0162462
0.0353147
0.052661
0.0712736
0.0865499
0.0999155
0.112259
0.123532
0.133429
0.142311
0.150156
0.156957
0.162819
0.167828
0.172006
0.175407
0.178105
0.180163
0.18164
0.182597
0.183095
0.183191
0.182944
0.182408
0.181637
0.180683
0.179608
0.178478
0.177246
0.175688
0.174521
0.177251
-0.173496
-0.127252
-0.0973201
-0.0676347
-0.0396189
-0.0129406
0.0112458
0.0322094
0.0580036
0.0756942
0.0927577
0.108724
0.122863
0.135531
0.146922
0.156986
0.16578
0.173423
0.179974
0.185478
0.190028
0.193708
0.196583
0.198723
0.200201
0.201088
0.201448
0.201347
0.200845
0.200001
0.198872
0.19751
0.195964
0.194279
0.192508
0.190701
0.188803
0.186623
0.184866
0.186553
-0.136048
-0.089181
-0.0582087
-0.0273434
0.00115088
0.0309023
0.0546413
0.0767548
0.0976337
0.115748
0.132269
0.147167
0.160323
0.171885
0.181985
0.190684
0.198066
0.204241
0.209307
0.213346
0.216455
0.218721
0.220226
0.221049
0.221268
0.220955
0.22018
0.219006
0.217497
0.215708
0.213693
0.211499
0.209171
0.206747
0.204272
0.201783
0.199226
0.19644
0.194106
0.194803
-0.094617
-0.0469809
-0.0137714
0.0184882
0.0475715
0.0744565
0.0984674
0.120427
0.14016
0.157656
0.173158
0.186769
0.198538
0.208599
0.217098
0.224153
0.229883
0.234409
0.237845
0.240295
0.241862
0.242641
0.242722
0.24219
0.241125
0.2396
0.237685
0.235445
0.232936
0.230213
0.227325
0.224314
0.221219
0.218073
0.214911
0.211766
0.208581
0.205227
0.202343
0.202106
-0.0490978
0.000659591
0.0338787
0.0657567
0.0949461
0.121271
0.144922
0.166073
0.184745
0.200994
0.215005
0.226937
0.236933
0.245162
0.251791
0.256974
0.260856
0.263573
0.265254
0.266016
0.265968
0.265211
0.263839
0.261938
0.259589
0.256863
0.253827
0.250543
0.247063
0.243438
0.23971
0.235916
0.232088
0.228255
0.224447
0.220685
0.216919
0.213044
0.209648
0.20854
5.15596e-05
0.0512424
0.0843221
0.116043
0.145022
0.170834
0.19364
0.213556
0.230688
0.245187
0.257264
0.267133
0.275007
0.281095
0.285598
0.288697
0.290561
0.29134
0.291172
0.290181
0.28848
0.286171
0.283348
0.280095
0.276488
0.272597
0.268482
0.2642
0.259798
0.25532
0.250802
0.246276
0.241767
0.2373
0.232896
0.228572
0.224278
0.219936
0.216071
0.214162
0.052674
0.104916
0.137884
0.169407
0.197913
0.222791
0.244239
0.262409
0.277485
0.289713
0.299381
0.306775
0.312169
0.315822
0.317966
0.318806
0.318524
0.317279
0.315214
0.312451
0.309102
0.305265
0.301029
0.296472
0.291665
0.286671
0.281543
0.27633
0.271074
0.265811
0.26057
0.255377
0.250252
0.245212
0.240275
0.235449
0.230691
0.225937
0.221651
0.219017
0.10884
0.16199
0.194786
0.225874
0.253502
0.276911
0.296368
0.312134
0.324515
0.333882
0.340626
0.345119
0.347698
0.348661
0.348266
0.346729
0.344236
0.340945
0.33699
0.332489
0.327545
0.322247
0.316675
0.310898
0.304978
0.298969
0.292917
0.286862
0.280838
0.274873
0.26899
0.263208
0.257542
0.252002
0.246599
0.24134
0.236181
0.231077
0.226422
0.223142
0.16883
0.222803
0.255289
0.285556
0.311683
0.332844
0.349457
0.361977
0.370897
0.37675
0.380049
0.381249
0.380739
0.378838
0.37581
0.371865
0.367177
0.361889
0.356122
0.349977
0.343543
0.336897
0.330105
0.323225
0.316309
0.309399
0.302533
0.295741
0.28905
0.282481
0.276048
0.269764
0.263639
0.257676
0.251884
0.246261
0.24077
0.235377
0.230408
0.226568
0.233181
0.287846
0.319786
0.348549
0.372174
0.389939
0.402555
0.41079
0.41539
0.417074
0.416469
0.414089
0.410337
0.405524
0.399889
0.393614
0.386845
0.379697
0.372266
0.364633
0.356867
0.349028
0.341169
0.333335
0.325564
0.317889
0.310338
0.302932
0.295688
0.28862
0.281738
0.275047
0.26855
0.262249
0.256144
0.250232
0.244478
0.238857
0.233633
0.229318
0.302635
0.357836
0.388691
0.414711
0.434223
0.446938
0.454081
0.456852
0.45629
0.453271
0.448483
0.442431
0.435478
0.427879
0.419815
0.411418