/*--------------------------------*- C++ -*----------------------------------*\
  =========                 |
  \\      /  F ield         | OpenFOAM: The Open Source CFD Toolbox
   \\    /   O peration     | Website:  https://openfoam.org
    \\  /    A nd           | Version:  7
     \\/     M anipulation  |
\*---------------------------------------------------------------------------*/
FoamFile
{
    version     2.0;
    format      ascii;
    class       surfaceScalarField;
    location    "1";
    object      phi;
}
// * * * * * * * * * * * * * * * * * * * * * * * * * * * * * * * * * * * * * //

dimensions      [0 3 -1 0 0 0 0];

internalField   nonuniform List<scalar> 
23750
(
2.27488e-06
-2.27488e-06
-5.15449e-12
8.15004e-06
-5.87514e-06
-1.0994e-11
1.65262e-05
-8.37619e-06
-1.46032e-11
2.68487e-05
-1.03225e-05
-1.7101e-11
3.88396e-05
-1.19908e-05
-1.87896e-11
5.23787e-05
-1.35392e-05
-1.99144e-11
6.74175e-05
-1.50387e-05
-2.06725e-11
8.39413e-05
-1.65238e-05
-2.11689e-11
0.000101954
-1.80132e-05
-2.14624e-11
0.000121472
-1.95179e-05
-2.15877e-11
0.000142517
-2.10449e-05
-2.15751e-11
0.000165117
-2.25993e-05
-2.14253e-11
0.000189302
-2.41849e-05
-2.11521e-11
0.000215107
-2.58054e-05
-2.07554e-11
0.000242571
-2.74636e-05
-2.0242e-11
0.000271733
-2.91624e-05
-1.96214e-11
0.000302637
-3.09042e-05
-1.88832e-11
0.000335329
-3.26914e-05
-1.80246e-11
0.000369855
-3.45257e-05
-1.70595e-11
0.000406263
-3.64089e-05
-1.59878e-11
0.000444606
-3.83422e-05
-1.47958e-11
0.000484932
-4.03263e-05
-1.34831e-11
0.000527294
-4.23617e-05
-1.20608e-11
0.000571742
-4.4448e-05
-1.05313e-11
0.000618326
-4.65841e-05
-8.88822e-12
0.000667094
-4.87683e-05
-7.13227e-12
0.000718092
-5.09974e-05
-5.27302e-12
0.000771359
-5.32674e-05
-3.32016e-12
0.000826931
-5.55723e-05
-1.28941e-12
0.000884836
-5.79045e-05
8.3711e-13
0.00094509
-6.0254e-05
3.07744e-12
0.0010077
-6.26079e-05
5.36109e-12
0.00107265
-6.49501e-05
7.69237e-12
0.00113991
-6.726e-05
1.00593e-11
0.00120942
-6.95121e-05
1.24384e-11
0.00128109
-7.16749e-05
1.48002e-11
0.0013548
-7.37088e-05
1.71271e-11
0.00143037
-7.55641e-05
1.94139e-11
0.00150755
-7.71823e-05
2.15307e-11
-7.84828e-05
2.34493e-11
0.00158603
3.94697e-07
-2.66958e-06
3.69856e-06
-9.17901e-06
9.68968e-06
-1.43673e-05
1.80553e-05
-1.86881e-05
2.85044e-05
-2.24398e-05
4.08214e-05
-2.58562e-05
5.48674e-05
-2.90848e-05
7.05618e-05
-3.22182e-05
8.7864e-05
-3.53154e-05
0.00010676
-3.84138e-05
0.000127253
-4.1538e-05
0.000149358
-4.47049e-05
0.0001731
-4.79266e-05
0.000198508
-5.12129e-05
0.000225615
-5.45714e-05
0.000254462
-5.80089e-05
0.000285089
-6.1531e-05
0.00031754
-6.51429e-05
0.000351863
-6.88488e-05
0.000388107
-7.26523e-05
0.000426321
-7.65563e-05
0.000466557
-8.05626e-05
0.000508868
-8.46721e-05
0.000553304
-8.88845e-05
0.000599918
-9.31979e-05
0.000648758
-9.76087e-05
0.000699872
-0.000102111
0.000753302
-0.000106697
0.000809085
-0.000111356
0.000867252
-0.000116071
0.000927821
-0.000120823
0.000990801
-0.000125588
0.00105618
-0.000130332
0.00112394
-0.000135015
0.00119401
-0.000139586
0.00126632
-0.000143982
0.00134073
-0.000148124
0.00141708
-0.000151913
0.00149513
-0.00015523
-0.00015793
0.00157458
4.41706e-07
-3.11128e-06
2.67413e-06
-1.14114e-05
7.08634e-06
-1.87795e-05
1.37626e-05
-2.53644e-05
2.26252e-05
-3.13024e-05
3.35436e-05
-3.67746e-05
4.63921e-05
-4.19332e-05
6.10715e-05
-4.68976e-05
7.75132e-05
-5.17571e-05
9.56763e-05
-5.65769e-05
0.000115542
-6.14037e-05
0.000137109
-6.62715e-05
0.000160387
-7.12054e-05
0.000185399
-7.62245e-05
0.000212172
-8.13442e-05
0.00024074
-8.65767e-05
0.000271141
-9.19326e-05
0.000303419
-9.74205e-05
0.000337618
-0.000103048
0.000373786
-0.000108821
0.000411974
-0.000114744
0.000452233
-0.000120821
0.000494614
-0.000127053
0.00053917
-0.000133441
0.000585952
-0.000139981
0.000635012
-0.000146668
0.000686395
-0.000153495
0.000740147
-0.000160449
0.000796306
-0.000167514
0.000854902
-0.000174667
0.000915958
-0.000181879
0.000979482
-0.000189112
0.00104547
-0.000196319
0.00111389
-0.00020344
0.00118471
-0.000210397
0.00125782
-0.000217098
0.00133312
-0.000223423
0.00141043
-0.000229222
0.00148952
-0.000234317
-0.000238506
0.00157009
3.94931e-07
-3.50621e-06
2.23322e-06
-1.32497e-05
5.85368e-06
-2.24e-05
1.14621e-05
-3.09728e-05
1.9138e-05
-3.89784e-05
2.8873e-05
-4.65095e-05
4.06156e-05
-5.36758e-05
5.43022e-05
-6.05842e-05
6.98748e-05
-6.73297e-05
8.72889e-05
-7.39911e-05
0.000106517
-8.06313e-05
0.000127545
-8.72999e-05
0.000150375
-9.40352e-05
0.000175018
-0.000100868
0.000201496
-0.000107822
0.000229837
-0.000114918
0.000260076
-0.000122171
0.000292251
-0.000129596
0.000326405
-0.000137203
0.000362586
-0.000145001
0.00040084
-0.000152999
0.000441219
-0.0001612
0.000483774
-0.000169608
0.000528557
-0.000178223
0.000575618
-0.000187042
0.000625008
-0.000196058
0.000676775
-0.000205261
0.000730962
-0.000214636
0.000787607
-0.000224159
0.000846743
-0.000233803
0.000908392
-0.000243528
0.000972565
-0.000253285
0.00103926
-0.000263011
0.00110844
-0.000272627
0.00118008
-0.000282032
0.00125408
-0.000291101
0.00133034
-0.000299677
0.00140867
-0.00030756
0.00148887
-0.000314512
-0.000320286
0.00157065
4.00184e-07
-3.9064e-06
2.09213e-06
-1.49417e-05
5.33109e-06
-2.56389e-05
1.03243e-05
-3.5966e-05
1.72145e-05
-4.58686e-05
2.60739e-05
-5.53689e-05
3.6923e-05
-6.45249e-05
4.97509e-05
-7.34121e-05
6.45325e-05
-8.21113e-05
8.12409e-05
-9.06995e-05
9.98545e-05
-9.92449e-05
0.00012036
-0.000107806
0.000142756
-0.000116431
0.000167048
-0.00012516
0.000193253
-0.000134027
0.000221395
-0.000143059
0.000251502
-0.000152279
0.000283612
-0.000161705
0.000317763
-0.000171354
0.000354
-0.000181238
0.000392368
-0.000191367
0.000432915
-0.000201748
0.000475693
-0.000212386
0.00052075
-0.00022328
0.000568136
-0.000234428
0.000617901
-0.000245823
0.00067009
-0.000257451
0.000724747
-0.000269293
0.00078191
-0.000281322
0.000841609
-0.000293502
0.000903866
-0.000305786
0.000968693
-0.000318112
0.00103609
-0.000330404
0.00110602
-0.000342563
0.00117846
-0.000354465
0.00125331
-0.000365957
0.00133048
-0.000376844
0.00140979
-0.000386875
0.00149104
-0.000395758
-0.000403222
0.00157397
4.25592e-07
-4.33199e-06
2.09313e-06
-1.66092e-05
5.17926e-06
-2.87251e-05
9.85815e-06
-4.06449e-05
1.62804e-05
-5.22908e-05
2.45552e-05
-6.36437e-05
3.47507e-05
-7.47204e-05
4.69022e-05
-8.55635e-05
6.10222e-05
-9.62313e-05
7.71109e-05
-0.000106788
9.51642e-05
-0.000117298
0.000115179
-0.000127821
0.000137158
-0.000138409
0.000161108
-0.00014911
0.000187043
-0.000159963
0.000214986
-0.000171002
0.000244962
-0.000182255
0.000277005
-0.000193748
0.00031115
-0.000205499
0.000347439
-0.000217527
0.000385915
-0.000229842
0.000426622
-0.000242455
0.000469608
-0.000255372
0.000514921
-0.000268593
0.000562609
-0.000282116
0.000612716
-0.000295931
0.000665288
-0.000310023
0.000720366
-0.000324371
0.000777985
-0.000338941
0.000838176
-0.000353692
0.000900959
-0.000368568
0.000966344
-0.000383497
0.00103433
-0.000398388
0.00110489
-0.000413123
0.00117798
-0.000427559
0.00125354
-0.000441514
0.00133145
-0.000454757
0.00141157
-0.00046699
0.00149368
-0.000477872
-0.000487129
0.00157759
4.47855e-07
-4.77984e-06
2.13582e-06
-1.82972e-05
5.182e-06
-3.17712e-05
9.7221e-06
-4.5185e-05
1.58906e-05
-5.84594e-05
2.38042e-05
-7.15573e-05
3.35545e-05
-8.44707e-05
4.52074e-05
-9.72163e-05
5.88063e-05
-0.00010983
7.43788e-05
-0.000122361
9.19421e-05
-0.000134862
0.000111509
-0.000147387
0.00013309
-0.000159991
0.000156701
-0.00017272
0.000182357
-0.000185619
0.000210081
-0.000198725
0.000239898
-0.000212072
0.000271837
-0.000225688
0.000305934
-0.000239596
0.000342226
-0.000253818
0.000380751
-0.000268368
0.000421553
-0.000283257
0.000464675
-0.000298493
0.00051016
-0.000314078
0.000558053
-0.000330008
0.000608396
-0.000346274
0.000661231
-0.000362858
0.000716596
-0.000379735
0.000774523
-0.000396869
0.000835041
-0.00041421
0.000898169
-0.000431696
0.000963915
-0.000449243
0.00103227
-0.000466748
0.00110323
-0.000484078
0.00117674
-0.000501066
0.00125273
-0.000517507
0.00133111
-0.000533137
0.00141173
-0.000547612
0.0014944
-0.000560547
-0.000571688
0.00157896
4.66954e-07
-5.2468e-06
2.18542e-06
-2.00156e-05
5.23605e-06
-3.48219e-05
9.72316e-06
-4.96721e-05
1.57595e-05
-6.44957e-05
2.34548e-05
-7.92526e-05
3.29074e-05
-9.39233e-05
4.41989e-05
-0.000108508
5.73939e-05
-0.000123025
7.25413e-05
-0.000137508
8.96783e-05
-0.000151998
0.000108834
-0.000166543
0.000130032
-0.000181189
0.000153295
-0.000195983
0.000178645
-0.00021097
0.000206107
-0.000226188
0.000235708
-0.000241672
0.000267476
-0.000257455
0.000301443
-0.000273563
0.000337643
-0.000290018
0.000376113
-0.000306838
0.000416891
-0.000324035
0.000460015
-0.000341618
0.000505525
-0.000359589
0.000553461
-0.000377945
0.000603862
-0.000396674
0.000656764
-0.00041576
0.000712201
-0.000435172
0.000770203
-0.000454871
0.000830795
-0.000474802
0.000893994
-0.000494895
0.000959809
-0.000515058
0.00102823
-0.000535173
0.00109925
-0.000555094
0.00117282
-0.000574636
0.00124888
-0.000593568
0.00132734
-0.000611598
0.00140807
-0.000628337
0.00149089
-0.000643365
-0.000656465
0.00157566
4.81039e-07
-5.72784e-06
2.22265e-06
-2.17573e-05
5.28247e-06
-3.78817e-05
9.7431e-06
-5.41328e-05
1.56981e-05
-7.04507e-05
2.32459e-05
-8.68004e-05
3.24825e-05
-0.00010316
4.34954e-05
-0.000119521
5.63605e-05
-0.00013589
7.11415e-05
-0.000152289
8.78908e-05
-0.000168748
0.000106652
-0.000185304
0.00012746
-0.000201998
0.000150348
-0.000218872
0.000175345
-0.000235967
0.000202479
-0.000253322
0.000231779
-0.000270972
0.000263273
-0.00028895
0.000296992
-0.000307282
0.000332967
-0.000325993
0.00037123
-0.000345101
0.000411816
-0.00036462
0.000454758
-0.000384559
0.00050009
-0.000404921
0.000547847
-0.000425701
0.000598061
-0.000446889
0.000650766
-0.000468464
0.000705989
-0.000490395
0.000763758
-0.00051264
0.000824093
-0.000535138
0.000887011
-0.000557813
0.000952519
-0.000580565
0.00102061
-0.000603267
0.00109127
-0.000625757
0.00116447
-0.000647833
0.00124015
-0.000669244
0.00131822
-0.000689669
0.00139856
-0.00070868
0.00148102
-0.000725824
-0.000740941
0.0015655
4.87583e-07
-6.21542e-06
2.23306e-06
-2.35027e-05
5.28136e-06
-4.093e-05
9.70195e-06
-5.85534e-05
1.55745e-05
-7.63232e-05
2.29869e-05
-9.42129e-05
3.20298e-05
-0.000112203
4.27906e-05
-0.000130282
5.53502e-05
-0.00014845
6.97807e-05
-0.00016672
8.61449e-05
-0.000185112
0.000104497
-0.000203655
0.000124882
-0.000222383
0.000147342
-0.000241331
0.000171912
-0.000260536
0.000198624
-0.000280034
0.000227509
-0.000299857
0.000258597
-0.000320037
0.000291916
-0.000340601
0.000327495
-0.000361572
0.000365363
-0.000382969
0.000405547
-0.000404805
0.000448076
-0.000427089
0.00049298
-0.000449824
0.000540284
-0.000473006
0.000590017
-0.000496622
0.000642204
-0.000520651
0.000696869
-0.000545061
0.000754035
-0.000569805
0.00081372
-0.000594823
0.000875937
-0.000620031
0.000940694
-0.000645323
0.00100799
-0.000670563
0.00107781
-0.000695579
0.00115013
-0.000720153
0.0012249
-0.000744014
0.00130205
-0.000766817
0.00138147
-0.000788095
0.00146301
-0.000807364
-0.000824538
0.0015466
4.8439e-07
-6.69981e-06
2.20533e-06
-2.52237e-05
5.20316e-06
-4.39278e-05
9.54161e-06
-6.28918e-05
1.52923e-05
-8.20738e-05
2.25356e-05
-0.000101456
3.13569e-05
-0.000121024
4.18414e-05
-0.000140766
5.40711e-05
-0.00016068
6.81221e-05
-0.000180771
8.40631e-05
-0.000201053
0.000101955
-0.000221547
0.000121852
-0.00024228
0.0001438
-0.000263279
0.00016784
-0.000284576
0.000194008
-0.000306202
0.000222337
-0.000328187
0.000252857
-0.000350557
0.000285595
-0.000373339
0.000320576
-0.000396553
0.000357825
-0.000420218
0.000397365
-0.000444345
0.000439218
-0.000468942
0.000483405
-0.000494011
0.000529946
-0.000519547
0.000578862
-0.000545538
0.000630172
-0.000571961
0.000683893
-0.000598782
0.000740042
-0.000625955
0.000798636
-0.000653416
0.000859686
-0.000681081
0.000923201
-0.000708838
0.000989185
-0.000736547
0.00105763
-0.000764025
0.00112852
-0.000791043
0.00120182
-0.000817314
0.00127747
-0.000842467
0.00135538
-0.000866001
0.00143541
-0.0008874
-0.000906661
0.00151754
4.69358e-07
-7.16917e-06
2.12966e-06
-2.6884e-05
5.02393e-06
-4.68221e-05
9.21674e-06
-6.70846e-05
1.47772e-05
-8.76343e-05
2.17824e-05
-0.000108461
3.03141e-05
-0.000129556
4.04554e-05
-0.000150907
5.22875e-05
-0.000172512
6.58878e-05
-0.000194371
8.13279e-05
-0.000216493
9.86727e-05
-0.000238892
0.00011798
-0.000261587
0.0001393
-0.0002846
0.000162679
-0.000307955
0.000188154
-0.000331677
0.000215758
-0.000355791
0.000245523
-0.000380321
0.000277472
-0.000405288
0.000311628
-0.00043071
0.000348012
-0.000456601
0.000386639
-0.000482972
0.000427526
-0.000509829
0.000470686
-0.000537171
0.000516131
-0.000564992
0.000563872
-0.000593279
0.000613921
-0.000622009
0.000666288
-0.000651149
0.000720984
-0.000680651
0.000778021
-0.000710453
0.000837411
-0.00074047
0.000899164
-0.000770592
0.000963291
-0.000800674
0.0010298
-0.00083053
0.00109867
-0.000859922
0.00116991
-0.00088855
0.00124347
-0.000916022
0.00131927
-0.000941801
0.0013972
-0.000965339
-0.000986716
0.00147726
4.40363e-07
-7.60953e-06
1.99702e-06
-2.84406e-05
4.72297e-06
-4.95481e-05
8.68987e-06
-7.10515e-05
1.39698e-05
-9.29142e-05
2.06408e-05
-0.000115132
2.87839e-05
-0.000137699
3.84809e-05
-0.000160604
4.9812e-05
-0.000183843
6.28545e-05
-0.000207413
7.76805e-05
-0.000231319
9.43565e-05
-0.000255568
0.000112942
-0.000280173
0.00013349
-0.000305148
0.000156047
-0.000330512
0.000180653
-0.000356283
0.000207341
-0.000382479
0.000236139
-0.00040912
0.000267072
-0.000436221
0.000300157
-0.000463795
0.00033541
-0.000491854
0.000372842
-0.000520404
0.00041246
-0.000549447
0.00045427
-0.000578981
0.000498275
-0.000608997
0.000544477
-0.000639481
0.000592877
-0.000670409
0.000643477
-0.000701749
0.000696281
-0.000733455
0.000751295
-0.000765467
0.000808529
-0.000797704
0.000867995
-0.000830058
0.000929712
-0.000862391
0.000993698
-0.000894516
0.00105997
-0.000926193
0.00112854
-0.000957117
0.00119939
-0.000986876
0.00127249
-0.0010149
0.00134775
-0.0010406
-0.00106414
0.00142517
3.95098e-07
-8.00463e-06
1.79847e-06
-2.9844e-05
4.2812e-06
-5.20308e-05
7.92856e-06
-7.46989e-05
1.28212e-05
-9.78069e-05
1.90421e-05
-0.000121353
2.66746e-05
-0.000145331
3.58007e-05
-0.00016973
4.64999e-05
-0.000194542
5.88487e-05
-0.000219762
7.29188e-05
-0.000245389
8.87763e-05
-0.000271426
0.000106481
-0.000297877
0.000126086
-0.000324753
0.000147638
-0.000352064
0.000171176
-0.000379821
0.000196734
-0.000408037
0.000224338
-0.000436724
0.00025401
-0.000465892
0.000285763
-0.000495549
0.00031961
-0.0005257
0.000355553
-0.000556347
0.000393595
-0.000587489
0.000433732
-0.000619118
0.000475958
-0.000651223
0.000520264
-0.000683787
0.000566641
-0.000716787
0.00061508
-0.000750188
0.000665575
-0.00078395
0.000718122
-0.000818015
0.000772727
-0.000852309
0.000829404
-0.000886735
0.000888176
-0.000921163
0.000949078
-0.000955417
0.00101215
-0.000989267
0.00107744
-0.00102241
0.00114498
-0.00105442
0.00121478
-0.0010847
0.00128679
-0.0011126
-0.00113838
0.00136103
3.30547e-07
-8.33518e-06
1.5241e-06
-3.10375e-05
3.67972e-06
-5.41864e-05
6.90352e-06
-7.79227e-05
1.12902e-05
-0.000102194
1.69319e-05
-0.000126995
2.39168e-05
-0.000152316
3.23284e-05
-0.000178142
4.22462e-05
-0.00020446
5.37453e-05
-0.000231261
6.68964e-05
-0.00025854
8.17641e-05
-0.000286293
9.84072e-05
-0.00031452
0.000116878
-0.000343224
0.000137221
-0.000372407
0.000159476
-0.000402076
0.000183675
-0.000432236
0.000209842
-0.000462891
0.000237996
-0.000494046
0.000268148
-0.000525701
0.000300305
-0.000557857
0.000334467
-0.000590509
0.000370627
-0.000623649
0.000408776
-0.000657266
0.000448896
-0.000691344
0.000490971
-0.000725862
0.000534979
-0.000760794
0.000580897
-0.000796107
0.000628707
-0.00083176
0.000678395
-0.000867702
0.000729953
-0.000903868
0.000783391
-0.000940173
0.000838732
-0.000976504
0.000896024
-0.00101271
0.000955335
-0.00104858
0.00101675
-0.00108382
0.00108037
-0.00111804
0.00114627
-0.00115059
0.00121446
-0.00118079
-0.00120893
0.00128501
2.41744e-07
-8.57692e-06
1.16136e-06
-3.19572e-05
2.89917e-06
-5.59242e-05
5.58875e-06
-8.06123e-05
9.34483e-06
-0.00010595
1.42722e-05
-0.000131922
2.04656e-05
-0.00015851
2.80112e-05
-0.000185688
3.69879e-05
-0.000213437
4.74698e-05
-0.000241743
5.95257e-05
-0.000270596
7.32185e-05
-0.000299986
8.86047e-05
-0.000329907
0.000105735
-0.000360354
0.000124653
-0.000391325
0.000145396
-0.000422819
0.000167994
-0.000454834
0.00019247
-0.000487367
0.000218841
-0.000520417
0.000247117
-0.000553977
0.0002773
-0.00058804
0.000309386
-0.000622595
0.000343365
-0.000657628
0.000379219
-0.000693121
0.000416928
-0.000729052
0.000456462
-0.000765396
0.000497789
-0.000802122
0.000540876
-0.000839194
0.000585688
-0.000876572
0.000632194
-0.000914207
0.00068037
-0.000952044
0.00073021
-0.000990013
0.000781728
-0.00102802
0.000834968
-0.00106595
0.000890017
-0.00110363
0.000947004
-0.00114081
0.0010061
-0.00117713
0.00106748
-0.00121197
0.00113126
-0.00124458
-0.00127527
0.0011976
1.10575e-07
-8.6875e-06
6.88452e-07
-3.2535e-05
1.9099e-06
-5.71457e-05
3.95047e-06
-8.26528e-05
6.95137e-06
-0.00010895
1.10303e-05
-0.000136001
1.62899e-05
-0.000163769
2.28186e-05
-0.000192216
3.06934e-05
-0.000221311
3.99869e-05
-0.000251037
5.07664e-05
-0.000281376
6.30923e-05
-0.000312312
7.70191e-05
-0.000343833
9.25949e-05
-0.00037593
0.000109862
-0.000408592
0.000128855
-0.000441812
0.000149604
-0.000475582
0.00017213
-0.000509894
0.000196449
-0.000544736
0.000222568
-0.000580097
0.00025049
-0.000615962
0.000280209
-0.000652313
0.000311711
-0.00068913
0.000344977
-0.000726387
0.000379981
-0.000764056
0.000416689
-0.000802104
0.000455062
-0.000840494
0.000495055
-0.000879187
0.00053662
-0.000918137
0.000579709
-0.000957296
0.000624276
-0.000996612
0.000670288
-0.00103602
0.000717731
-0.00107546
0.000766628
-0.00111485
0.000817053
-0.00115405
0.000869153
-0.00119291
0.000923161
-0.00123114
0.00097938
-0.00126819
0.00103811
-0.0013033
-0.00133684
0.00109968
-6.97887e-08
-8.61771e-06
3.94697e-08
-3.26443e-05
6.39773e-07
-5.7746e-05
1.93453e-06
-8.39476e-05
4.06628e-06
-0.000111082
7.17066e-06
-0.000139106
1.13637e-05
-0.000167962
1.67325e-05
-0.000197585
2.33519e-05
-0.000227931
3.12905e-05
-0.000258975
4.06149e-05
-0.0002907
5.1383e-05
-0.00032308
6.36469e-05
-0.000356097
7.74528e-05
-0.000389736
9.28409e-05
-0.00042398
0.000109845
-0.000458817
0.000128494
-0.000494231
0.000148808
-0.000530208
0.000170803
-0.000566731
0.000194486
-0.00060378
0.00021986
-0.000641336
0.000246919
-0.000679372
0.000275652
-0.000717862
0.000306039
-0.000756774
0.000338054
-0.000796071
0.000371664
-0.000835714
0.000406829
-0.000875659
0.000443499
-0.000915858
0.000481621
-0.000956259
0.000521134
-0.000996809
0.000561973
-0.00103745
0.000604075
-0.00107813
0.000647388
-0.00111878
0.000691881
-0.00115934
0.000737574
-0.00119974
0.00078457
-0.00123991
0.0008331
-0.00127967
0.000883547
-0.00131863
0.000936424
-0.00135618
-0.00139295
0.000992527
-2.92104e-07
-8.3256e-06
-6.94996e-07
-3.22414e-05
-7.92789e-07
-5.76482e-05
-3.58976e-07
-8.43814e-05
8.28813e-07
-0.00011227
2.89083e-06
-0.000141168
5.90576e-06
-0.000170977
1.00097e-05
-0.000201689
1.52374e-05
-0.000233158
2.16649e-05
-0.000265403
2.93615e-05
-0.000298397
3.83837e-05
-0.000332103
4.87823e-05
-0.000366496
6.0602e-05
-0.000401555
7.38821e-05
-0.00043726
8.86559e-05
-0.00047359
0.000104951
-0.000510526
0.000122789
-0.000548046
0.000142185
-0.000586127
0.000163149
-0.000624744
0.000185684
-0.000663871
0.000209788
-0.000703476
0.000235451
-0.000743526
0.000262661
-0.000783983
0.000291394
-0.000824805
0.000321625
-0.000865945
0.000353318
-0.000907352
0.000386432
-0.000948972
0.000420918
-0.000990745
0.000456718
-0.00103261
0.000493765
-0.0010745
0.000531984
-0.00111634
0.00057129
-0.00115808
0.0006116
-0.00119965
0.000652844
-0.00124099
0.000695002
-0.00128206
0.000738159
-0.00132283
0.000782586
-0.00136306
0.000828924
-0.00140252
-0.00144293
0.000878903
-5.80661e-07
-7.74494e-06
-1.58894e-06
-3.12331e-05
-2.35934e-06
-5.68778e-05
-2.7067e-06
-8.4034e-05
-2.48255e-06
-0.000112494
-1.53955e-06
-0.000142111
2.47111e-07
-0.000172764
2.87696e-06
-0.000204319
6.53422e-06
-0.000236816
1.12785e-05
-0.000270147
1.71636e-05
-0.000304282
2.42442e-05
-0.000339183
3.25699e-05
-0.000374822
4.21843e-05
-0.00041117
5.31258e-05
-0.000448202
6.54272e-05
-0.000485892
7.9116e-05
-0.000524215
9.42143e-05
-0.000563144
0.000110739
-0.000602651
0.000128701
-0.000642707
0.000148108
-0.000683277
0.000168959
-0.000724328
0.000191252
-0.000765819
0.000214978
-0.000807709
0.000240123
-0.00084995
0.00026667
-0.000892491
0.000294597
-0.000935279
0.000323877
-0.000978253
0.000354481
-0.00102135
0.000386372
-0.0010645
0.000419508
-0.00110763
0.000453839
-0.00115068
0.000489305
-0.00119355
0.00052583
-0.00123617
0.000563322
-0.00127848
0.000601674
-0.00132042
0.000640782
-0.00136194
0.000680583
-0.00140286
0.000721149
-0.00144309
-0.00148412
0.000762341
2.24345e-06
-9.98839e-06
5.81735e-06
-3.4807e-05
1.01393e-05
-6.11997e-05
1.51252e-05
-8.902e-05
2.07986e-05
-0.000118167
2.72201e-05
-0.000148532
3.44636e-05
-0.000180008
4.26539e-05
-0.000212509
5.18147e-05
-0.000245976
6.20249e-05
-0.000280357
7.33451e-05
-0.000315602
8.58297e-05
-0.000351668
9.95267e-05
-0.000388519
0.000114478
-0.000426121
0.000130718
-0.000464442
0.000148278
-0.000503451
0.00016718
-0.000543117
0.000187444
-0.000583408
0.000209083
-0.00062429
0.000232103
-0.000665727
0.000256507
-0.000707682
0.000282293
-0.000750114
0.000309454
-0.000792979
0.000337977
-0.000836232
0.000367847
-0.00087982
0.000399047
-0.000923691
0.000431556
-0.000967788
0.000465351
-0.00101205
0.000500412
-0.00105641
0.000536719
-0.00110081
0.000574255
-0.00114517
0.000613015
-0.00118944
0.000653004
-0.00123354
0.000694252
-0.00127742
0.000736823
-0.00132105
0.000780834
-0.00136443
0.000826497
-0.0014076
0.000874347
-0.00145071
0.000925576
-0.00149431
-0.00154015
0.000981604
1.15198e-06
-1.11404e-05
4.02123e-06
-3.76763e-05
8.11737e-06
-6.52958e-05
1.32031e-05
-9.41057e-05
1.91707e-05
-0.000124135
2.59898e-05
-0.000155351
3.36807e-05
-0.000187698
4.2286e-05
-0.000221114
5.18547e-05
-0.000255545
6.24356e-05
-0.000290938
7.40787e-05
-0.000327245
8.68315e-05
-0.000364421
0.000100737
-0.000402424
0.000115833
-0.000441217
0.000132153
-0.000480762
0.000149724
-0.000521022
0.000168568
-0.000561962
0.000188703
-0.000603543
0.000210141
-0.000645727
0.000232888
-0.000688474
0.000256946
-0.00073174
0.000282313
-0.000775481
0.000308983
-0.000819649
0.000336944
-0.000864193
0.000366185
-0.000909061
0.000396688
-0.000954195
0.000428436
-0.000999536
0.000461413
-0.00104503
0.000495602
-0.0010906
0.000530989
-0.00113619
0.000567568
-0.00118175
0.000605341
-0.00122721
0.000644322
-0.00127252
0.000684546
-0.00131765
0.000726072
-0.00136258
0.000768979
-0.00140733
0.000813377
-0.001452
0.000859417
-0.00149675
0.000907105
-0.001542
-0.00158821
0.000955171
8.54746e-07
-1.19951e-05
3.2161e-06
-4.00376e-05
6.9182e-06
-6.89979e-05
1.17974e-05
-9.89849e-05
1.77329e-05
-0.000130071
2.4655e-05
-0.000162274
3.25361e-05
-0.000195579
4.13783e-05
-0.000229957
5.11999e-05
-0.000265367
6.20281e-05
-0.000301767
7.3896e-05
-0.000339113
8.6838e-05
-0.000377363
0.000100888
-0.000416474
0.000116076
-0.000456405
0.00013243
-0.000497116
0.000149973
-0.000538565
0.000168724
-0.000580713
0.000188697
-0.000623516
0.000209903
-0.000666932
0.000232345
-0.000710916
0.000256025
-0.000755419
0.000280938
-0.000800394
0.000307077
-0.000845788
0.00033443
-0.000891547
0.000362984
-0.000937615
0.000392722
-0.000983932
0.000423625
-0.00103044
0.000455674
-0.00107707
0.000488851
-0.00112377
0.000523137
-0.00117048
0.000558519
-0.00121713
0.000594984
-0.00126367
0.000632527
-0.00131006
0.000671143
-0.00135626
0.000710831
-0.00140226
0.000751575
-0.00144808
0.000793337
-0.00149376
0.000836018
-0.00153943
0.000879312
-0.0015853
-0.00163125
0.00092235
7.86439e-07
-1.27816e-05
2.89801e-06
-4.21492e-05
6.301e-06
-7.24009e-05
1.0924e-05
-0.000103608
1.66881e-05
-0.000135835
2.35302e-05
-0.000169116
3.1409e-05
-0.000203458
4.03046e-05
-0.000238852
5.02131e-05
-0.000275275
6.11421e-05
-0.000312696
7.31071e-05
-0.000351078
8.61281e-05
-0.000390383
0.000100226
-0.000430572
0.000115423
-0.000471602
0.000131739
-0.000513431
0.000149189
-0.000556016
0.000167789
-0.000599312
0.000187547
-0.000643275
0.000208469
-0.000687855
0.000230558
-0.000733004
0.00025381
-0.000778672
0.00027822
-0.000824804
0.000303776
-0.000871344
0.000330465
-0.000918236
0.000358271
-0.00096542
0.000387172
-0.00101283
0.000417146
-0.00106041
0.000448171
-0.0011081
0.00048022
-0.00115582
0.000513267
-0.00120353
0.000547285
-0.00125115
0.000582246
-0.00129863
0.000618119
-0.00134593
0.000654867
-0.00139301
0.000692441
-0.00143984
0.000730771
-0.00148641
0.000769749
-0.00153274
0.000809202
-0.00157889
0.000848826
-0.00162492
-0.00167054
0.000888112
7.48923e-07
-1.35305e-05
2.7189e-06
-4.41192e-05
5.91543e-06
-7.55975e-05
1.0314e-05
-0.000108006
1.58737e-05
-0.000141394
2.25517e-05
-0.000175794
3.03124e-05
-0.000211219
3.91307e-05
-0.000247671
4.89921e-05
-0.000285137
5.98918e-05
-0.000323595
7.18319e-05
-0.000363018
8.48195e-05
-0.000403371
9.88649e-05
-0.000444617
0.000113979
-0.000486716
0.000130173
-0.000529625
0.000147457
-0.000573299
0.000165836
-0.000617692
0.000185317
-0.000662755
0.000205898
-0.000708437
0.000227579
-0.000754685
0.000250351
-0.000801444
0.000274204
-0.000848657
0.000299126
-0.000896266
0.000325096
-0.000944207
0.000352096
-0.000992419
0.0003801
-0.00104084
0.00040908
-0.00108939
0.000439008
-0.00113803
0.00046985
-0.00118667
0.000501572
-0.00123525
0.000534134
-0.00128371
0.000567495
-0.001332
0.000601607
-0.00138005
0.000636411
-0.00142782
0.000671839
-0.00147527
0.000707796
-0.00152237
0.000744163
-0.0015691
0.000780768
-0.00161549
0.000817375
-0.00166153
-0.00170683
0.000853667
7.25715e-07
-1.42562e-05
2.60458e-06
-4.5998e-05
5.6516e-06
-7.86445e-05
9.8634e-06
-0.000112218
1.52226e-05
-0.000146754
2.17051e-05
-0.000182276
2.92857e-05
-0.0002188
3.79429e-05
-0.000256328
4.76601e-05
-0.000294854
5.84264e-05
-0.000334361
7.0236e-05
-0.000374828
8.30871e-05
-0.000416222
9.69807e-05
-0.000458511
0.000111919
-0.000501655
0.000127905
-0.000545611
0.000144941
-0.000590335
0.000163026
-0.000635777
0.000182159
-0.000681888
0.000202334
-0.000728612
0.000223544
-0.000775895
0.000245778
-0.000823677
0.000269019
-0.000871899
0.000293251
-0.000920497
0.000318449
-0.000969406
0.00034459
-0.00101856
0.000371643
-0.00106789
0.000399576
-0.00111733
0.000428354
-0.0011668
0.000457937
-0.00121625
0.000488284
-0.0012656
0.000519347
-0.00131477
0.000551075
-0.00136372
0.000583412
-0.00141238
0.000616289
-0.00146069
0.000649629
-0.00150861
0.000683339
-0.00155608
0.000717304
-0.00160307
0.000751378
-0.00164957
0.00078538
-0.00169553
-0.00174056
0.000819111
7.07575e-07
-1.49638e-05
2.51735e-06
-4.78078e-05
5.44521e-06
-8.15723e-05
9.49653e-06
-0.00011627
1.46667e-05
-0.000151924
2.09441e-05
-0.000188553
2.83134e-05
-0.000226169
3.67588e-05
-0.000264773
4.62655e-05
-0.000304361
5.68214e-05
-0.000344917
6.84167e-05
-0.000386423
8.10442e-05
-0.00042885
9.46985e-05
-0.000472165
0.000109375
-0.000516331
0.00012507
-0.000561306
0.000141778
-0.000607043
0.000159492
-0.000653492
0.000178205
-0.000700601
0.000197907
-0.000748313
0.000218583
-0.000796571
0.000240216
-0.000845311
0.000262788
-0.000894471
0.000286274
-0.000943983
0.000310648
-0.00099378
0.000335879
-0.00104379
0.000361934
-0.00109394
0.000388775
-0.00114417
0.000416362
-0.00119439
0.000444652
-0.00124454
0.000473595
-0.00129454
0.000503142
-0.00134432
0.000533234
-0.00139382
0.000563812
-0.00144296
0.000594806
-0.00149169
0.000626139
-0.00153994
0.000657723
-0.00158766
0.000689456
-0.0016348
0.000721219
-0.00168133
0.000752873
-0.00172718
-0.00177198
0.00078429
6.89056e-07
-1.56528e-05
2.43758e-06
-4.95563e-05
5.26016e-06
-8.43949e-05
9.16524e-06
-0.000120175
1.41545e-05
-0.000156913
2.02239e-05
-0.000194623
2.7365e-05
-0.00023331
3.55674e-05
-0.000272976
4.48193e-05
-0.000313612
5.51092e-05
-0.000355207
6.64264e-05
-0.00039774
7.87606e-05
-0.000441184
9.21022e-05
-0.000485507
0.000106442
-0.000530671
0.00012177
-0.000576634
0.000138076
-0.000623349
0.000155349
-0.000670764
0.000173573
-0.000718825
0.000192733
-0.000767474
0.000212811
-0.000816648
0.000233784
-0.000866284
0.000255628
-0.000916315
0.000278315
-0.00096667
0.000301813
-0.00101728
0.000326087
-0.00106807
0.0003511
-0.00111896
0.00037681
-0.00116988
0.000403173
-0.00122075
0.000430141
-0.00127151
0.000457663
-0.00132206
0.000485685
-0.00137234
0.000514148
-0.00142228
0.000542989
-0.0014718
0.000572143
-0.00152084
0.000601534
-0.00156933
0.000631085
-0.00161721
0.000660707
-0.00166442
0.000690302
-0.00171093
0.000719763
-0.00175664
-0.00180122
0.000749006
6.68695e-07
-1.63215e-05
2.35735e-06
-5.1245e-05
5.07909e-06
-8.71167e-05
8.84317e-06
-0.000123939
1.36542e-05
-0.000161724
1.95123e-05
-0.000200481
2.64137e-05
-0.000240212
3.43517e-05
-0.000280914
4.33176e-05
-0.000322578
5.33012e-05
-0.000365191
6.42916e-05
-0.00040873
7.62774e-05
-0.00045317
8.92466e-05
-0.000498476
0.000103186
-0.000544611
0.000118083
-0.000591531
0.000133922
-0.000639188
0.000150686
-0.000687528
0.000168358
-0.000736496
0.000186914
-0.000786031
0.000206333
-0.000836067
0.000226588
-0.000886539
0.000247649
-0.000937375
0.000269483
-0.000988504
0.000292056
-0.00103985
0.000315328
-0.00109134
0.000339257
-0.00114289
0.0003638
-0.00119442
0.000388907
-0.00124586
0.000414529
-0.00129713
0.000440613
-0.00134814
0.000467103
-0.00139883
0.000493939
-0.00144912
0.000521062
-0.00149892
0.000548406
-0.00154818
0.000575903
-0.00159683
0.000603483
-0.00164479
0.00063107
-0.00169201
0.000658583
-0.00173844
0.000685939
-0.001784
-0.00182836
0.000713084
6.45919e-07
-1.69674e-05
2.27297e-06
-5.2872e-05
4.89308e-06
-8.97368e-05
8.51556e-06
-0.000127561
1.31463e-05
-0.000166355
1.87878e-05
-0.000206122
2.5439e-05
-0.000246863
3.30958e-05
-0.00028857
4.17516e-05
-0.000331234
5.13977e-05
-0.000374837
6.20236e-05
-0.000419356
7.36174e-05
-0.000464764
8.61655e-05
-0.000511024
9.9653e-05
-0.000558098