/*--------------------------------*- C++ -*----------------------------------*\
  =========                 |
  \\      /  F ield         | OpenFOAM: The Open Source CFD Toolbox
   \\    /   O peration     | Website:  https://openfoam.org
    \\  /    A nd           | Version:  7
     \\/     M anipulation  |
\*---------------------------------------------------------------------------*/
FoamFile
{
    version     2.0;
    format      ascii;
    class       volVectorField;
    location    "1";
    object      U;
}
// * * * * * * * * * * * * * * * * * * * * * * * * * * * * * * * * * * * * * //

dimensions      [0 1 -1 0 0 0 0];

internalField   nonuniform List<vector> 
12000
(
(0.00208189 -0.00185997 -1.28425e-21)
(0.00928167 -0.00427916 -9.32629e-21)
(0.0179791 -0.00517573 -3.77939e-21)
(0.0277608 -0.00558836 -4.91716e-21)
(0.0382623 -0.00589432 2.09872e-21)
(0.0493025 -0.00617981 -5.9772e-21)
(0.0607679 -0.00646212 8.99044e-21)
(0.0725722 -0.00674447 9.7408e-21)
(0.0846517 -0.00702502 -1.23276e-20)
(0.0969593 -0.00730095 7.1199e-21)
(0.10946 -0.0075703 -1.2136e-21)
(0.122126 -0.00783222 -7.79034e-21)
(0.134936 -0.00808654 -6.92699e-21)
(0.147874 -0.0083335 4.58397e-21)
(0.160926 -0.00857353 1.4367e-20)
(0.174081 -0.00880712 -6.79156e-21)
(0.18733 -0.00903475 -3.03872e-22)
(0.200668 -0.00925683 5.2209e-21)
(0.214087 -0.00947364 -1.16497e-20)
(0.227584 -0.00968539 7.1285e-21)
(0.241153 -0.00989211 -2.90048e-21)
(0.254791 -0.0100937 -2.467e-21)
(0.268493 -0.0102899 7.88428e-21)
(0.282255 -0.0104802 1.20053e-21)
(0.296072 -0.010664 -5.69866e-21)
(0.309938 -0.0108404 -2.87676e-21)
(0.323845 -0.0110082 8.17975e-22)
(0.337785 -0.0111658 5.61734e-21)
(0.351748 -0.0113115 -1.24645e-21)
(0.36572 -0.0114428 1.02956e-21)
(0.379686 -0.0115571 -9.08147e-22)
(0.393626 -0.0116508 2.97817e-21)
(0.407518 -0.0117197 -5.53145e-21)
(0.421333 -0.011759 2.25383e-21)
(0.435037 -0.0117624 -1.55672e-21)
(0.448589 -0.011723 3.4892e-21)
(0.461939 -0.0116321 -2.83066e-21)
(0.475035 -0.0114782 3.03201e-21)
(0.48782 -0.0112448 -2.53404e-21)
(0.500138 -0.0109234 6.73279e-22)
(0.00303439 -0.0031183 3.95968e-21)
(0.0119382 -0.00874648 -1.45891e-20)
(0.0210338 -0.012478 -7.47459e-22)
(0.0308248 -0.0149396 -8.73829e-21)
(0.0412633 -0.0167064 1.75261e-20)
(0.0522564 -0.0180828 -7.97793e-21)
(0.0637129 -0.0192278 1.1124e-21)
(0.0755471 -0.0202301 -1.13698e-21)
(0.0876873 -0.021139 -2.85044e-21)
(0.100078 -0.0219815 5.04662e-21)
(0.112677 -0.0227736 9.57461e-21)
(0.125452 -0.0235255 -3.08085e-21)
(0.138378 -0.0242441 -8.91246e-21)
(0.151437 -0.0249348 -1.57414e-21)
(0.164614 -0.0256018 -4.49958e-21)
(0.177898 -0.0262484 3.35966e-21)
(0.191279 -0.0268774 1.08689e-20)
(0.20475 -0.027491 -5.35734e-21)
(0.218306 -0.0280907 2.20377e-21)
(0.23194 -0.0286776 -8.72399e-22)
(0.245649 -0.0292523 4.9422e-21)
(0.259427 -0.0298148 -1.04273e-20)
(0.273271 -0.0303644 1.10181e-21)
(0.287175 -0.0308999 5.66853e-21)
(0.301134 -0.0314195 -7.27095e-21)
(0.315142 -0.0319204 9.57882e-21)
(0.32919 -0.0323993 -8.11844e-21)
(0.343269 -0.0328516 6.39871e-21)
(0.357368 -0.0332718 -1.93243e-21)
(0.371474 -0.0336531 9.10972e-22)
(0.385569 -0.0339869 2.66764e-21)
(0.399634 -0.0342631 -3.30662e-22)
(0.413644 -0.0344692 -4.00767e-21)
(0.427568 -0.0345904 -1.7456e-21)
(0.441373 -0.0346086 4.57771e-21)
(0.455013 -0.0345023 2.73026e-22)
(0.468437 -0.0342462 -2.2572e-21)
(0.481592 -0.0338075 1.55221e-21)
(0.494419 -0.0331429 -3.30177e-22)
(0.506736 -0.0322259 -9.52917e-22)
(0.00374237 -0.00292437 1.93083e-20)
(0.0144804 -0.0100396 -1.53774e-20)
(0.0248448 -0.0158014 1.02329e-21)
(0.0353572 -0.020269 1.63659e-21)
(0.0462016 -0.0237678 6.99432e-21)
(0.0574419 -0.0265742 -1.39739e-20)
(0.0690783 -0.0288939 1.77448e-20)
(0.0810752 -0.0308753 -6.35876e-21)
(0.0933848 -0.0326198 -5.75086e-21)
(0.10596 -0.0341947 -7.97418e-21)
(0.118761 -0.0356444 -3.36292e-21)
(0.131752 -0.0369987 1.81179e-20)
(0.144908 -0.038278 -1.32322e-20)
(0.158207 -0.0394969 -3.79831e-21)
(0.171633 -0.0406662 2.06965e-20)
(0.185172 -0.0417939 -1.05263e-20)
(0.198814 -0.0428864 8.49883e-21)
(0.212552 -0.0439483 -6.45211e-21)
(0.226378 -0.0449831 9.7165e-21)
(0.240286 -0.0459935 -1.17163e-20)
(0.254271 -0.0469808 2.02532e-21)
(0.268328 -0.0479454 -1.64645e-21)
(0.282451 -0.0488868 3.5063e-21)
(0.296634 -0.0498034 2.19092e-21)
(0.310872 -0.0506925 -4.28338e-21)
(0.325157 -0.0515499 -2.10967e-22)
(0.33948 -0.0523703 8.24421e-22)
(0.353829 -0.0531466 2.55529e-21)
(0.368194 -0.0538701 -3.71404e-21)
(0.382557 -0.0545296 -6.58574e-22)
(0.396901 -0.0551117 1.40856e-21)
(0.411203 -0.0555999 -7.64077e-22)
(0.425437 -0.055974 6.00611e-22)
(0.439569 -0.0562099 1.31775e-21)
(0.453562 -0.0562781 -1.26243e-21)
(0.467367 -0.0561434 2.68884e-21)
(0.480928 -0.0557641 -1.52031e-21)
(0.49419 -0.0550855 1.33392e-21)
(0.507095 -0.0540343 2.00269e-21)
(0.519409 -0.0525651 -1.3763e-21)
(0.00440007 -0.00306168 2.33405e-21)
(0.0169269 -0.0110489 -1.86062e-20)
(0.0288763 -0.0181214 -3.36664e-21)
(0.0406212 -0.0241094 1.55524e-20)
(0.0523769 -0.0291268 -9.20777e-21)
(0.0642874 -0.0333344 6.877e-21)
(0.0764335 -0.0368945 -2.31987e-21)
(0.0888446 -0.0399543 4.02229e-21)
(0.101518 -0.042634 -6.19654e-21)
(0.114436 -0.0450261 -4.24478e-21)
(0.127574 -0.0471992 -1.19469e-20)
(0.140906 -0.0492038 1.04371e-20)
(0.15441 -0.0510767 1.45209e-20)
(0.168065 -0.0528448 -1.46717e-20)
(0.181855 -0.0545283 1.7285e-20)
(0.195767 -0.056142 -2.013e-20)
(0.209788 -0.0576976 1.79077e-20)
(0.223911 -0.0592035 -2.73795e-22)
(0.238126 -0.0606662 -1.61728e-20)
(0.252428 -0.0620902 2.5693e-21)
(0.26681 -0.0634785 1.84914e-21)
(0.281265 -0.0648323 -3.2564e-21)
(0.295787 -0.0661516 4.48043e-21)
(0.310368 -0.0674345 2.70718e-21)
(0.325003 -0.0686778 -3.72783e-21)
(0.33968 -0.0698764 2.89722e-21)
(0.35439 -0.0710231 -5.51555e-22)
(0.369119 -0.0721087 -2.8991e-21)
(0.383854 -0.0731214 5.01426e-21)
(0.398577 -0.0740464 -3.21944e-21)
(0.413266 -0.0748657 3.29455e-21)
(0.427895 -0.0755569 -6.29759e-21)
(0.442436 -0.0760929 4.77908e-21)
(0.456851 -0.0764407 -1.18168e-21)
(0.471097 -0.0765605 -2.6871e-21)
(0.48512 -0.0764043 2.35565e-21)
(0.498858 -0.0759147 -4.27097e-21)
(0.512253 -0.0750154 6.16045e-21)
(0.525251 -0.073601 -9.59837e-22)
(0.53755 -0.0716169 -2.12002e-21)
(0.00503009 -0.00316576 -4.10977e-21)
(0.019299 -0.0116793 -4.33988e-22)
(0.0329408 -0.0195707 5.651e-21)
(0.0461864 -0.0266288 5.29875e-21)
(0.0592094 -0.0328437 -9.56324e-22)
(0.0721635 -0.038269 9.82019e-21)
(0.0851664 -0.0429957 4.19113e-21)
(0.0982938 -0.047132 -1.65447e-20)
(0.111586 -0.0507845 1.10571e-20)
(0.12506 -0.0540477 -7.11563e-21)
(0.138716 -0.0570007 1.87929e-20)
(0.152547 -0.0597069 -8.8736e-21)
(0.166539 -0.0622161 -9.28158e-21)
(0.180681 -0.064567 1.01907e-20)
(0.194958 -0.0667895 -1.8608e-20)
(0.20936 -0.0689066 -7.33706e-21)
(0.223875 -0.070936 1.08122e-20)
(0.238495 -0.0728911 -8.60345e-21)
(0.253212 -0.0747823 1.51788e-20)
(0.268016 -0.0766169 -5.35117e-21)
(0.282902 -0.0783999 -2.16572e-21)
(0.297861 -0.0801341 2.4647e-21)
(0.312885 -0.0818202 1.05703e-21)
(0.327967 -0.0834568 1.25154e-21)
(0.343096 -0.0850403 -5.76321e-22)
(0.358261 -0.086565 -3.01931e-21)
(0.37345 -0.0880226 5.76178e-21)
(0.388648 -0.0894018 -3.23607e-21)
(0.403838 -0.0906885 -5.87537e-21)
(0.418998 -0.0918646 4.29285e-21)
(0.434104 -0.0929078 -7.65301e-22)
(0.449128 -0.0937908 3.78547e-21)
(0.464034 -0.0944802 -3.88974e-21)
(0.478782 -0.0949351 -9.61444e-22)
(0.493323 -0.0951059 2.4411e-21)
(0.507596 -0.0949335 -6.2559e-21)
(0.521529 -0.0943465 3.44061e-21)
(0.535063 -0.093247 -2.70973e-21)
(0.548151 -0.0914962 5.86996e-21)
(0.560411 -0.0890436 -3.13863e-21)
(0.00566229 -0.00324544 1.04685e-20)
(0.0216572 -0.0120752 -1.42179e-20)
(0.0370269 -0.0204758 8.54015e-22)
(0.0519044 -0.0282533 8.6132e-21)
(0.0664109 -0.0353425 -7.78037e-21)
(0.0806769 -0.0417309 1.1697e-20)
(0.0948232 -0.0474479 -1.16759e-20)
(0.108946 -0.0525548 1.05002e-20)
(0.123115 -0.0571277 -6.32772e-21)
(0.137374 -0.0612458 -6.95832e-21)
(0.151751 -0.0649836 1.06951e-20)
(0.166256 -0.0684067 -8.00286e-21)
(0.180895 -0.0715709 1.80064e-20)
(0.195664 -0.0745223 3.76321e-21)
(0.210558 -0.0772982 -1.4441e-20)
(0.22557 -0.0799285 1.06196e-20)
(0.240692 -0.082437 -2.406e-21)
(0.255916 -0.0848422 -1.08529e-20)
(0.271235 -0.0871586 1.91092e-21)
(0.28664 -0.0893968 -7.20405e-22)
(0.302124 -0.0915643 1.56596e-21)
(0.317677 -0.0936658 -1.23966e-22)
(0.33329 -0.0957034 3.08213e-21)
(0.348953 -0.0976764 -6.61299e-21)
(0.364655 -0.0995816 5.70563e-21)
(0.380383 -0.101413 -8.64625e-21)
(0.396121 -0.103161 2.70518e-21)
(0.411852 -0.104813 6.35256e-21)
(0.427555 -0.106354 -1.06357e-21)
(0.443207 -0.107761 6.1387e-21)
(0.458779 -0.109011 -9.72809e-22)
(0.474237 -0.11007 -1.0632e-21)
(0.489544 -0.110899 -7.15242e-21)
(0.504651 -0.111453 2.82776e-21)
(0.519504 -0.111671 3.69293e-21)
(0.534035 -0.111485 -7.10269e-21)
(0.548162 -0.110812 2.98364e-21)
(0.561822 -0.109533 -6.57187e-23)
(0.574977 -0.107476 -9.4785e-22)
(0.587164 -0.104606 -7.48713e-22)
(0.00631663 -0.00331076 2.76056e-21)
(0.0240538 -0.0123219 5.54714e-21)
(0.0411677 -0.0210278 9.99866e-21)
(0.0577387 -0.0292639 -1.50872e-20)
(0.0738478 -0.0369517 1.65023e-21)
(0.0895958 -0.0440479 -1.49047e-20)
(0.10509 -0.0505421 5.37659e-21)
(0.12043 -0.0564555 -8.09178e-22)
(0.135696 -0.0618318 1.09607e-20)
(0.150953 -0.0667269 -1.77644e-21)
(0.166246 -0.071201 -1.22828e-20)
(0.181605 -0.0753129 -3.62341e-21)
(0.19705 -0.0791165 3.08944e-21)
(0.21259 -0.0826597 1.45942e-20)
(0.228231 -0.0859833 2.09814e-21)
(0.243971 -0.0891215 -4.70075e-21)
(0.259808 -0.0921025 1.3365e-20)
(0.275737 -0.0949491 -1.92063e-20)
(0.29175 -0.0976793 1.63592e-20)
(0.307842 -0.100307 4.05737e-21)
(0.324002 -0.102843 -4.96876e-21)
(0.340223 -0.105293 2.61353e-21)
(0.356494 -0.107662 3.92305e-21)
(0.372802 -0.109949 -5.31626e-21)
(0.389134 -0.112152 2.35733e-21)
(0.405476 -0.114266 -1.02755e-21)
(0.421809 -0.11628 -2.60679e-21)
(0.438113 -0.118181 -1.23311e-21)
(0.454365 -0.119951 7.33162e-21)
(0.470537 -0.121568 -1.32342e-20)
(0.486597 -0.123003 1.3755e-20)
(0.502507 -0.12422 -4.18998e-21)
(0.518223 -0.125176 -4.86187e-21)
(0.533692 -0.125817 -2.86657e-22)
(0.548853 -0.126079 4.85309e-21)
(0.563629 -0.125883 -8.67883e-23)
(0.577927 -0.125137 -4.67957e-21)
(0.591681 -0.123703 -3.13578e-21)
(0.604863 -0.121373 4.99763e-21)
(0.616929 -0.118144 -1.79172e-21)
(0.00699593 -0.0033501 4.74486e-21)
(0.026504 -0.0124305 -1.2392e-20)
(0.0453751 -0.0212906 -7.76675e-21)
(0.063668 -0.0297905 2.62584e-21)
(0.0814395 -0.0378567 1.2794e-20)
(0.0987669 -0.0454366 2.41054e-21)
(0.115741 -0.0524984 -5.74468e-21)
(0.132454 -0.0590361 -5.03421e-21)
(0.148988 -0.0650662 2.02069e-21)
(0.165416 -0.0706212 -1.38041e-21)
(0.181794 -0.075743 -1.25561e-20)
(0.198167 -0.0804782 1.10148e-20)
(0.214567 -0.0848734 1.32343e-20)
(0.231016 -0.0889728 -6.05588e-21)
(0.247527 -0.0928164 -8.86314e-21)
(0.264108 -0.0964395 -1.74196e-20)
(0.28076 -0.0998724 7.20601e-21)
(0.297483 -0.10314 1.21888e-21)
(0.314273 -0.106264 2.09598e-21)
(0.331124 -0.109261 -2.42608e-21)
(0.348027 -0.112142 -2.33578e-22)
(0.364974 -0.114918 1.09051e-20)
(0.381952 -0.117592 -5.65886e-21)
(0.398949 -0.120168 3.49311e-21)
(0.415949 -0.122643 4.49505e-21)
(0.432935 -0.125012 -4.09156e-21)
(0.449887 -0.127265 3.94867e-21)
(0.466782 -0.129389 -3.52216e-21)
(0.483594 -0.131365 2.51844e-21)
(0.500291 -0.133168 7.97619e-22)
(0.516837 -0.134768 -3.07976e-21)
(0.533192 -0.136126 5.56844e-23)
(0.549304 -0.137195 4.48788e-21)
(0.565116 -0.137916 2.90854e-21)
(0.580559 -0.138219 -3.50452e-21)
(0.595548 -0.13802 4.56568e-21)
(0.609981 -0.137218 -1.38062e-21)
(0.623784 -0.135658 1.25134e-21)
(0.636939 -0.133095 -2.9509e-21)
(0.648831 -0.129571 1.88405e-21)
(0.00769743 -0.00335709 -1.773e-21)
(0.0290015 -0.0123991 1.75935e-21)
(0.0496375 -0.0212879 -1.55368e-20)
(0.0696609 -0.0298983 1.40331e-20)
(0.0891182 -0.0381665 -8.20235e-21)
(0.108072 -0.0460417 2.02748e-21)
(0.1266 -0.0534829 2.38636e-20)
(0.144784 -0.0604679 4.00127e-22)
(0.162703 -0.0669935 3.97544e-22)
(0.180429 -0.0730724 3.80459e-21)
(0.198026 -0.0787292 1.12996e-20)
(0.215546 -0.0839961 -3.24162e-21)
(0.233028 -0.088909 -2.19433e-20)
(0.250504 -0.0935051 1.16174e-20)
(0.267994 -0.0978202 -2.39042e-21)
(0.285514 -0.101888 -7.1083e-21)
(0.303071 -0.105737 -1.32422e-21)
(0.320668 -0.109394 1.43192e-20)
(0.338303 -0.112882 -1.73293e-20)
(0.355973 -0.116218 1.12066e-20)
(0.37367 -0.119416 3.32097e-21)
(0.391384 -0.122487 -8.20722e-21)
(0.409104 -0.125439 5.75051e-21)
(0.426815 -0.128274 -3.27421e-21)
(0.444501 -0.130992 4.03992e-23)
(0.462142 -0.133587 2.40178e-21)
(0.479716 -0.136052 -1.61971e-20)
(0.497199 -0.138373 5.35452e-21)
(0.51456 -0.140529 -1.78614e-21)
(0.531766 -0.142497 3.61183e-21)
(0.548778 -0.144243 -4.25997e-21)
(0.565549 -0.145728 -4.52855e-21)
(0.582025 -0.146901 4.46933e-21)
(0.598143 -0.1477 1.01087e-21)
(0.613828 -0.148048 -7.32787e-22)
(0.628986 -0.147858 -1.17549e-22)
(0.643504 -0.147022 2.15461e-21)
(0.657301 -0.14537 5.8298e-22)
(0.670368 -0.142623 -4.97565e-21)
(0.682031 -0.138869 2.09529e-22)
(0.00841436 -0.00332612 -4.5483e-21)
(0.031525 -0.0122198 -1.59142e-20)
(0.0539212 -0.0210241 1.09953e-20)
(0.0756667 -0.029616 3.67929e-21)
(0.0968075 -0.0379416 -6.48308e-21)
(0.1174 -0.0459553 -8.40547e-21)
(0.137513 -0.0536136 -5.6672e-21)
(0.157219 -0.0608854 3.48046e-21)
(0.176592 -0.0677545 -1.08613e-21)
(0.195702 -0.0742189 1.19116e-21)
(0.214611 -0.080288 -3.79883e-21)
(0.233374 -0.0859804 -7.40037e-21)
(0.252036 -0.0913206 2.31888e-20)
(0.270634 -0.0963368 -6.37409e-21)
(0.289194 -0.101058 -5.65506e-21)
(0.307734 -0.105514 -1.15468e-20)
(0.326269 -0.109731 1.21349e-20)
(0.344803 -0.113734 2.67043e-21)
(0.363339 -0.117546 -1.38511e-21)
(0.381873 -0.121184 -8.00324e-21)
(0.4004 -0.124663 -1.09904e-22)
(0.41891 -0.127997 5.54847e-21)
(0.43739 -0.131192 -1.47626e-22)
(0.455825 -0.134254 9.87316e-22)
(0.474198 -0.137183 -3.87821e-21)
(0.492487 -0.139975 8.57733e-21)
(0.51067 -0.142623 -1.41697e-20)
(0.528718 -0.145114 1.45536e-20)
(0.546601 -0.147429 -1.56822e-20)
(0.564282 -0.149541 1.77757e-20)
(0.581719 -0.15142 -5.5327e-21)
(0.598864 -0.153021 2.08507e-21)
(0.615657 -0.154294 -2.46367e-21)
(0.632032 -0.155172 2.69211e-21)
(0.647908 -0.155577 1.03661e-21)
(0.663182 -0.155415 -1.86037e-21)
(0.677729 -0.154575 -4.27052e-21)
(0.691464 -0.152874 2.35857e-21)
(0.704383 -0.149997 3.30834e-21)
(0.715766 -0.146082 -6.69997e-22)
(0.00913615 -0.00325135 5.31535e-21)
(0.0340401 -0.0118826 3.70441e-21)
(0.0581726 -0.0204943 1.58868e-20)
(0.0816134 -0.0289541 -1.3892e-20)
(0.104414 -0.0372145 2.68227e-21)
(0.12663 -0.0452356 -4.65857e-21)
(0.148326 -0.0529733 1.36108e-21)
(0.16957 -0.0603918 5.55333e-21)
(0.190428 -0.0674668 -3.07129e-21)
(0.210966 -0.0741854 6.19039e-22)
(0.231244 -0.0805452 6.42311e-21)
(0.251315 -0.0865529 -7.15663e-21)
(0.271226 -0.0922223 4.75469e-21)
(0.291014 -0.0975722 1.00329e-20)
(0.310708 -0.102624 -1.22228e-20)
(0.330332 -0.107402 6.30094e-21)
(0.349899 -0.111927 8.67885e-21)
(0.369419 -0.116224 -1.33957e-20)
(0.388895 -0.120311 -7.24303e-21)
(0.408326 -0.124207 2.12614e-20)
(0.427705 -0.127927 -2.05223e-20)
(0.447023 -0.131483 6.69384e-21)
(0.466268 -0.134885 8.01896e-21)
(0.485423 -0.138138 -5.23756e-22)
(0.50447 -0.141245 4.06349e-21)
(0.523387 -0.144203 -8.88052e-22)
(0.54215 -0.147006 -7.02978e-21)
(0.560728 -0.149641 -3.00025e-21)
(0.57909 -0.152091 1.33707e-20)
(0.597199 -0.154332 -4.1989e-21)
(0.61501 -0.15633 -3.96689e-21)
(0.632472 -0.158043 -2.76273e-21)
(0.649526 -0.159417 3.53194e-21)
(0.6661 -0.160386 -6.19965e-21)
(0.682109 -0.160865 5.52977e-21)
(0.697443 -0.160759 -4.71206e-22)
(0.711969 -0.159955 -1.96499e-21)
(0.72559 -0.158255 -5.51379e-21)
(0.738308 -0.155308 6.43539e-22)
(0.749373 -0.151303 8.89508e-22)
(0.00984872 -0.00312748 5.14244e-21)
(0.0365012 -0.0113781 -3.41782e-21)
(0.0623213 -0.0196926 -1.68048e-22)
(0.0874088 -0.0279165 -3.44872e-21)
(0.111824 -0.0360055 1.39592e-20)
(0.135627 -0.043923 -2.15554e-21)
(0.158881 -0.051624 1.19522e-20)
(0.181649 -0.0590695 2.97734e-22)
(0.203994 -0.0662296 -1.51791e-20)
(0.225974 -0.0730838 1.87107e-20)
(0.247646 -0.0796205 -4.41078e-21)
(0.269059 -0.0858367 -9.95618e-21)
(0.290257 -0.0917367 -1.63907e-20)
(0.311278 -0.0973305 7.70765e-21)
(0.33215 -0.102632 3.26488e-21)
(0.352897 -0.107658 -2.44519e-21)
(0.373534 -0.112427 4.12041e-21)
(0.394072 -0.116958 9.36112e-23)
(0.414513 -0.121267 1.83852e-20)
(0.434857 -0.125371 -1.96032e-20)
(0.455098 -0.129286 8.79776e-22)
(0.475227 -0.133022 -1.96015e-21)
(0.49523 -0.136591 -3.86329e-21)
(0.51509 -0.139998 3.51398e-22)
(0.534789 -0.143247 2.70199e-21)
(0.554302 -0.146337 6.40967e-22)
(0.573605 -0.149264 5.61158e-22)
(0.592668 -0.152018 -7.75333e-21)
(0.611458 -0.154583 7.82714e-21)
(0.629937 -0.156935 -7.14747e-21)
(0.648061 -0.159043 -1.04933e-21)
(0.665779 -0.160866 8.15643e-21)
(0.68303 -0.162349 -1.03567e-21)
(0.699742 -0.163424 -3.82661e-21)
(0.715826 -0.164005 5.2108e-21)
(0.731169 -0.163992 -1.81234e-21)
(0.745627 -0.16327 -2.29209e-21)
(0.759095 -0.161632 2.49989e-21)
(0.771575 -0.158686 -2.23516e-21)
(0.782303 -0.154662 8.25542e-21)
(0.0105347 -0.00295023 3.44024e-22)
(0.0388523 -0.0106999 -1.55001e-21)
(0.0662811 -0.018616 9.3334e-21)
(0.0929425 -0.026509 -5.16468e-21)
(0.118908 -0.0343333 5.54622e-22)
(0.144241 -0.0420524 -7.06767e-21)
(0.169007 -0.0496188 -9.50731e-21)
(0.193266 -0.05699 -4.52933e-21)
(0.217075 -0.0641316 8.19792e-21)
(0.240487 -0.0710173 5.91782e-21)
(0.263552 -0.0776283 -4.17981e-21)
(0.286316 -0.0839541 6.96811e-22)
(0.308817 -0.0899907 -5.07937e-21)
(0.331089 -0.0957405 -1.448e-21)
(0.353161 -0.10121 -6.3925e-21)
(0.375052 -0.106411 1.91185e-20)
(0.396779 -0.111355 -1.23366e-20)
(0.418349 -0.116057 3.52794e-21)
(0.439766 -0.120531 -7.54799e-21)
(0.461029 -0.124791 4.01303e-21)
(0.482132 -0.128851 1.49057e-20)
(0.503063 -0.132723 -5.89776e-21)
(0.523809 -0.136415 1.01916e-20)
(0.544352 -0.139936 -4.27695e-21)
(0.564672 -0.14329 -6.5998e-22)
(0.584745 -0.146479 3.53801e-21)
(0.604544 -0.149499 -7.47642e-21)
(0.624041 -0.152344 1.06961e-20)
(0.643201 -0.155 -1.52933e-20)
(0.661989 -0.157446 9.92044e-21)
(0.680361 -0.159655 -2.95129e-21)
(0.698269 -0.161586 6.25634e-21)
(0.715652 -0.163187 -9.78282e-21)
(0.73244 -0.164389 6.84925e-21)
(0.748545 -0.165104 3.64987e-21)
(0.763851 -0.165231 5.34203e-21)
(0.778208 -0.164651 -4.55452e-21)
(0.7915 -0.163145 1.92609e-21)
(0.803727 -0.160278 3.46041e-21)
(0.814126 -0.156308 -6.68669e-21)
(0.0111731 -0.00271679 -4.25595e-21)
(0.0410275 -0.00984671 1.11526e-20)
(0.0699515 -0.0172689 -3.48064e-21)
(0.0980874 -0.0247445 -3.06864e-21)
(0.125516 -0.0322224 -2.30477e-21)
(0.152307 -0.0396626 8.47327e-22)
(0.178523 -0.0470119 8.57932e-22)
(0.204223 -0.0542234 2.98548e-21)
(0.229458 -0.0612583 5.76298e-21)
(0.254273 -0.0680855 -8.77688e-21)
(0.278713 -0.0746807 1.18344e-20)
(0.302816 -0.0810268 -9.33679e-21)
(0.326615 -0.0871135 1.24672e-20)
(0.35014 -0.0929367 -7.21476e-21)
(0.373413 -0.0984969 7.16852e-22)
(0.396453 -0.103799 8.61203e-21)
(0.419272 -0.10885 1.18266e-21)
(0.441877 -0.113661 2.8183e-21)
(0.46427 -0.118242 -2.77475e-21)
(0.486447 -0.122605 -1.18345e-20)
(0.508401 -0.126761 6.40092e-21)
(0.53012 -0.130721 -4.17164e-21)
(0.551589 -0.134494 1.09262e-20)
(0.572788 -0.138088 -6.78804e-21)
(0.593697 -0.141508 -5.35899e-22)
(0.61429 -0.144758 -4.09885e-22)
(0.634541 -0.147838 6.58954e-22)
(0.654421 -0.150743 9.73741e-21)
(0.673896 -0.153463 -8.23734e-21)
(0.692932 -0.155983 -8.02928e-21)
(0.711488 -0.158279 4.97015e-21)
(0.729519 -0.160313 -3.33972e-21)
(0.74697 -0.162039 2.1107e-21)
(0.763775 -0.163389 3.40129e-21)
(0.77985 -0.164275 -5.867e-21)
(0.795082 -0.164594 2.43248e-22)
(0.809317 -0.164223 4.78815e-21)
(0.82243 -0.162932 -2.85263e-21)
(0.834417 -0.160236 3.41213e-21)
(0.844525 -0.156399 6.62902e-22)
(0.0117392 -0.00242601 2.31194e-21)
(0.04295 -0.00882419 -4.05705e-21)
(0.0732179 -0.0156663 5.82434e-21)
(0.102702 -0.0226484 1.21489e-21)
(0.131488 -0.0297101 1.63e-21)
(0.159649 -0.0368031 -8.5187e-21)
(0.187244 -0.0438658 1.05304e-20)
(0.214324 -0.0508454 -5.80686e-21)
(0.240934 -0.0576987 1.57021e-21)
(0.267112 -0.06439 -2.17418e-22)
(0.292894 -0.0708904 -7.5777e-21)
(0.31831 -0.0771778 -6.87603e-21)
(0.343387 -0.0832367 2.12434e-21)
(0.368148 -0.0890573 -1.29776e-20)
(0.392611 -0.0946352 8.93042e-23)
(0.416789 -0.0999698 8.20704e-21)
(0.440691 -0.105064 -1.77952e-21)
(0.464321 -0.109924 -3.62361e-21)
(0.487678 -0.114556 -2.35215e-21)
(0.510756 -0.118969 7.10488e-21)
(0.533546 -0.123173 -3.57219e-21)
(0.556034 -0.127176 -1.71266e-20)
(0.578203 -0.130986 1.37503e-20)
(0.600033 -0.134612 6.39714e-22)
(0.6215 -0.138059 -1.23828e-20)
(0.642578 -0.141333 5.30286e-21)
(0.663241 -0.144436 7.0068e-21)
(0.683458 -0.147366 2.02816e-21)
(0.703198 -0.150119 -3.28323e-21)
(0.722428 -0.152684 2.54014e-21)
(0.74111 -0.155043 3.60957e-21)
(0.759204 -0.157167 -1.10712e-20)
(0.776663 -0.159014 9.11103e-21)
(0.793428 -0.160524 2.18176e-21)
(0.809426 -0.161614 -4.09929e-23)
(0.824551 -0.162177 -8.6949e-21)
(0.838656 -0.162091 -1.23287e-21)
(0.851606 -0.161111 1.92495e-22)
(0.863395 -0.158693 4.10304e-21)
(0.873287 -0.155075 2.51157e-21)
(0.0122011 -0.0020773 -3.38609e-21)
(0.0445295 -0.00764697 2.40739e-21)
(0.075949 -0.0138358 7.96533e-22)
(0.106627 -0.0202598 9.23964e-21)
(0.136651 -0.0268465 8.76811e-22)
(0.166083 -0.0335347 -8.66592e-21)
(0.194976 -0.0402517 -1.24408e-21)
(0.22337 -0.0469373 -3.10824e-22)
(0.251298 -0.0535437 9.37778e-21)
(0.27879 -0.0600316 -1.07508e-20)
(0.305872 -0.0663681 -6.28825e-22)
(0.332565 -0.0725268 5.32564e-21)
(0.358888 -0.0784881 -5.30661e-21)
(0.384858 -0.084238 1.29597e-20)
(0.410486 -0.0897674 -1.06697e-20)
(0.435781 -0.0950715 -9.55312e-21)
(0.460746 -0.100149 -4.98637e-21)
(0.485382 -0.105001 1.85199e-20)
(0.509684 -0.109632 -4.13182e-21)
(0.533644 -0.114048 -8.32306e-22)
(0.557251 -0.118253 3.62465e-22)
(0.580487 -0.122257 5.87243e-21)
(0.603334 -0.126064 -4.7994e-21)
(0.62577 -0.129683 -1.70224e-20)
(0.64777 -0.13312 5.11895e-21)
(0.669307 -0.136381 1.24816e-21)
(0.690351 -0.139469 -3.91813e-21)
(0.710873 -0.142386 8.29997e-21)
(0.730842 -0.145133 -1.02906e-20)
(0.750224 -0.147704 6.52511e-22)
(0.768987 -0.15009 -5.85498e-22)
(0.787096 -0.152272 -1.85388e-21)
(0.804511 -0.15422 9.50948e-21)
(0.821186 -0.155883 -7.83151e-21)
(0.837061 -0.157187 1.05027e-21)
(0.852051 -0.158036 -1.43719e-21)
(0.866019 -0.158309 4.14272e-21)
(0.878838 -0.157745 -1.15627e-20)
(0.890499 -0.155731 1.01261e-20)
(0.900291 -0.152436 -2.80938e-21)
(0.0125116 -0.00166975 4.97376e-21)
(0.0456588 -0.00634822 -6.22491e-21)
(0.0779994 -0.011823 -1.66095e-21)
(0.109699 -0.0176388 2.88338e-21)
(0.140826 -0.0237023 -2.36048e-21)
(0.171427 -0.029936 -3.38839e-21)
(0.201536 -0.0362548 5.8085e-21)
(0.231174 -0.0425901 1.81082e-21)
(0.260361 -0.0488906 5.2721e-21)
(0.289113 -0.0551146 6.66423e-21)
(0.317445 -0.0612255 -9.35123e-21)
(0.345371 -0.0671933 8.97436e-21)
(0.372901 -0.072995 -1.91158e-21)
(0.400043 -0.0786131 5.41155e-21)
(0.426803 -0.0840349 1.94335e-21)
(0.453183 -0.0892517 1.20163e-20)
(0.479182 -0.0942585 -4.88094e-21)
(0.504797 -0.0990534 -6.83315e-21)
(0.53002 -0.103637 -1.34064e-20)
(0.554839 -0.10801 2.78499e-20)
(0.579239 -0.112178 -8.50258e-21)
(0.603203 -0.116144 1.08812e-20)
(0.626709 -0.119914 -8.31918e-21)
(0.649733 -0.123492 6.66019e-21)
(0.672248 -0.126886 -1.12526e-21)
(0.694226 -0.130098 8.43213e-21)
(0.715636 -0.133135 -5.19195e-21)
(0.736447 -0.136002 5.11271e-21)
(0.756627 -0.138699 5.19647e-21)
(0.776144 -0.14123 -8.91804e-21)
(0.794966 -0.143593 -2.66211e-21)
(0.813062 -0.145779 1.00479e-20)
(0.830399 -0.147773 1.1908e-21)
(0.846946 -0.149544 -3.6687e-21)
(0.86266 -0.151038 2.90726e-21)
(0.877481 -0.152176 -9.45208e-21)
(0.891302 -0.152854 9.14787e-21)
(0.904019 -0.152812 9.50679e-22)
(0.915644 -0.151352 -7.71623e-22)
(0.925505 -0.148496 3.17424e-21)
(0.0126112 -0.00123223 -1.87456e-21)
(0.0462113 -0.00501277 3.35783e-21)
(0.07924 -0.00973917 1.4657e-22)
(0.111798 -0.0149246 -2.07145e-21)
(0.143902 -0.0204242 -2.08404e-21)
(0.175572 -0.0261595 7.5339e-21)
(0.206814 -0.0320321 -2.34454e-21)
(0.237631 -0.0379665 -4.89094e-21)
(0.268012 -0.0439037 -1.11787e-22)
(0.297963 -0.0498058 1.47441e-22)
(0.327491 -0.0556332 2.85995e-21)
(0.356597 -0.0613519 4.29183e-23)
(0.385283 -0.0669363 -1.25646e-20)
(0.413551 -0.0723664 2.06593e-21)
(0.441399 -0.0776262 -1.05348e-21)
(0.468823 -0.0827039 1.09222e-21)
(0.49582 -0.0875913 4.64361e-21)
(0.52238 -0.092283 5.17084e-21)
(0.548492 -0.096776 -7.0975e-21)
(0.574141 -0.101069 4.01984e-21)
(0.59931 -0.105164 -4.25512e-21)
(0.62398 -0.10906 5.33838e-21)
(0.648126 -0.112762 -7.30477e-21)
(0.671722 -0.116273 1.4172e-20)
(0.694742 -0.119594 -1.59737e-20)
(0.717155 -0.122731 -4.3895e-21)
(0.738929 -0.125688 -1.22714e-21)
(0.760031 -0.128468 8.55718e-21)
(0.780429 -0.131075 -7.99876e-21)
(0.80009 -0.133515 6.49427e-21)
(0.81898 -0.135791 -7.09264e-21)
(0.83707 -0.137905 1.57594e-21)
(0.854332 -0.139858 -6.73645e-22)
(0.87074 -0.14164 1.67132e-21)
(0.886272 -0.143227 3.83882e-21)
(0.900894 -0.144577 -1.91822e-21)
(0.914542 -0.145633 -2.40706e-21)
(0.927163 -0.146176 5.90209e-21)
(0.93884 -0.145424 2.02222e-21)
(0.948993 -0.143167 -4.65036e-21)
(0.0123779 -0.00074993 -4.89397e-21)
(0.0459292 -0.00368403 -5.48245e-21)
(0.0793844 -0.0076363 2.19396e-21)
(0.112648 -0.0121185 -3.00111e-21)
(0.145641 -0.0170023 -1.29982e-21)
(0.178303 -0.0221997 2.79981e-21)
(0.210603 -0.0275828 1.03624e-22)
(0.242536 -0.0330712 4.31845e-22)
(0.274044 -0.0385794 -1.63305e-22)
(0.305129 -0.044103 -2.1778e-21)
(0.335788 -0.0495931 3.18803e-21)
(0.366013 -0.05501 7.93512e-21)
(0.395798 -0.0603265 2.6723e-21)
(0.425137 -0.06552 -9.26179e-21)
(0.454023 -0.0705719 -1.43144e-21)
(0.482446 -0.0754673 6.37997e-21)
(0.510396 -0.080195 -5.87529e-21)
(0.537862 -0.0847466 1.24045e-20)
(0.564828 -0.0891161 -7.41875e-21)
(0.591277 -0.0932994 -5.3176e-21)
(0.61719 -0.0972943 9.20718e-22)
(0.642544 -0.101099 9.1454e-21)
(0.667315 -0.104715 -4.0637e-21)
(0.691475 -0.10814 -7.15084e-21)
(0.714997 -0.111376 2.93342e-21)
(0.73785 -0.114424 -3.54714e-21)
(0.760001 -0.117285 8.57822e-22)
(0.781418 -0.119961 -5.629e-21)
(0.802067 -0.122454 6.93434e-21)
(0.821914 -0.124767 1.93591e-21)
(0.840925 -0.126904 -8.03165e-21)
(0.859069 -0.12887 4.33327e-21)
(0.876316 -0.130675 -4.9563e-21)
(0.892642 -0.132325 1.45553e-21)
(0.908028 -0.133825 -1.12869e-21)
(0.92246 -0.135182 -8.41383e-22)
(0.93591 -0.136425 1.69266e-21)
(0.948385 -0.137433 3.62837e-21)
(0.960088 -0.137383 -1.02297e-20)
(0.970673 -0.135845 -1.83555e-21)
(0.011568 -6.00756e-06 1.35777e-21)
(0.044405 -0.00208218 -7.19476e-22)
(0.0779319 -0.00514814 -7.98818e-21)
(0.111689 -0.00883555 -2.62783e-21)
(0.145431 -0.0130203 -1.91034e-21)
(0.178987 -0.0175695 -6.97555e-21)
(0.212259 -0.0224054 2.16386e-21)
(0.245202 -0.0273637 -2.11072e-21)
(0.277775 -0.0323823 2.42932e-21)
(0.309937 -0.037501 1.25485e-21)
(0.341672 -0.042629 4.712e-21)
(0.372964 -0.0477206 -7.83758e-21)
(0.4038 -0.0527476 -4.58424e-21)
(0.434165 -0.0576847 1.88464e-21)
(0.464047 -0.0625104 -2.66216e-21)
(0.493432 -0.0672074 2.58892e-22)
(0.522305 -0.0717615 4.21391e-21)
(0.550649 -0.0761619 -6.37446e-21)
(0.578448 -0.0803996 -1.93501e-22)
(0.605679 -0.084468 -3.07914e-21)
(0.632323 -0.0883619 5.14155e-21)
(0.658356 -0.0920773 -9.83886e-21)
(0.683751 -0.0956113 -4.30733e-21)
(0.708482 -0.0989612 -1.23705e-21)
(0.732521 -0.102125 9.10495e-21)
(0.755837 -0.1051 -6.61608e-21)
(0.7784 -0.107885 3.93166e-21)
(0.800178 -0.110476 1.42305e-21)
(0.82114 -0.112872 -3.216e-21)
(0.841252 -0.11507 6.85061e-21)
(0.860484 -0.117067 -5.70535e-21)
(0.878805 -0.118863 2.95665e-21)
(0.896186 -0.120459 -2.26396e-21)
(0.912599 -0.121857 2.18381e-21)
(0.928025 -0.123063 1.31825e-20)
(0.942447 -0.124106 -1.22815e-20)
(0.955836 -0.125064 -9.71183e-21)
(0.968206 -0.125887 1.03012e-20)
(0.979817 -0.12583 5.45619e-21)
(0.990776 -0.12471 -8.17368e-21)
(0.0125078 -0.000385397 3.00963e-22)
(0.044957 -0.00258606 -1.73105e-21)
(0.0785489 -0.00508066 1.91511e-21)
(0.11266 -0.00808733 -5.404e-22)
(0.146947 -0.0115724 2.22953e-21)
(0.181194 -0.0154405 4.75639e-21)
(0.215257 -0.0196095 -1.88066e-21)
(0.249031 -0.0239674 -3.30704e-21)
(0.282494 -0.0284862 2.67462e-21)
(0.315576 -0.033109 -1.02541e-20)
(0.34824 -0.0377777 4.14506e-21)
(0.38046 -0.0424531 -6.47176e-21)
(0.412212 -0.0471018 8.13438e-21)
(0.443475 -0.051695 -8.6556e-22)
(0.474231 -0.0562086 -7.01042e-21)
(0.50446 -0.0606227 1.20275e-22)
(0.534143 -0.0649207 1.83048e-21)
(0.563258 -0.069089 6.55551e-21)
(0.591786 -0.0731165 -2.71276e-21)
(0.619703 -0.0769939 -8.52185e-21)
(0.646985 -0.0807138 8.74621e-21)
(0.673608 -0.0842697 -1.13707e-20)
(0.699546 -0.0876562 -3.32841e-21)
(0.724771 -0.0908683 -6.9887e-21)
(0.749255 -0.0939014 1.73581e-20)
(0.772971 -0.0967507 -8.33555e-21)
(0.795889 -0.0994111 9.33324e-21)
(0.817981 -0.101877 3.32035e-22)
(0.839221 -0.104142 -1.85444e-21)
(0.859582 -0.106197 -6.90853e-22)
(0.879041 -0.108033 3.70515e-21)
(0.897577 -0.109638 7.96665e-21)
(0.915177 -0.110998 -1.20904e-20)
(0.931834 -0.112092 6.4199e-21)
(0.947558 -0.112897 -2.05813e-21)
(0.962384 -0.113391 -6.71186e-21)
(0.976386 -0.113558 6.40726e-21)
(0.989748 -0.113296 -2.78897e-22)
(1.003 -0.112394 1.46625e-21)
(1.01743 -0.111262 -1.52346e-21)
(0.0142398 -0.00135664 -4.95521e-22)
(0.0479938 -0.00422977 8.58232e-21)
(0.0822084 -0.00685349 8.99779e-21)
(0.116784 -0.00961236 -2.515e-21)
(0.151546 -0.0126391 2.96057e-21)
(0.186333 -0.015946 1.51548e-21)
(0.221014 -0.019508 1.53724e-21)
(0.255482 -0.023278 2.96004e-21)
(0.289668 -0.0272149 -8.94855e-22)
(0.323507 -0.0312714 -1.58733e-22)
(0.356949 -0.0354054 3.02592e-21)
(0.389956 -0.0395789 -6.72896e-21)
(0.422494 -0.0437577 8.82763e-21)
(0.454534 -0.0479123 -7.76933e-21)
(0.486047 -0.0520171 9.13622e-21)
(0.51701 -0.0560507 -9.75008e-21)
(0.547397 -0.0599947 -1.13403e-21)
(0.577183 -0.0638336 -5.46259e-21)
(0.606344 -0.0675541 3.10549e-21)
(0.634853 -0.0711452 2.37594e-21)
(0.662684 -0.0745974 2.24852e-21)
(0.689812 -0.0779025 -4.9576e-21)
(0.716207 -0.0810532 1.08619e-20)