/*--------------------------------*- C++ -*----------------------------------*\
  =========                 |
  \\      /  F ield         | OpenFOAM: The Open Source CFD Toolbox
   \\    /   O peration     | Website:  https://openfoam.org
    \\  /    A nd           | Version:  7
     \\/     M anipulation  |
\*---------------------------------------------------------------------------*/
FoamFile
{
    version     2.0;
    format      ascii;
    class       volScalarField;
    location    "8.1";
    object      p;
}
// * * * * * * * * * * * * * * * * * * * * * * * * * * * * * * * * * * * * * //

dimensions      [1 -1 -2 0 0 0 0];

internalField   nonuniform List<scalar> 
3700
(
0.210083
0.280675
0.336371
0.358169
0.355478
0.371447
0.369073
0.374692
0.385935
0.412738
0.445885
0.47864
0.481499
0.485912
0.502275
0.513797
0.524063
0.527843
0.535559
0.533013
0.141676
0.118175
0.123822
0.110893
0.103905
0.112538
0.122354
0.132159
0.138707
0.152443
0.16805
0.175398
0.164911
0.158892
0.164264
0.180311
0.205076
0.229522
0.259704
0.25571
0.137712
0.102462
0.0865585
0.0589827
0.0458484
0.0479173
0.0526971
0.0639529
0.0726229
0.079645
0.0808405
0.0803658
0.080455
0.0824156
0.0871274
0.0968325
0.108556
0.119625
0.129483
0.135022
0.127953
0.0966959
0.0791553
0.0506634
0.0416974
0.0444266
0.0500115
0.0651047
0.0783767
0.0929442
0.109235
0.114803
0.119938
0.121673
0.122738
0.12401
0.130187
0.142987
0.15919
0.186792
0.0998977
0.0839543
0.0691897
0.0440073
0.0404165
0.043334
0.04925
0.0627287
0.0764058
0.0928151
0.116504
0.131723
0.148086
0.15934
0.168692
0.166729
0.163227
0.165536
0.177036
0.219818
0.0819165
0.0726072
0.0512846
0.0402066
0.0409803
0.0476229
0.0573043
0.0664972
0.077045
0.0908882
0.114299
0.135686
0.162545
0.188
0.208778
0.227638
0.23657
0.246024
0.24891
0.277864
0.067571
0.0556721
0.0380756
0.0417384
0.0505378
0.0660141
0.0827541
0.0948338
0.103616
0.115185
0.121467
0.135817
0.167865
0.203269
0.234703
0.270513
0.304311
0.338225
0.356122
0.397599
0.0521314
0.0421279
0.0359956
0.0440552
0.0566326
0.0772899
0.104269
0.127364
0.14998
0.172677
0.175383
0.18737
0.200946
0.228823
0.264696
0.311039
0.364975
0.423814
0.47101
0.55922
0.0371732
0.0329749
0.0393424
0.0466439
0.0575815
0.0789281
0.108599
0.137741
0.183344
0.224904
0.255831
0.285348
0.312773
0.346402
0.370655
0.403206
0.448872
0.529057
0.603628
0.747551
0.0262116
0.0284478
0.0400833
0.0478321
0.0565643
0.07775
0.104046
0.133544
0.190545
0.256276
0.317427
0.370511
0.434187
0.488314
0.535991
0.585723
0.633376
0.700277
0.801693
0.956716
0.0201909
0.0245265
0.0379309
0.0492232
0.0634223
0.0971199
0.116957
0.139185
0.189752
0.271847
0.365576
0.449449
0.549833
0.628637
0.716652
0.804378
0.892043
0.969688
1.13932
1.12352
0.0172037
0.0223901
0.0384717
0.0570492
0.0910048
0.1469
0.180382
0.235948
0.320485
0.406049
0.507316
0.607291
0.718049
0.816775
0.93469
1.07771
1.22312
1.3489
1.54977
1.49664
0.0165692
0.0244668
0.0449032
0.0840215
0.139878
0.208927
0.28081
0.39811
0.538317
0.686876
0.813904
0.934406
1.05349
1.16369
1.29362
1.46647
1.66077
1.84638
2.10572
2.09181
0.0178885
0.0287342
0.0589411
0.112033
0.176839
0.250246
0.369822
0.543032
0.744117
0.974606
1.15577
1.33591
1.5069
1.67733
1.8824
2.11037
2.33479
2.57691
2.79733
2.99433
0.0178876
0.034823
0.0720372
0.116395
0.194569
0.294979
0.505126
0.7641
1.08345
1.39988
1.66179
1.90547
2.14233
2.39071
2.701
2.9884
3.25787
3.50881
3.66713
3.78731
0.0107081
0.0372143
0.0866323
0.107512
0.268494
0.628844
1.04558
1.47067
1.94264
2.3223
2.60379
2.86774
3.13938
3.44247
3.76715
3.96304
4.07587
4.1231
4.03168
3.909
0.00607427
0.0327447
0.133239
0.362756
0.843991
1.47292
2.05392
2.64449
3.22761
3.57962
3.78327
4.0098
4.22442
4.40125
4.48703
4.41005
4.18973
3.64923
2.78435
1.88355
0.0385512
0.170641
0.486781
1.21884
2.15302
2.89981
3.52364
4.20205
4.77778
4.81659
4.72027
4.73153
4.69607
4.53619
4.03426
3.07751
2.09723
1.33348
1.01823
0.992908
0.304863
0.85875
2.0106
3.21003
4.19183
4.83038
5.41286
5.8899
5.74594
5.29019
4.85305
4.31032
3.39506
2.32782
1.42586
1.02911
0.989323
0.994916
0.997322
0.999445
2.32592
3.65628
4.90448
5.73525
6.25585
6.44188
6.56844
6.24358
4.54792
3.21514
2.38022
1.57574
1.08576
0.987802
0.993045
0.996312
0.999149
0.999971
1.00002
1.00001
6.97943
6.93105
6.88507
6.93558
7.05614
6.78976
6.00247
2.25208
0.655574
1
1
1
1
1
1
1
1
1
1
1
6.91039
6.87566
6.77479
6.69504
6.92865
5.76236
2.57076
1.01023
1
1
1
1
1
1
1
1
1
1
1
1
6.77892
6.84395
6.75639
6.56651
6.29269
3.43654
1.05694
0.998998
1
1
1
1
1
1
1
1
1
1
1
1
6.65478
6.84008
6.8589
6.5265
4.74668
1.50272
0.992538
1.00012
0.999999
1
1
1
1
1
1
1
1
1
1
1
6.49478
6.81835
6.86338
6.33934
2.68402
0.975024
1.00037
0.999994
1
1
1
1
1
1
1
1
1
1
1
1
6.39061
6.71839
6.7466
4.87237
1.37497
1
1
1
1
1
1
1
1
1
1
1
1
1
1
1
6.36498
6.67472
6.57586
3.56193
0.998136
1
1
1
1
1
1
1
1
1
1
1
1
1
1
1
6.50511
6.72715
6.1613
2.04433
0.999979
1
1
1
1
1
1
1
1
1
1
1
1
1
1
1
6.94504
6.66254
4.89029
1.20223
1
1
1
1
1
1
1
1
1
1
1
1
1
1
1
1
7.25071
6.36624
3.49792
0.98739
1
1
1
1
1
1
1
1
1
1
1
1
1
1
1
1
7.45632
6.04443
2.27208
1
1
1
1
1
1
1
1
1
1
1
1
1
1
1
1
1
7.51936
5.37172
1.60174
1
1
1
1
1
1
1
1
1
1
1
1
1
1
1
1
1
7.5748
4.71148
1.16029
1
1
1
1
1
1
1
1
1
1
1
1
1
1
1
1
1
7.38533
3.96085
1.0001
1
1
1
1
1
1
1
1
1
1
1
1
1
1
1
1
1
7.11011
3.27535
1
1
1
1
1
1
1
1
1
1
1
1
1
1
1
1
1
1
6.97352
2.56276
1
1
1
1
1
1
1
1
1
1
1
1
1
1
1
1
1
1
6.73646
1.85976
1
1
1
1
1
1
1
1
1
1
1
1
1
1
1
1
1
1
6.26564
1.327
1
1
1
1
1
1
1
1
1
1
1
1
1
1
1
1
1
1
5.72788
1.00449
1
1
1
1
1
1
1
1
1
1
1
1
1
1
1
1
1
1
4.66012
1.00014
1
1
1
1
1
1
1
1
1
1
1
1
1
1
1
1
1
1
4.65419
1.00014
1
1
1
1
1
1
1
1
1
1
1
1
1
1
1
1
1
1
5.73936
1.00463
1
1
1
1
1
1
1
1
1
1
1
1
1
1
1
1
1
1
6.26958
1.33108
1
1
1
1
1
1
1
1
1
1
1
1
1
1
1
1
1
1
6.71033
1.85045
1
1
1
1
1
1
1
1
1
1
1
1
1
1
1
1
1
1
7.00467
2.54255
1
1
1
1
1
1
1
1
1
1
1
1
1
1
1
1
1
1
7.11352
3.29153
1
1
1
1
1
1
1
1
1
1
1
1
1
1
1
1
1
1
7.36982
3.9763
1.00005
1
1
1
1
1
1
1
1
1
1
1
1
1
1
1
1
1
7.5742
4.71504
1.15761
1
1
1
1
1
1
1
1
1
1
1
1
1
1
1
1
1
7.52296
5.36265
1.60178
1
1
1
1
1
1
1
1
1
1
1
1
1
1
1
1
1
7.45873
6.03856
2.27205
1
1
1
1
1
1
1
1
1
1
1
1
1
1
1
1
1
7.26001
6.37382
3.48225
0.987439
1
1
1
1
1
1
1
1
1
1
1
1
1
1
1
1
6.95224
6.64416
4.87197
1.20795
1
1
1
1
1
1
1
1
1
1
1
1
1
1
1
1
6.5217
6.73936
6.1567
2.03164
0.999976
1
1
1
1
1
1
1
1
1
1
1
1
1
1
1
6.37445
6.68707
6.59281
3.58395
0.998849
1
1
1
1
1
1
1
1
1
1
1
1
1
1
1
6.4008
6.71106
6.72121
4.86859
1.3983
1
1
1
1
1
1
1
1
1
1
1
1
1
1
1
6.49524
6.8028
6.84932
6.29882
2.6616
0.975448
1.00037
0.999994
1
1
1
1
1
1
1
1
1
1
1
1
6.65501
6.84212
6.85729
6.58352
4.73545
1.48856
0.992404
1.00013
0.999999
1
1
1
1
1
1
1
1
1
1
1
6.78285
6.84821
6.76739
6.57324
6.28056
3.46074
1.06174
0.998883
1
1
1
1
1
1
1
1
1
1
1
1
6.90066
6.86891
6.75961
6.68835
6.91643
5.77505
2.5895
1.0119
1
1
1
1
1
1
1
1
1
1
1
1
6.97209
6.92422
6.86929
6.9341
7.06734
6.78606
5.99325
2.24301
0.658195
1
1
1
1
1
1
1
1
1
1
1
2.32257
3.65241
4.90318
5.72956
6.25939
6.43807
6.57255
6.24327
4.5486
3.21568
2.38058
1.57659
1.08653
0.987719
0.99311
0.996341
0.999151
0.999971
1.00002
1.00001
0.306932
0.864157
1.99124
3.21753
4.22225
4.84086
5.41093
5.88518
5.74247
5.28957
4.85474
4.31336
3.39944
2.33179
1.428
1.02948
0.98931
0.994907
0.997318
0.999444
0.0354768
0.161951
0.525886
1.22308
2.1449
2.90589
3.53165
4.20455
4.77508
4.81742
4.72071
4.72856
4.69268
4.53361
4.03379
3.07909
2.09926
1.33451
1.01842
0.992922
0.00801369
0.0300223
0.0926813
0.345312
0.862436
1.49015
2.05883
2.64151
3.22359
3.57899
3.78165
4.00728
4.22
4.39677
4.48578
4.40922
4.18933
3.64948
2.78465
1.88293
0.0156711
0.0373299
0.0785722
0.11288
0.260512
0.626398
1.05256
1.47529
1.94298
2.32019
2.60113
2.86527
3.13645
3.43888
3.7646
3.96226
4.0761
4.12286
4.03126
3.90803
0.0221916
0.0425193
0.072966
0.109596
0.180599
0.28839
0.498862
0.764388
1.0875
1.40205
1.66195
1.90428
2.14083
2.38929
2.7
2.98829
3.25898
3.51039
3.66698
3.78639
0.0214872
0.0385971
0.0597531
0.105016
0.182052
0.247503
0.365257
0.539491
0.742089
0.973707
1.15515
1.33492
1.50588
1.67657
1.88182
2.11106
2.33741
2.57884
2.79739
2.99293
0.0177949
0.0338946
0.0463317
0.0846232
0.154469
0.208901
0.283608
0.399026
0.537084
0.685
0.812399
0.933208
1.05216
1.16203
1.29189
1.46603
1.66186
1.84713
2.10451
2.08901
0.0156378
0.0273012
0.0396387
0.0580945
0.102773
0.14669
0.185532
0.239453
0.322393
0.406757
0.506925
0.60644
0.717094
0.816578
0.935894
1.08061
1.22563
1.34997
1.5487
1.49569
0.0178995
0.0277355
0.0394444
0.0475731
0.0650357
0.0946151
0.117102
0.138473
0.189669
0.273125
0.366873
0.450399
0.551234
0.631172
0.720197
0.807919
0.894298
0.970102
1.13822
1.12296
0.0248119
0.0311608
0.0399952
0.0446423
0.05731
0.0799385
0.0999468
0.131701
0.189897
0.256577
0.318567
0.371934
0.43611
0.490631
0.537778
0.586481
0.633377
0.699982
0.80177
0.956693
0.0372153
0.0349134
0.0383403
0.0427987
0.0601686
0.0822988
0.103932
0.136574
0.182127
0.22437
0.255858
0.285903
0.313128
0.346347
0.370125
0.402462
0.448352
0.529331
0.60434
0.74867
0.0513075
0.0428286
0.0351574
0.0416768
0.0603559
0.0804496
0.100493
0.126647
0.148312
0.170696
0.174607
0.187196
0.200195
0.227992
0.264744
0.311876
0.365897
0.424827
0.471944
0.560056
0.0654332
0.053679
0.0364727
0.0398482
0.0543336
0.0683101
0.0800057
0.0944102
0.102364
0.114522
0.121826
0.135925
0.167913
0.20433
0.23603
0.271706
0.305179
0.338778
0.356859
0.398273
0.0800091
0.0659394
0.0454128
0.0378296
0.043955
0.0498673
0.0565589
0.0675714
0.0780821
0.0917496
0.114257
0.136335
0.164601
0.189872
0.209906
0.228055
0.236996
0.246763
0.249669
0.277931
0.0986984
0.0767848
0.0571134
0.0397921
0.0431565
0.0458063
0.050104
0.0638805
0.0775887
0.0934858
0.117539
0.134018
0.150547
0.16094
0.169554
0.166947
0.163201
0.165243
0.17638
0.219466
0.122046
0.0878362
0.0660911
0.0444272
0.045063
0.0468605
0.0508314
0.0661221
0.0793686
0.0941723
0.11186
0.117158
0.121003
0.121501
0.122119
0.122987
0.128905
0.142001
0.158765
0.186988
0.136032
0.096974
0.0763983
0.0532949
0.0477607
0.0501121
0.0540776
0.0650259
0.0729957
0.0821204
0.0817259
0.0804333
0.0798213
0.0812358
0.0853436
0.0951939
0.107475
0.119137
0.129606
0.135993
0.144234
0.11545
0.110635
0.104374
0.0950133
0.0906983
0.0980354
0.117997
0.143929
0.167626
0.16854
0.16749
0.169015
0.173531
0.172469
0.168964
0.168552
0.168881
0.176603
0.181663
0.208372
0.281696
0.322366
0.354923
0.351833
0.344722
0.343661
0.360489
0.383408
0.413485
0.442046
0.473745
0.478965
0.486864
0.494324
0.489753
0.486193
0.483627
0.5078
0.524952
0.553141
0.643693
0.707999
0.787944
0.817119
0.85815
0.872339
0.900563
0.910309
0.911292
0.914156
0.928385
0.954358
0.968115
0.95754
0.943551
0.941244
0.949696
0.965054
0.965079
0.28817
0.407723
0.541573
0.669069
0.753589
0.824704
0.850672
0.886057
0.899896
0.913663
0.921077
0.936819
0.951429
0.959461
0.956607
0.954145
0.955653
0.961527
0.966716
0.964214
0.136508
0.156025
0.236303
0.340832
0.521508
0.685579
0.767659
0.844185
0.889863
0.921445
0.929544
0.939194
0.941179
0.941247
0.945849
0.954621
0.96146
0.966501
0.965775
0.960757
0.19292
0.21146
0.242515
0.243102
0.256686
0.32893
0.527357
0.711989
0.823016
0.894924
0.940563
0.938927
0.927126
0.925518
0.934364
0.951557
0.962003
0.964326
0.961083
0.958028
0.242329
0.26147
0.270781
0.293912
0.296589
0.285414
0.304654
0.387045
0.583999
0.789705
0.896226
0.921838
0.913369
0.916332
0.925551
0.949779
0.958837
0.957535
0.951894
0.956337
0.304861
0.326436
0.340305
0.343075
0.335453
0.323371
0.325641
0.323713
0.351622
0.483595
0.714052
0.888318
0.902111
0.924509
0.924375
0.94333
0.956378
0.952399
0.948269
0.957438
0.389
0.403015
0.397348
0.396645
0.394381
0.376103
0.368406
0.364106
0.355304
0.365185
0.454141
0.667676
0.864025
0.929988
0.92382
0.941582
0.945295
0.937363
0.944469
0.962369
0.522394
0.497364
0.460437
0.439905
0.438955
0.422354
0.406725
0.399708
0.392904
0.378159
0.384408
0.434984
0.636698
0.857787
0.919286
0.948624
0.934978
0.930726
0.951853
0.966714
0.685437
0.615448
0.537586
0.481366
0.489378
0.489319
0.466196
0.452462
0.428607
0.407699
0.396086
0.403941
0.444984
0.627996
0.859969
0.938093
0.911041
0.923056
0.961776
0.96694
0.871736
0.769875
0.640107
0.563956
0.548729
0.550621
0.524931
0.50408
0.476818
0.436869
0.427785
0.420324
0.427977
0.464908
0.630022
0.846746
0.879079
0.93215
0.971584
0.963163
1.25047
0.995548
0.815578
0.641158
0.59926
0.616029
0.617691
0.601528
0.569433
0.514248
0.47975
0.474101
0.465609
0.467878
0.486075
0.574819
0.753584
0.889186
0.940006
0.952052
2.02824
1.47739
1.22159
0.956714
0.791461
0.747623
0.71799
0.688263
0.641113
0.578488
0.543561
0.53431
0.525299
0.507602
0.482024
0.486731
0.527829
0.646925
0.793166
0.909372
2.50974
2.15282
1.72018
1.37399
1.09824
0.927507
0.789814
0.737379
0.717282
0.689003
0.667259
0.643168
0.613427
0.576309
0.539024
0.512381
0.521678
0.536954
0.580915
0.74904
2.36733
2.3502
2.2264
1.9252
1.56764
1.29566
1.07032
0.924481
0.869911
0.826248
0.772889
0.725429
0.669514
0.61796
0.600408
0.582197
0.566309
0.558082
0.548754
0.583272
1.67941
2.15086
2.22193
2.19624
2.05861
1.77387
1.50221
1.24323
1.07198
0.948925
0.849146
0.790608
0.746879
0.709475
0.699895
0.679063
0.644644
0.615845
0.576085
0.576033
1.10847
1.43735
1.85388
2.11595
2.11324
2.07013
1.93248
1.68872
1.44082
1.24091
1.06622
0.960785
0.912005
0.858971
0.805734
0.745625
0.68321
0.647448
0.632057
0.611702
1.00453
1.04425
1.20734
1.54994
1.8606
2.01921
2.01524
1.97441
1.83455
1.62886
1.40103
1.21092
1.07722
0.969496
0.891151
0.835691
0.77191
0.721304
0.720005
0.69758
1.00009
1.00112
1.01039
1.08012
1.26798
1.56964
1.81988
1.93625
1.92978
1.88768
1.77164
1.5819
1.38443
1.21515
1.08072
1.01256
0.951591
0.880155
0.824881
0.759075
1
1.00001
1.00014
1.0026
1.01872
1.09885
1.28915
1.56099
1.76416
1.85647
1.85197
1.81609
1.71756
1.56066
1.37749
1.21757
1.10773
1.00619
0.92113
0.830021
1
1
1
1.00003
1.00031
1.00385
1.0246
1.10862
1.286
1.52406
1.70486
1.78592
1.78257
1.75583
1.67803
1.53673
1.37922
1.23117
1.12462
0.998506
1
1
1
1
1
1.00005
1.0005
1.00462
1.02752
1.10385
1.26474
1.47238
1.64618
1.72509
1.72175
1.70135
1.64218
1.52671
1.39539
1.19542
1
1
1
1
1
1
1
1.00006
1.00062
1.00455
1.02554
1.09543
1.23463
1.41986
1.57439
1.67
1.66769
1.65367
1.61721
1.46548
1
1
1
1
1
1
1
1
1.00001
1.00006
1.00058
1.00448
1.02075
1.083
1.19786
1.37091
1.50345
1.6081
1.61559
1.59264
1
1
1
1
1
1
1
1
1
1
1.00001
1.00006
1.00046
1.00379
1.01712
1.06383
1.16486
1.31534
1.44295
1.54888
1
1
1
1
1
1
1
1
1
1
1
1
1
1.00005
1.00039
1.00257
1.01412
1.05162
1.13656
1.38803
1.625
2.46396
2.58392
2.08535
1.3099
1.0369
1.00187
1.00005
1
1
1
1
1
1
1
2.34334
2.81623
2.52706
1.54084
1.04821
1.00081
1
1
1
1
1
1
1
1
1
2.93121
2.87071
1.98196
1.15283
1.00524
1.00005
1
1
1
1
1
1
1
1
1
3.25108
2.55738
1.36457
1.01915
1.00018
1
1
1
1
1
1
1
1
1
1
3.32285
1.68379
1.04721
1.00052
1
1
1
1
1
1
1
1
1
1
1
2.06969
1.07381
1.00049
0.999999
1
1
1
1
1
1
1
1
1
1
1
1.10155
1.00057
0.999997
1
1
1
1
1
1
1
1
1
1
1
1
0.998135
0.999864
0.999996
1
1
1
1
1
1
1
1
1
1
1
1
0.999967
1
1
1
1
1
1
1
1
1
1
1
1
1
1
1
1
1
1
1
1
1
1
1
1
1
1
1
1
1
1
1
1
1
1
1
1
1
1
1
1
1
1
1
1
1
1
1
1
1
1
1
1
1
1
1
1
1
1
1
1
1
1
1
1
1
1
1
1
1
1
1
1
1
1
1
1
1
1
1
1
1
1
1
1
1
1
1
1
1
1
1
1
1
1
1
1
1
1
1
1
1
1
1
1
1
1
1
1
1
1
1
1
1
1
1
1
1
1
1
1
1
1
1
1
1
1
1
1
1
1
1
1
1
1
1
1
1
1
1
1
1
1
1
1
1
1
1
1
1
1
1
1
1
1
1
1
1
1
1
1
1
1
1
1
1
1
1
1
1
1
1
1
1
1
1
1
1
1
1
1
1
1
1
1
1
1
1
1
1
1
1
1
1
1
1
1
1
1
1
1
1
1
1
1
1
1
1
1
1
1
1
1
1
1
1
1
1
1
1
1
1
1
1
1
1
1
1
1
1
1
1
1
1
1
1
1
1
1
1
1
1
1
1
1
1
1
1
1
1
1
1
1
1
1
1
1
1
1
1
1
1
1
1
1
1
1
1
1
1
1
1
1
1
1
1
1
1
1
1
1
1
1
1
1
1
1
1
1
1
1
1
1
1
1
1
1
1
1
1
1
1
1
1
1
1
1
1
1
1
1
1
1
1
1
1
1
1
1
1
1
1
1
1
1
1
1
1
1
1
1
1
1
1
1
1
1
1
1
1
1
1
1
1
1
1
1
1
1
1
1
1
1
1
1
1
1
1
1
1
1
1
1
1
1
1
1
1
1
1
1
1
1
1
1
1
1
1
1
1
1
1
1
1
1
1
1
1
1
1
1
1
1
1
1
1
1
1
1
1
1
1
1
1
1
1
1
1
1
1
1
1
1
1
1
1
1
1
1
1
1
1
1
1
1
1
1
1
1
1
1
1
1
1
1
1
1
1
1
1
1
1
1
1
1
1
1
1
1
1
1
1
1
1
1
1
1
1
1
1
1
1
1
1
1
1
1
1
1
1
1
1
1
1
1
1
1
1
1
1
1
1
1
1
1
1
1
1
1
1
1
1
1
1
1
1
1
1
1
1
1
1
1
1
1
1
1
1
1
1
1
1
1
1
1
1
1
1
1
1
1
1
1
1
1
1
1
1
1
1
1
1
1
1
1
1
1
1
1
1
1
1
1
1
1
1
1
1
1
1
1
1
1
1
1
1
1
1
1
1
1
1
1
1
1
1
1
1
1
1
1
1
1
1
1
1
1
1
1
1
1
1
1
1
1
1
1
1
1
1
1
1
1
1
1
1
1
1
1
1
1
1
1
1
1
1
1
1
1
1
1
1
1
1
1
1
1
1
1
1
1
1
1
1
1
1
1
1
1
1
1
1
1
1
1
1
1
1
1
1
1
1
1
1
1
1
1
1
1
1
1
1
1
1
1
1
1
1
1
1
1
1
1
1
1
1
1
1
1
1
1
1
1
1
1
1
1
1
1
1
1
1
1
1
1
1
1
1
1
1
1
1
1
1
1
1
1
1
1
1
1
1
1
1
1
1
1
1
1
1
1
1
1
1
1
1
1
1
1
1
1
1
1
1
1
1
1
1
1
1
1
1
1
1
1
1
1
1
1
1
1
1
1
1
1
1
1
1
1
1
1
1
1
1
1
1
1
1
1
1
1
1
1
1
1
1
1
1
1
1
1
1
1
1
1
1
1
1
1
1
1
1
1
1
1
1
1
1
1
1
1
1
1
1
1
1
1
1
1
1
1
1
1
1
1
1
1
1
1
1
1
1
1
1
1
1
1
1
1
1
1
1
1
1
1
1
1
1
1
1
1
1
1
1
1
1
1
1
1
1
1
1
1
1
1
0.999967
1
1
1
1
1
1
1
1
1
1
1
1
1
1
0.998139
0.999864
0.999996
1
1
1
1
1
1
1
1
1
1
1
1
1.10131
1.00056
0.999997
1
1
1
1
1
1
1
1
1
1
1
1
2.06907
1.07376
1.00049
0.999999
1
1
1
1
1
1
1
1
1
1
1
3.32247
1.68449
1.04728
1.00052
1
1
1
1
1
1
1
1
1
1
1
3.25053
2.55716
1.36493
1.01923
1.00018
1
1
1
1
1
1
1
1
1
1
2.93089
2.86993
1.9815
1.15269
1.00522
1.00005
1
1
1
1
1
1
1
1
1
2.34155
2.81634
2.52721
1.54064
1.04815
1.00081
1
1
1
1
1
1
1
1
1
1.62531
2.46372
2.5842
2.08558
1.30981
1.03685
1.00187
1.00005
1
1
1
1
1
1
1
1.24691
2.03701
2.50935
2.36681
1.68023
1.1089
1.00455
1.00009
1
1
1
1
1
1
1
0.991899
1.47754
2.15443
2.34985
2.14758
1.43703
1.0443
1.00113
1.00001
1
1
1
1
1
1
0.809721
1.20402
1.71951
2.22995
2.22256
1.8531
1.2071
1.01039
1.00014
1
1
1
1
1
1
0.644253
0.953821
1.37568
1.91917
2.19786
2.11646
1.54957
1.08
1.00259
1.00003
1
1
1
1
1
0.602665
0.795054
1.11116
1.57833
2.05735
2.11392
1.86098
1.26795
1.01872
1.00032
1
1
1
1
1
0.615984
0.742116
0.912685
1.3112
1.78374
2.07175
2.02028
1.5699
1.09895
1.00384
1.00005
1
1
1
1
0.620915
0.726561
0.774626
1.04833
1.49972
1.9342
2.01579
1.82043
1.28929
1.02465
1.0005
1
1
1
1
0.606636
0.703241
0.742145
0.913632
1.23147
1.68681
1.97364
1.93579
1.5607
1.1085
1.00462
1.00006
1
1
1
0.557465
0.645247
0.719429
0.878124
1.07527
1.43012
1.83354
1.92918
1.76422
1.28607
1.02743
1.00062
1.00001
1
1
0.491421
0.577475
0.680146
0.822624
0.961801
1.24524
1.62479
1.88737
1.85643
1.524
1.10422
1.00458
1.00006
1
1
0.47445
0.546459
0.66629
0.765909
0.850225
1.07124
1.40435
1.77119
1.85191
1.70506
1.26467
1.02552
1.00058
1.00001
1
0.473562
0.540859
0.649808
0.717156
0.782352
0.966869
1.21368
1.58272
1.81683
1.78705
1.47326
1.0951
1.00443
1.00006
1
0.463731
0.528787
0.618454
0.664447
0.740689
0.91119
1.07571
1.38607
1.71953
1.7835
1.64546
1.23478
1.02086
1.00046
1
0.464899
0.507799
0.578699
0.619826
0.70756
0.858447
0.971077
1.21553
1.55979
1.75645
1.72508
1.41947
1.08295
1.00378
1.00005
0.484043
0.48519
0.54452
0.595846
0.697645
0.80331
0.892274
1.08684
1.37825
1.67793
1.72205
1.5751
1.19723
1.01706
1.00039
0.569522
0.488464
0.518046
0.579223
0.676469
0.741079
0.830827
1.01604
1.22263
1.53725
1.70176
1.67018
1.37099
1.06371
1.00257
0.746146
0.526112
0.52433
0.57093
0.648477
0.685632
0.764327
0.946693
1.10628
1.38053
1.64278
1.66749
1.50392
1.16537
1.0142
0.884598
0.640826
0.536929
0.563537
0.619592
0.652255
0.72484
0.877033
1.00238
1.23119
1.52664
1.65289
1.60846
1.31561
1.05163
0.936214
0.786607
0.578686
0.549559
0.573328
0.632094
0.723983
0.824742
0.92062
1.12453
1.39478
1.6166
1.61513
1.44261
1.13627
0.951923
0.909496
0.745943
0.580171
0.572527
0.611448
0.698546
0.759298
0.830555
0.998489
1.19533
1.4651
1.59219
1.54858
1.38774
0.866747
0.773002
0.651811
0.575161
0.551335
0.54166
0.5225
0.498861
0.463197
0.433228
0.431514
0.420785
0.427136
0.46251
0.629725
0.843336
0.878215
0.928458
0.969849
0.961687
0.683787
0.61865
0.547578
0.49188
0.493152
0.486658
0.46829
0.452563
0.43292
0.418798
0.40246
0.405877
0.444712
0.629281
0.859391
0.941741
0.916231
0.927324
0.963051
0.965777
0.5225
0.498648
0.467365
0.443204
0.440089
0.425197
0.408718
0.402062
0.39463
0.382442
0.387453
0.440336
0.639435
0.86527
0.909372
0.95054
0.94022
0.933529
0.953331
0.965714
0.389117
0.404113
0.40191
0.397028
0.39191
0.376355
0.369477
0.366727
0.359109
0.370208
0.450926
0.670295
0.877692
0.929409
0.91995
0.944091
0.953398
0.942048
0.948619
0.963041
0.303818
0.329456
0.338356
0.338428
0.328618
0.321151
0.322913
0.323199
0.355706
0.492202
0.715766
0.888323
0.909487
0.922942
0.928014
0.952855
0.966708
0.959496
0.951589
0.960058
0.2423
0.261619
0.280201
0.29647
0.293248
0.282812
0.297954
0.376178
0.588173
0.794592
0.895013
0.911278
0.908884
0.913419
0.932622
0.95859
0.970101
0.964629
0.952808
0.956572
0.193188
0.211978
0.23062
0.239063
0.258047
0.328604
0.515821
0.70222
0.824876
0.894263
0.936088
0.922528
0.913644
0.921393
0.941781
0.960314
0.968167
0.966577
0.956456
0.954654
0.136148
0.160974
0.242886
0.350612
0.524646
0.683804
0.771724
0.851399
0.892483
0.920645
0.922784
0.922944
0.928234
0.93953
0.952054
0.96217
0.966289
0.965993
0.957687
0.954042
0.290405
0.425457
0.556871
0.678673
0.753102
0.823741
0.857731
0.898649
0.905179
0.911925
0.913831
0.919724
0.934455
0.950191
0.95462
0.953917
0.952724
0.953548
0.953115
0.953145
0.566476
0.644195
0.709328
0.791866
0.817393
0.864894
0.879364
0.899724
0.897941
0.892578
0.895022
0.914874
0.950521
0.967392
0.960163
0.940103
0.937573
0.946799
0.960786
0.961611
)
;

boundaryField
{
    inlet
    {
        type            fixedValue;
        value           uniform 1;
    }
    outlet
    {
        type            zeroGradient;
    }
    airfoil
    {
        type            zeroGradient;
    }
    top
    {
        type            symmetryPlane;
    }
    bottom
    {
        type            symmetryPlane;
    }
    defaultFaces
    {
        type            empty;
    }
}


// ************************************************************************* //
