/*--------------------------------*- C++ -*----------------------------------*\
  =========                 |
  \\      /  F ield         | OpenFOAM: The Open Source CFD Toolbox
   \\    /   O peration     | Website:  https://openfoam.org
    \\  /    A nd           | Version:  7
     \\/     M anipulation  |
\*---------------------------------------------------------------------------*/
FoamFile
{
    version     2.0;
    format      ascii;
    class       volScalarField;
    location    "9.3";
    object      p;
}
// * * * * * * * * * * * * * * * * * * * * * * * * * * * * * * * * * * * * * //

dimensions      [1 -1 -2 0 0 0 0];

internalField   nonuniform List<scalar> 
3700
(
0.161283
0.224887
0.293879
0.373047
0.387312
0.387593
0.385297
0.400241
0.414604
0.428667
0.43512
0.444015
0.444084
0.452449
0.485243
0.497525
0.510254
0.521354
0.519333
0.527677
0.0895918
0.0988118
0.119112
0.133998
0.126138
0.109361
0.111712
0.11747
0.117598
0.130971
0.156244
0.177318
0.182226
0.172183
0.172808
0.182301
0.199477
0.202378
0.200952
0.196683
0.0721267
0.0786048
0.0811735
0.0737409
0.0556116
0.0458668
0.0494574
0.0566985
0.0640623
0.0728355
0.0848062
0.0941726
0.101336
0.104593
0.103498
0.103026
0.103764
0.105865
0.112688
0.128679
0.0681013
0.071537
0.0722952
0.060063
0.0454745
0.0446747
0.0488963
0.0552656
0.0626973
0.0742233
0.088285
0.100801
0.119138
0.137579
0.146577
0.153824
0.152205
0.150076
0.14935
0.162986
0.0616136
0.0587844
0.0580056
0.0489092
0.0469916
0.0511889
0.0580766
0.0633602
0.0711978
0.0819348
0.0891241
0.0996331
0.11923
0.145548
0.166595
0.186454
0.198712
0.206008
0.205721
0.211305
0.0475631
0.0485382
0.0540797
0.0503861
0.0539656
0.063877
0.0728863
0.0853565
0.100355
0.12095
0.114599
0.117609
0.123087
0.14428
0.17424
0.204961
0.234776
0.262254
0.285905
0.311177
0.0341354
0.0448583
0.0540312
0.054465
0.0593561
0.0722468
0.0805973
0.0998785
0.129364
0.157294
0.165722
0.176954
0.174951
0.182318
0.192952
0.220175
0.259969
0.310284
0.353429
0.422212
0.0261065
0.0420868
0.0535535
0.0553376
0.0602417
0.0764589
0.0823341
0.10326
0.14277
0.179178
0.212601
0.236417
0.26062
0.283724
0.295823
0.314031
0.33385
0.377783
0.434784
0.549165
0.0217271
0.0404995
0.0538852
0.0537545
0.0579242
0.0802583
0.0854922
0.101922
0.141421
0.189253
0.239291
0.278697
0.332621
0.375094
0.416373
0.455192
0.490237
0.529116
0.577889
0.725172
0.0213626
0.0421268
0.0528417
0.0540738
0.0693306
0.0928362
0.104303
0.130335
0.161398
0.19718
0.255578
0.315204
0.394735
0.45949
0.530286
0.604979
0.676991
0.740804
0.816997
0.951499
0.0255025
0.0418778
0.0509969
0.0668145
0.0973668
0.121898
0.154834
0.208695
0.262286
0.314547
0.368764
0.431541
0.506336
0.582219
0.664877
0.772329
0.893893
1.00228
1.17011
1.13071
0.0309576
0.0405663
0.0538527
0.0806207
0.113209
0.148392
0.211099
0.28938
0.383145
0.494028
0.584359
0.674213
0.761573
0.844788
0.922863
1.02939
1.17935
1.33043
1.56495
1.52586
0.0343297
0.0410271
0.0568418
0.0781316
0.106737
0.149969
0.245271
0.341057
0.475058
0.649629
0.793345
0.934934
1.06873
1.19177
1.32643
1.48118
1.64403
1.81746
2.09318
2.09387
0.0336078
0.0377055
0.0534199
0.0606986
0.0895304
0.151845
0.273544
0.421753
0.633123
0.869405
1.08607
1.28217
1.47185
1.65075
1.87586
2.1078
2.33437
2.57162
2.8012
3.01018
0.0209827
0.0302358
0.0580781
0.0605856
0.10467
0.318828
0.55794
0.834368
1.17042
1.47295
1.72466
1.94426
2.16056
2.38761
2.68884
2.97195
3.24489
3.49246
3.65168
3.78637
0.00938468
0.0268824
0.0666339
0.114264
0.348726
0.766724
1.15006
1.55049
1.99264
2.3665
2.6432
2.91192
3.17573
3.45548
3.77436
3.97856
4.09505
4.13167
4.0379
3.91163
0.00628264
0.032933
0.10777
0.397917
0.932394
1.46762
2.00792
2.57593
3.15803
3.52983
3.7692
4.01134
4.21961
4.36974
4.46621
4.3944
4.18086
3.65154
2.79682
1.89318
0.0421719
0.178314
0.516616
1.18609
2.101
2.89393
3.54278
4.20249
4.74503
4.83994
4.7654
4.75667
4.71156
4.53577
4.01675
3.05574
2.08602
1.33253
1.01885
0.992893
0.300574
0.83621
1.97447
3.20271
4.19104
4.82687
5.42146
5.89329
5.74329
5.28555
4.85645
4.32173
3.40224
2.33472
1.4314
1.03102
0.989464
0.994954
0.997333
0.999438
2.3189
3.65297
4.90926
5.68877
6.19067
6.41375
6.55527
6.25442
4.55031
3.20809
2.36548
1.55495
1.07634
0.986975
0.992729
0.996235
0.999163
0.999976
1.00002
1.00001
6.96477
6.91942
6.88504
6.85879
6.93057
6.76064
6.01563
2.4019
0.630402
1
1
1
1
1
1
1
1
1
1
1
6.95219
6.89472
6.83114
6.74338
6.71089
5.77628
2.66456
1.02934
1
1
1
1
1
1
1
1
1
1
1
1
6.8089
6.84988
6.83688
6.74523
6.45998
3.31457
1.02229
0.999629
1
1
1
1
1
1
1
1
1
1
1
1
6.69674
6.82279
6.81912
6.56304
4.67168
1.38129
0.995055
1.00009
0.999999
1
1
1
1
1
1
1
1
1
1
1
6.56056
6.82703
6.80565
5.99496
2.78766
0.974619
1.00035
0.999994
1
1
1
1
1
1
1
1
1
1
1
1
6.43401
6.80779
6.81933
5.04034
1.45681
1
1
1
1
1
1
1
1
1
1
1
1
1
1
1
6.35861
6.67124
6.69401
3.51511
0.973572
1
1
1
1
1
1
1
1
1
1
1
1
1
1
1
6.46884
6.60795
6.00782
2.06306
1
1
1
1
1
1
1
1
1
1
1
1
1
1
1
1
7.00545
6.69865
4.89122
1.17184
1
1
1
1
1
1
1
1
1
1
1
1
1
1
1
1
7.26075
6.3855
3.46343
0.98809
1
1
1
1
1
1
1
1
1
1
1
1
1
1
1
1
7.41504
5.97337
2.33461
1
1
1
1
1
1
1
1
1
1
1
1
1
1
1
1
1
7.47839
5.42662
1.60781
1
1
1
1
1
1
1
1
1
1
1
1
1
1
1
1
1
7.51373
4.74318
1.18194
1
1
1
1
1
1
1
1
1
1
1
1
1
1
1
1
1
7.39131
4.00854
1.01396
1
1
1
1
1
1
1
1
1
1
1
1
1
1
1
1
1
7.25928
3.1575
1
1
1
1
1
1
1
1
1
1
1
1
1
1
1
1
1
1
6.877
2.51221
1
1
1
1
1
1
1
1
1
1
1
1
1
1
1
1
1
1
6.65385
1.94222
1
1
1
1
1
1
1
1
1
1
1
1
1
1
1
1
1
1
6.3653
1.37807
1
1
1
1
1
1
1
1
1
1
1
1
1
1
1
1
1
1
5.65279
1.00576
1
1
1
1
1
1
1
1
1
1
1
1
1
1
1
1
1
1
4.65194
1.00005
1
1
1
1
1
1
1
1
1
1
1
1
1
1
1
1
1
1
4.65936
1.00005
1
1
1
1
1
1
1
1
1
1
1
1
1
1
1
1
1
1
5.64358
1.00551
1
1
1
1
1
1
1
1
1
1
1
1
1
1
1
1
1
1
6.35661
1.37224
1
1
1
1
1
1
1
1
1
1
1
1
1
1
1
1
1
1
6.67527
1.94362
1
1
1
1
1
1
1
1
1
1
1
1
1
1
1
1
1
1
6.87403
2.53297
1
1
1
1
1
1
1
1
1
1
1
1
1
1
1
1
1
1
7.23332
3.15777
1
1
1
1
1
1
1
1
1
1
1
1
1
1
1
1
1
1
7.40842
3.99778
1.00944
1
1
1
1
1
1
1
1
1
1
1
1
1
1
1
1
1
7.52692
4.73383
1.17858
1
1
1
1
1
1
1
1
1
1
1
1
1
1
1
1
1
7.48055
5.4247
1.60327
1
1
1
1
1
1
1
1
1
1
1
1
1
1
1
1
1
7.40781
5.98575
2.33447
1
1
1
1
1
1
1
1
1
1
1
1
1
1
1
1
1
7.24152
6.37463
3.49206
0.988018
1
1
1
1
1
1
1
1
1
1
1
1
1
1
1
1
6.99702
6.71053
4.9067
1.16466
1
1
1
1
1
1
1
1
1
1
1
1
1
1
1
1
6.47816
6.60841
6.0187
2.06494
1
1
1
1
1
1
1
1
1
1
1
1
1
1
1
1
6.3536
6.66612
6.66508
3.49002
0.973905
1
1
1
1
1
1
1
1
1
1
1
1
1
1
1
6.41861
6.79411
6.83071
5.06845
1.44049
1
1
1
1
1
1
1
1
1
1
1
1
1
1
1
6.54782
6.83007
6.81604
6.01228
2.81226
0.974179
1.00035
0.999994
1
1
1
1
1
1
1
1
1
1
1
1
6.69808
6.8281
6.81861
6.50006
4.66843
1.39361
0.995157
1.00009
0.999999
1
1
1
1
1
1
1
1
1
1
1
6.81581
6.8546
6.83664
6.75169
6.48135
3.30175
1.02181
0.999675
1
1
1
1
1
1
1
1
1
1
1
1
6.95811
6.898
6.83411
6.75962
6.74337
5.78355
2.64533
1.02628
1
1
1
1
1
1
1
1
1
1
1
1
6.97112
6.92389
6.8851
6.85352
6.91809
6.76487
6.02115
2.40538
0.627098
1
1
1
1
1
1
1
1
1
1
1
2.31991
3.65601
4.91958
5.69009
6.17032
6.40734
6.55002
6.25636
4.5548
3.21243
2.36953
1.55709
1.07646
0.986983
0.992719
0.99622
0.999156
0.999975
1.00002
1.00001
0.30096
0.836106
1.96515
3.20499
4.18599
4.81588
5.41439
5.89456
5.74414
5.28432
4.85393
4.31968
3.40016
2.33311
1.43104
1.03111
0.989469
0.994957
0.997335
0.999439
0.0415951
0.176839
0.535261
1.19179
2.1034
2.89487
3.53932
4.2001
4.74365
4.83378
4.75534
4.75691
4.71283
4.5384
4.02082
3.05793
2.0853
1.33166
1.0187
0.99289
0.00665413
0.0317317
0.0969518
0.400438
0.93425
1.47229
2.01713
2.58554
3.16037
3.52824
3.76603
4.01074
4.22283
4.37566
4.46774
4.39478
4.17979
3.64942
2.79521
1.89281
0.00957544
0.0258932
0.0561739
0.114932
0.34238
0.764189
1.15326
1.55462
1.99605
2.36731
2.64164
2.91184
3.1792
3.4605
3.77727
3.97727
4.09159
4.12989
4.03655
3.91135
0.0214294
0.0290834
0.0559599
0.0598659
0.104643
0.31124
0.550896
0.826549
1.16094
1.46366
1.71695
1.94082
2.16078
2.38912
2.68987
2.97142
3.24287
3.49095
3.65155
3.78715
0.0367722
0.0374409
0.0514823
0.0602366
0.0951551
0.154802
0.272969
0.419676
0.629339
0.867535
1.08625
1.28547
1.4763
1.65462
1.87769
2.10793
2.33317
2.57026
2.80055
3.0095
0.0394331
0.0400079
0.0530666
0.0778219
0.113234
0.153409
0.247102
0.343465
0.479306
0.653522
0.797421
0.938815
1.07166
1.19327
1.32621
1.47983
1.64266
1.8161
2.09251
2.09407
0.0370325
0.0392719
0.048686
0.0790485
0.115511
0.149492
0.212153
0.290261
0.384655
0.494547
0.584984
0.673996
0.760312
0.842642
0.921143
1.0292
1.18076
1.33185
1.5654
1.5258
0.0316848
0.0409667
0.0460341
0.0636527
0.0965225
0.120819
0.154305
0.207312
0.26036
0.311201
0.365034
0.428312
0.504782
0.582295
0.666872
0.775158
0.895684
1.0024
1.16894
1.12943
0.0270136
0.0424564
0.0484777
0.0510729
0.0671401
0.0917685
0.105679
0.130972
0.160865
0.197507
0.257097
0.31676
0.396781
0.461629
0.532063
0.605577
0.676264
0.738663
0.814805
0.950167
0.0273685
0.0419371
0.0506632
0.0511386
0.0580961
0.0814241
0.0870706
0.10363
0.143098
0.191341
0.241301
0.280519
0.333808
0.375631
0.415723
0.453186
0.486863
0.526143
0.57618
0.725129
0.031095
0.0438123
0.0499764
0.0519779
0.0608515
0.077954
0.0830472
0.104434
0.14403
0.180481
0.213419
0.236955
0.259659
0.281641
0.292829
0.310833
0.33161
0.378337
0.436547
0.550714
0.0378203
0.0458584
0.0494854
0.0511674
0.0596502
0.0731658
0.0804783
0.100203
0.129854
0.15775
0.163847
0.174432
0.172526
0.179933
0.192389
0.221707
0.262423
0.312478
0.355085
0.423164
0.0508816
0.0484815
0.0491999
0.0483425
0.0535443
0.0641811
0.072229
0.0846859
0.0997044
0.119043
0.113164
0.116149
0.123481
0.146661
0.176787
0.206995
0.236302
0.263015
0.286038
0.310211
0.0665678
0.0595494
0.0542872
0.0455681
0.0458368
0.0512252
0.0575189
0.0631194
0.0713674
0.081594
0.0898089
0.101189
0.121542
0.147836
0.16818
0.187222
0.198431
0.204704
0.20417
0.209816
0.0705457
0.0726188
0.0718987
0.0581977
0.0448574
0.0453542
0.0493569
0.0557977
0.0636867
0.0754672
0.0896831
0.102639
0.121073
0.13872
0.146648
0.152759
0.150878
0.148837
0.1484
0.163134
0.0726484
0.0791533
0.0799415
0.0714852
0.0564301
0.0466366
0.0500307
0.0574066
0.0649526
0.0737032
0.086308
0.0952302
0.101208
0.103766
0.10259
0.102
0.102797
0.105305
0.11326
0.129432
0.0881054
0.107505
0.122493
0.123178
0.121707
0.107115
0.0985386
0.110992
0.129921
0.143078
0.154859
0.174465
0.197783
0.216787
0.224233
0.207764
0.185281
0.185503
0.202851
0.216045
0.157034
0.262069
0.316863
0.36927
0.385033
0.383126
0.378561
0.393125
0.425101
0.437544
0.436681
0.45739
0.462672
0.475012
0.497103
0.495756
0.489936
0.510441
0.528537
0.535515
0.565713
0.635662
0.716498
0.817423
0.812003
0.831425
0.83498
0.872158
0.906048
0.922306
0.929045
0.934391
0.937925
0.953856
0.968158
0.963618
0.949893
0.943444
0.945186
0.959431
0.293742
0.416815
0.544072
0.695297
0.760249
0.821627
0.8353
0.864037
0.901329
0.930472
0.943799
0.949179
0.942708
0.942417
0.954968
0.961435
0.96126
0.959588
0.955875
0.96006
0.139651
0.158917
0.234654
0.346084
0.545496
0.695613
0.766749
0.834707
0.892424
0.926283
0.93678
0.940375
0.935217
0.935181
0.944193
0.95838
0.964506
0.965772
0.96371
0.961605
0.189442
0.214096
0.237948
0.242376
0.267865
0.353649
0.555418
0.729018
0.821321
0.89222
0.931843
0.929754
0.9238
0.924017
0.934926
0.952737
0.965138
0.966764
0.963775
0.959618
0.230457
0.263623
0.270128
0.289072
0.304683
0.299677
0.319475
0.407258
0.583815
0.76764
0.886556
0.9126
0.918777
0.920148
0.929263
0.950062
0.966046
0.964589
0.958348
0.957093
0.303873
0.323802
0.329956
0.331314
0.334974
0.340828
0.343275
0.334298
0.352889
0.46994
0.694161
0.861434
0.908515
0.926418
0.927599
0.946877
0.963862
0.96069
0.953569
0.957687
0.400243
0.403541
0.388276
0.377085
0.382434
0.38876
0.384483
0.37855
0.365217
0.367314
0.44661
0.652229
0.849071
0.92733
0.922855
0.943088
0.954463
0.946761
0.9509
0.959827
0.530509
0.507563
0.462666
0.410273
0.405835
0.423244
0.427676
0.422611
0.409854
0.390691
0.390163
0.44141
0.625509
0.842367
0.903969
0.949565
0.942861
0.937983
0.955532
0.96486
0.683457
0.622255
0.550304
0.470607
0.455107
0.46982
0.47424
0.465453
0.446352
0.423029
0.404925
0.406358
0.446401
0.623385
0.850192
0.940336
0.915614
0.928695
0.963179
0.965498
0.864743
0.773945
0.666181
0.557115
0.518722
0.513177
0.513881
0.502941
0.490941
0.457582
0.43082
0.417529
0.423706
0.457528
0.621553
0.832804
0.873065
0.925321
0.968841
0.962393
1.24387
0.967191
0.842442
0.710828
0.585917
0.565096
0.568361
0.575739
0.567389
0.543975
0.494776
0.468109
0.464277
0.467056
0.481007
0.562916
0.739031
0.881084
0.941077
0.954116
2.04804
1.44209
1.17426
1.04112
0.850373
0.733111
0.666864
0.652278
0.630291
0.598869
0.567147
0.55138
0.538938
0.518504
0.488573
0.489258
0.523772
0.63622
0.792027
0.914826
2.50812
2.17437
1.69149
1.36196
1.13022
0.952127
0.801602
0.729635
0.697206
0.653054
0.640445
0.63232
0.616512
0.587556
0.554765
0.521624
0.523228
0.532264
0.576034
0.75025
2.3659
2.35009
2.23648
1.91498
1.55589
1.28783
1.10229
0.942205
0.874219
0.816909
0.752347
0.699594
0.658596
0.623594
0.605108
0.587195
0.563453
0.553303
0.545879
0.579849
1.67985
2.14516
2.22104
2.19348
2.06331
1.77882
1.49691
1.23488
1.07065
0.970701
0.868012
0.797333
0.731865
0.695329
0.701072
0.693052
0.657288
0.616241
0.567824
0.571405
1.10881
1.43643
1.84821
2.1145
2.11498
2.07526
1.93163
1.6888
1.42211
1.22946
1.08389
0.983461
0.914
0.841191
0.790592
0.750299
0.701312
0.65282
0.628875
0.612199
1.00453
1.0443
1.20553
1.55148
1.86302
2.02125
2.0145
1.97248
1.83202
1.61886
1.40786
1.21463
1.08595
0.978688
0.873816
0.816639
0.781226
0.737465
0.724643
0.696851
1.00009
1.00111
1.01054
1.07897
1.27062
1.57381
1.82499
1.93379
1.92748
1.88518
1.77154
1.58111
1.37925
1.23005
1.0864
0.994728
0.94438
0.889924
0.831841
0.757454
1
1.00001
1.00015
1.00245
1.01967
1.09938
1.29053
1.55501
1.77217
1.85735
1.85207
1.81719
1.71348
1.55592
1.3859
1.2168
1.09599
1.00585
0.926937
0.829446
1
1
1
1.00003
1.00035
1.00371
1.02476
1.10887
1.28763
1.51642
1.70823
1.7917
1.78629
1.75631
1.67956
1.54026
1.37843
1.22923
1.12685
0.999366
1
1
1
1
1
1.00004
1.00051
1.00472
1.0261
1.10704
1.2651
1.47376
1.63458
1.72827
1.72597
1.70617
1.64631
1.53014
1.39812
1.19635
1
1
1
1
1
1
1
1.00006
1.00055
1.00516
1.02396
1.09666
1.23345
1.42734
1.56731
1.66516
1.66534
1.6546
1.61909
1.46668
1
1
1
1
1
1
1
1
1.00001
1.00007
1.00051
1.00466
1.02176
1.07937
1.19893
1.37249
1.51174
1.59507
1.61288
1.59146
1
1
1
1
1
1
1
1
1
1
1
1.00006
1.00049
1.00337
1.0184
1.06288
1.16398
1.3147
1.44451
1.54835
1
1
1
1
1
1
1
1
1
1
1
1
1
1.00005
1.00042
1.00252
1.01415
1.05146
1.13667
1.38839
1.62245
2.46316
2.58132
2.08527
1.31077
1.03702
1.00187
1.00005
1
1
1
1
1
1
1
2.346
2.81551
2.52662
1.54161
1.04854
1.00082
1
1
1
1
1
1
1
1
1
2.93436
2.8702
1.98034
1.15235
1.00521
1.00005
1
1
1
1
1
1
1
1
1
3.25592
2.55835
1.36398
1.01914
1.00018
1
1
1
1
1
1
1
1
1
1
3.3246
1.68344
1.04715
1.00052
1
1
1
1
1
1
1
1
1
1
1
2.06736
1.07322
1.00048
0.999999
1
1
1
1
1
1
1
1
1
1
1
1.10213
1.00055
0.999997
1
1
1
1
1
1
1
1
1
1
1
1
0.998145
0.999865
0.999996
1
1
1
1
1
1
1
1
1
1
1
1
0.999966
1
1
1
1
1
1
1
1
1
1
1
1
1
1
1
1
1
1
1
1
1
1
1
1
1
1
1
1
1
1
1
1
1
1
1
1
1
1
1
1
1
1
1
1
1
1
1
1
1
1
1
1
1
1
1
1
1
1
1
1
1
1
1
1
1
1
1
1
1
1
1
1
1
1
1
1
1
1
1
1
1
1
1
1
1
1
1
1
1
1
1
1
1
1
1
1
1
1
1
1
1
1
1
1
1
1
1
1
1
1
1
1
1
1
1
1
1
1
1
1
1
1
1
1
1
1
1
1
1
1
1
1
1
1
1
1
1
1
1
1
1
1
1
1
1
1
1
1
1
1
1
1
1
1
1
1
1
1
1
1
1
1
1
1
1
1
1
1
1
1
1
1
1
1
1
1
1
1
1
1
1
1
1
1
1
1
1
1
1
1
1
1
1
1
1
1
1
1
1
1
1
1
1
1
1
1
1
1
1
1
1
1
1
1
1
1
1
1
1
1
1
1
1
1
1
1
1
1
1
1
1
1
1
1
1
1
1
1
1
1
1
1
1
1
1
1
1
1
1
1
1
1
1
1
1
1
1
1
1
1
1
1
1
1
1
1
1
1
1
1
1
1
1
1
1
1
1
1
1
1
1
1
1
1
1
1
1
1
1
1
1
1
1
1
1
1
1
1
1
1
1
1
1
1
1
1
1
1
1
1
1
1
1
1
1
1
1
1
1
1
1
1
1
1
1
1
1
1
1
1
1
1
1
1
1
1
1
1
1
1
1
1
1
1
1
1
1
1
1
1
1
1
1
1
1
1
1
1
1
1
1
1
1
1
1
1
1
1
1
1
1
1
1
1
1
1
1
1
1
1
1
1
1
1
1
1
1
1
1
1
1
1
1
1
1
1
1
1
1
1
1
1
1
1
1
1
1
1
1
1
1
1
1
1
1
1
1
1
1
1
1
1
1
1
1
1
1
1
1
1
1
1
1
1
1
1
1
1
1
1
1
1
1
1
1
1
1
1
1
1
1
1
1
1
1
1
1
1
1
1
1
1
1
1
1
1
1
1
1
1
1
1
1
1
1
1
1
1
1
1
1
1
1
1
1
1
1
1
1
1
1
1
1
1
1
1
1
1
1
1
1
1
1
1
1
1
1
1
1
1
1
1
1
1
1
1
1
1
1
1
1
1
1
1
1
1
1
1
1
1
1
1
1
1
1
1
1
1
1
1
1
1
1
1
1
1
1
1
1
1
1
1
1
1
1
1
1
1
1
1
1
1
1
1
1
1
1
1
1
1
1
1
1
1
1
1
1
1
1
1
1
1
1
1
1
1
1
1
1
1
1
1
1
1
1
1
1
1
1
1
1
1
1
1
1
1
1
1
1
1
1
1
1
1
1
1
1
1
1
1
1
1
1
1
1
1
1
1
1
1
1
1
1
1
1
1
1
1
1
1
1
1
1
1
1
1
1
1
1
1
1
1
1
1
1
1
1
1
1
1
1
1
1
1
1
1
1
1
1
1
1
1
1
1
1
1
1
1
1
1
1
1
1
1
1
1
1
1
1
1
1
1
1
1
1
1
1
1
1
1
1
1
1
1
1
1
1
1
1
1
1
1
1
1
1
1
1
1
1
1
1
1
1
1
1
1
1
1
1
1
1
1
1
1
1
1
1
1
1
1
1
1
1
1
1
1
1
1
1
1
1
1
1
1
1
1
1
1
1
1
1
1
1
1
1
1
1
1
1
1
1
1
1
1
1
1
1
1
1
1
1
1
1
1
1
1
1
1
1
1
1
1
1
1
1
1
1
1
1
1
1
1
1
1
1
1
1
1
1
1
1
1
1
1
1
1
1
1
1
1
1
1
1
1
1
1
1
1
1
1
1
1
1
1
1
1
1
1
1
1
1
1
1
1
0.999966
1
1
1
1
1
1
1
1
1
1
1
1
1
1
0.998144
0.999865
0.999996
1
1
1
1
1
1
1
1
1
1
1
1
1.10216
1.00056
0.999997
1
1
1
1
1
1
1
1
1
1
1
1
2.06784
1.0733
1.00048
0.999999
1
1
1
1
1
1
1
1
1
1
1
3.32529
1.68348
1.04716
1.00052
1
1
1
1
1
1
1
1
1
1
1
3.25623
2.55843
1.36375
1.0191
1.00018
1
1
1
1
1
1
1
1
1
1
2.93476
2.8705
1.98039
1.15229
1.0052
1.00005
1
1
1
1
1
1
1
1
1
2.34615
2.81581
2.52644
1.54162
1.04858
1.00082
1
1
1
1
1
1
1
1
1
1.62325
2.46349
2.58112
2.08506
1.31076
1.03702
1.00187
1.00005
1
1
1
1
1
1
1
1.24096
2.04747
2.50877
2.36629
1.68059
1.10891
1.00453
1.00009
1
1
1
1
1
1
1
0.967812
1.43775
2.17194
2.35055
2.14358
1.43647
1.04432
1.00111
1.00001
1
1
1
1
1
1
0.846367
1.17849
1.69184
2.23396
2.22117
1.84827
1.20581
1.01058
1.00015
1
1
1
1
1
1
0.707459
1.03911
1.36846
1.91179
2.19441
2.11488
1.55077
1.0787
1.00244
1.00003
1
1
1
1
1
0.58384
0.834671
1.12577
1.5695
2.06467
2.11492
1.86289
1.26982
1.01949
1.00034
1
1
1
1
1
0.573148
0.739044
0.936146
1.28127
1.78127
2.07558
2.02102
1.57262
1.0994
1.00374
1.00004
1
1
1
1
0.580226
0.684157
0.805408
1.08711
1.49137
1.93162
2.0141
1.82494
1.29024
1.02464
1.00051
1
1
1
1
0.576052
0.657201
0.738553
0.946709
1.24031
1.686
1.97176
1.93407
1.55556
1.10892
1.00471
1.00006
1
1
1
0.559684
0.618703
0.695288
0.883837
1.07926
1.42236
1.83285
1.92755
1.77054
1.28735
1.02625
1.00056
1.00001
1
1
0.536223
0.584977
0.659709
0.819238
0.96796
1.2391
1.62045
1.88571
1.85804
1.51706
1.10653
1.0051
1.00007
1
1
0.500197
0.561019
0.655014
0.754879
0.855684
1.08834
1.40581
1.77201
1.853
1.7086
1.26512
1.02394
1.00051
1
1
0.470887
0.546303
0.640476
0.701739
0.786742
0.98719
1.2163
1.57975
1.81762
1.79119
1.47334
1.09686
1.00469
1.00006
1
0.466179
0.535694
0.617993
0.656831
0.720455
0.910115
1.08764
1.38173
1.7146
1.78607
1.63555
1.23342
1.0217
1.00049
1
0.4705
0.517927
0.587041
0.620171
0.693081
0.839682
0.974486
1.22802
1.55756
1.7566
1.72876
1.42746
1.07942
1.00338
1.00005
0.485125
0.488446
0.554987
0.606904
0.699836
0.791593
0.875731
1.08489
1.38403
1.67949
1.7261
1.56745
1.19919
1.01844
1.00042
0.561805
0.488134
0.521432
0.591801
0.691715
0.749092
0.821758
0.999677
1.21575
1.53949
1.70569
1.6654
1.37271
1.06297
1.00252
0.734829
0.521305
0.522674
0.568809
0.658316
0.698626
0.779887
0.947461
1.09704
1.37784
1.6456
1.66543
1.51147
1.16393
1.01413
0.877161
0.632583
0.531967
0.558476
0.619875
0.653627
0.733704
0.889189
1.00554
1.22801
1.52957
1.65469
1.59514
1.31468
1.05143
0.936122
0.7866
0.57643
0.549844
0.573809
0.626828
0.724608
0.830037
0.925774
1.1256
1.39785
1.61917
1.61308
1.44461
1.13677
0.953685
0.910942
0.74794
0.582389
0.573603
0.608124
0.696043
0.756263
0.829212
0.999321
1.19656
1.46688
1.59169
1.54846
1.38863
0.86562
0.7779
0.670042
0.553959
0.518232
0.513846
0.518018
0.505068
0.491796
0.464997
0.435258
0.42321
0.42678
0.460067
0.626597
0.833747
0.87279
0.923035
0.963883
0.96053
0.686222
0.624396
0.547403
0.463412
0.458521
0.474661
0.476877
0.469147
0.454221
0.429542
0.402209
0.403969
0.445966
0.630092
0.848044
0.93788
0.915263
0.926531
0.957736
0.963821
0.533002
0.505515
0.457242
0.41467
0.415406
0.429489
0.428328
0.422159
0.410348
0.387563
0.385611
0.439084
0.632421
0.870417
0.908662
0.946473
0.940338
0.937586
0.955091
0.964669
0.397282
0.406716
0.382601
0.367263
0.374048
0.382385
0.377557
0.374318
0.368437
0.369649
0.444342
0.648823
0.864555
0.929816
0.923114
0.94191
0.95559
0.949875
0.95562
0.963009
0.303155
0.321122
0.332439
0.334511
0.336481
0.337545
0.33909
0.332754
0.362469
0.484051
0.690917
0.858492
0.915641
0.925772
0.926237
0.947129
0.968427
0.966486
0.960692
0.964103
0.232257
0.258693
0.269953
0.291557
0.304948
0.297158
0.317897
0.409206
0.605741
0.784278
0.880722
0.907667
0.92009
0.918218
0.929113
0.951751
0.970466
0.970295
0.964251
0.960636
0.189605
0.213833
0.236516
0.243772
0.262253
0.344039
0.547994
0.727151
0.820002
0.882293
0.922901
0.920206
0.919785
0.925726
0.938636
0.955068
0.96626
0.967829
0.964911
0.958494
0.139135
0.162793
0.229072
0.318297
0.518054
0.691627
0.759869
0.833046
0.885952
0.913597
0.9253
0.92955
0.928886
0.937835
0.94906
0.959605
0.964099
0.965016
0.959071
0.955404
0.28871
0.42008
0.54316
0.678255
0.753249
0.823162
0.83341
0.86019
0.892874
0.914404
0.929085
0.933819
0.935585
0.949882
0.963332
0.963934
0.958197
0.950888
0.945705
0.950029
0.561479
0.635908
0.717879
0.813221
0.810386
0.823976
0.838047
0.871053
0.907568
0.928071
0.937029
0.94065
0.941994
0.959527
0.968154
0.958098
0.941851
0.939233
0.944617
0.956697
)
;

boundaryField
{
    inlet
    {
        type            fixedValue;
        value           uniform 1;
    }
    outlet
    {
        type            zeroGradient;
    }
    airfoil
    {
        type            zeroGradient;
    }
    top
    {
        type            symmetryPlane;
    }
    bottom
    {
        type            symmetryPlane;
    }
    defaultFaces
    {
        type            empty;
    }
}


// ************************************************************************* //
