/*--------------------------------*- C++ -*----------------------------------*\
  =========                 |
  \\      /  F ield         | OpenFOAM: The Open Source CFD Toolbox
   \\    /   O peration     | Website:  https://openfoam.org
    \\  /    A nd           | Version:  7
     \\/     M anipulation  |
\*---------------------------------------------------------------------------*/
FoamFile
{
    version     2.0;
    format      ascii;
    class       volScalarField;
    location    "9.3";
    object      rho;
}
// * * * * * * * * * * * * * * * * * * * * * * * * * * * * * * * * * * * * * //

dimensions      [1 -3 0 0 0 0 0];

internalField   nonuniform List<scalar> 
3700
(
0.224372
0.312535
0.407819
0.517031
0.536716
0.537025
0.533857
0.554593
0.574563
0.593902
0.602389
0.614506
0.614659
0.626384
0.671883
0.688846
0.706476
0.721915
0.719294
0.731078
0.125128
0.137962
0.166116
0.186672
0.175718
0.152314
0.155535
0.163631
0.163961
0.182549
0.21756
0.246774
0.253645
0.239864
0.240804
0.253933
0.277688
0.281764
0.279976
0.274262
0.100846
0.109878
0.113482
0.103154
0.0778888
0.0642918
0.069308
0.0794252
0.0897138
0.10196
0.118684
0.131778
0.141797
0.146361
0.144852
0.144217
0.145269
0.148211
0.157742
0.180085
0.0952868
0.100082
0.101143
0.0840924
0.063747
0.0626327
0.0685354
0.0774365
0.0878226
0.103921
0.12356
0.141045
0.166667
0.192428
0.205005
0.215144
0.212921
0.210009
0.209044
0.228077
0.0862682
0.082318
0.0812273
0.0685395
0.0658799
0.0717591
0.0813967
0.0887804
0.0997331
0.114725
0.124757
0.139439
0.166813
0.203566
0.232958
0.260688
0.277808
0.288021
0.287677
0.295527
0.0666612
0.0680162
0.0757527
0.0706044
0.0755954
0.0894462
0.102052
0.119491
0.140468
0.169249
0.160394
0.164591
0.172227
0.201825
0.243665
0.28655
0.328143
0.366482
0.399512
0.434776
0.0479001
0.0628789
0.0756774
0.0762556
0.0830708
0.101077
0.112775
0.139713
0.180887
0.21991
0.231713
0.247426
0.244663
0.254967
0.269833
0.307847
0.363357
0.433485
0.493649
0.589524
0.036664
0.0589987
0.0749785
0.0774418
0.0842838
0.106925
0.115169
0.144398
0.199533
0.250365
0.297022
0.330298
0.364083
0.396357
0.413275
0.438714
0.466396
0.527645
0.607055
0.766359
0.030523
0.0567568
0.0754081
0.0752246
0.0810505
0.112237
0.119566
0.142512
0.197635
0.264376
0.334192
0.389183
0.464368
0.523629
0.581201
0.635339
0.684208
0.738388
0.806346
1.01136
0.0299976
0.0589911
0.0739452
0.0756846
0.0970064
0.129837
0.145861
0.182186
0.225534
0.275443
0.356909
0.440064
0.550901
0.641168
0.739818
0.843869
0.944174
1.03302
1.13902
1.32608
0.0357641
0.0586377
0.0713942
0.0935185
0.13618
0.170429
0.216392
0.291496
0.366231
0.439033
0.514623
0.602109
0.706345
0.812086
0.927214
1.07679
1.24592
1.39669
1.62991
1.57517
0.0433787
0.0568319
0.0754161
0.112811
0.158307
0.20737
0.29481
0.403902
0.534518
0.688907
0.814724
0.939802
1.06142
1.17729
1.286
1.43427
1.64281
1.85275
2.17835
2.12405
0.0480788
0.0574935
0.079613
0.109337
0.149291
0.209564
0.342397
0.475853
0.662404
0.90533
1.10537
1.30236
1.48848
1.6596
1.84679
2.06185
2.28805
2.52888
2.91152
2.91237
0.0470581
0.0528465
0.0748428
0.0850091
0.125286
0.21214
0.381754
0.588182
0.882287
1.21097
1.51235
1.78504
2.04866
2.29716
2.60965
2.93152
3.24584
3.57491
3.89343
4.18351
0.0293895
0.0423869
0.0813537
0.0848261
0.146269
0.444499
0.777273
1.16169
1.62874
2.04925
2.39916
2.7043
3.00466
3.31966
3.73733
4.12978
4.50816
4.8515
5.07287
5.26018
0.0131872
0.0377028
0.0932966
0.159669
0.48598
1.06709
1.59988
2.1561
2.77007
3.28931
3.67352
4.04633
4.41198
4.79948
5.24138
5.52448
5.68637
5.73767
5.60885
5.43583
0.00885462
0.0462038
0.150667
0.554515
1.29715
2.04057
2.79064
3.57879
4.38646
4.90239
5.23426
5.56955
5.85764
6.06571
6.19969
6.1007
5.80726
5.07774
3.89539
2.64308
0.0592864
0.24929
0.719817
1.6496
2.91908
4.01892
4.91854
5.83317
6.58538
6.7168
6.61338
6.60113
6.53857
6.29601
5.58034
4.25165
2.91005
1.86368
1.42631
1.39009
0.420267
1.1647
2.74405
4.4466
5.81607
6.69717
7.52066
8.17487
7.96728
7.33321
6.73894
6.00022
4.72884
3.25319
2.00095
1.44327
1.3853
1.39296
1.39628
1.39922
3.22411
5.07185
6.81088
7.88983
8.58473
8.8945
9.09059
8.67511
6.31719
4.45753
3.29293
2.17197
1.50645
1.38183
1.38986
1.39475
1.39884
1.39997
1.40003
1.40002
9.65455
9.59189
9.54457
9.50877
9.60913
9.37567
8.3475
3.3467
0.88404
1.40001
1.40001
1.40001
1.40001
1.40001
1.40001
1.40001
1.40001
1.40001
1.40001
1.40001
9.63705
9.55764
9.47006
9.34976
9.30711
8.01839
3.71194
1.44081
1.40001
1.40001
1.40001
1.40001
1.40001
1.40001
1.40001
1.40001
1.40001
1.40001
1.40001
1.40001
9.43879
9.49552
9.47794
9.35267
8.96183
4.61201
1.43085
1.39949
1.40001
1.40001
1.40001
1.40001
1.40001
1.40001
1.40001
1.40001
1.40001
1.40001
1.40001
1.40001
9.28371
9.45805
9.45331
9.10118
6.48919
1.92957
1.39313
1.40013
1.4
1.40001
1.40001
1.40001
1.40001
1.40001
1.40001
1.40001
1.40001
1.40001
1.40001
1.40001
9.09548
9.46391
9.43479
8.31663
3.88013
1.36458
1.40049
1.4
1.40001
1.40001
1.40001
1.40001
1.40001
1.40001
1.40001
1.40001
1.40001
1.40001
1.40001
1.40001
8.92062
9.43752
9.45402
6.99784
2.03416
1.40001
1.40001
1.40001
1.40001
1.40001
1.40001
1.40001
1.40001
1.40001
1.40001
1.40001
1.40001
1.40001
1.40001
1.40001
8.81645
9.24931
9.28179
4.88712
1.36311
1.40001
1.40001
1.40001
1.40001
1.40001
1.40001
1.40001
1.40001
1.40001
1.40001
1.40001
1.40001
1.40001
1.40001
1.40001
8.96874
9.16225
8.33493
2.87474
1.4
1.40001
1.40001
1.40001
1.40001
1.40001
1.40001
1.40001
1.40001
1.40001
1.40001
1.40001
1.40001
1.40001
1.40001
1.40001
9.71014
9.28803
6.79227
1.6385
1.40001
1.40001
1.40001
1.40001
1.40001
1.40001
1.40001
1.40001
1.40001
1.40001
1.40001
1.40001
1.40001
1.40001
1.40001
1.40001
10.0627
8.85624
4.81597
1.38338
1.40001
1.40001
1.40001
1.40001
1.40001
1.40001
1.40001
1.40001
1.40001
1.40001
1.40001
1.40001
1.40001
1.40001
1.40001
1.40001
10.2756
8.28765
3.25181
1.40001
1.40001
1.40001
1.40001
1.40001
1.40001
1.40001
1.40001
1.40001
1.40001
1.40001
1.40001
1.40001
1.40001
1.40001
1.40001
1.40001
10.363
7.53257
2.24378
1.40001
1.40001
1.40001
1.40001
1.40001
1.40001
1.40001
1.40001
1.40001
1.40001
1.40001
1.40001
1.40001
1.40001
1.40001
1.40001
1.40001
10.4118
6.58773
1.6527
1.40001
1.40001
1.40001
1.40001
1.40001
1.40001
1.40001
1.40001
1.40001
1.40001
1.40001
1.40001
1.40001
1.40001
1.40001
1.40001
1.40001
10.2432
5.57097
1.41944
1.40001
1.40001
1.40001
1.40001
1.40001
1.40001
1.40001
1.40001
1.40001
1.40001
1.40001
1.40001
1.40001
1.40001
1.40001
1.40001
1.40001
10.0615
4.39177
1.40001
1.40001
1.40001
1.40001
1.40001
1.40001
1.40001
1.40001
1.40001
1.40001
1.40001
1.40001
1.40001
1.40001
1.40001
1.40001
1.40001
1.40001
9.53378
3.4973
1.40001
1.40001
1.40001
1.40001
1.40001
1.40001
1.40001
1.40001
1.40001
1.40001
1.40001
1.40001
1.40001
1.40001
1.40001
1.40001
1.40001
1.40001
9.22668
2.7068
1.40001
1.40001
1.40001
1.40001
1.40001
1.40001
1.40001
1.40001
1.40001
1.40001
1.40001
1.40001
1.40001
1.40001
1.40001
1.40001
1.40001
1.40001
8.83076
1.92465
1.40001
1.40001
1.40001
1.40001
1.40001
1.40001
1.40001
1.40001
1.40001
1.40001
1.40001
1.40001
1.40001
1.40001
1.40001
1.40001
1.40001
1.40001
7.84706
1.408
1.40001
1.40001
1.40001
1.40001
1.40001
1.40001
1.40001
1.40001
1.40001
1.40001
1.40001
1.40001
1.40001
1.40001
1.40001
1.40001
1.40001
1.40001
6.46042
1.40007
1.40001
1.40001
1.40001
1.40001
1.40001
1.40001
1.40001
1.40001
1.40001
1.40001
1.40001
1.40001
1.40001
1.40001
1.40001
1.40001
1.40001
1.40001
6.47063
1.40007
1.40001
1.40001
1.40001
1.40001
1.40001
1.40001
1.40001
1.40001
1.40001
1.40001
1.40001
1.40001
1.40001
1.40001
1.40001
1.40001
1.40001
1.40001
7.83438
1.40766
1.40001
1.40001
1.40001
1.40001
1.40001
1.40001
1.40001
1.40001
1.40001
1.40001
1.40001
1.40001
1.40001
1.40001
1.40001
1.40001
1.40001
1.40001
8.81895
1.91659
1.40001
1.40001
1.40001
1.40001
1.40001
1.40001
1.40001
1.40001
1.40001
1.40001
1.40001
1.40001
1.40001
1.40001
1.40001
1.40001
1.40001
1.40001
9.25624
2.70873
1.40001
1.40001
1.40001
1.40001
1.40001
1.40001
1.40001
1.40001
1.40001
1.40001
1.40001
1.40001
1.40001
1.40001
1.40001
1.40001
1.40001
1.40001
9.5295
3.52601
1.40001
1.40001
1.40001
1.40001
1.40001
1.40001
1.40001
1.40001
1.40001
1.40001
1.40001
1.40001
1.40001
1.40001
1.40001
1.40001
1.40001
1.40001
10.0254
4.39214
1.40001
1.40001
1.40001
1.40001
1.40001
1.40001
1.40001
1.40001
1.40001
1.40001
1.40001
1.40001
1.40001
1.40001
1.40001
1.40001
1.40001
1.40001
10.267
5.55619
1.41316
1.40001
1.40001
1.40001
1.40001
1.40001
1.40001
1.40001
1.40001
1.40001
1.40001
1.40001
1.40001
1.40001
1.40001
1.40001
1.40001
1.40001
10.4301
6.57488
1.64804
1.40001
1.40001
1.40001
1.40001
1.40001
1.40001
1.40001
1.40001
1.40001
1.40001
1.40001
1.40001
1.40001
1.40001
1.40001
1.40001
1.40001
10.3661
7.52995
2.2375
1.40001
1.40001
1.40001
1.40001
1.40001
1.40001
1.40001
1.40001
1.40001
1.40001
1.40001
1.40001
1.40001
1.40001
1.40001
1.40001
1.40001
10.2657
8.30472
3.25163
1.40001
1.40001
1.40001
1.40001
1.40001
1.40001
1.40001
1.40001
1.40001
1.40001
1.40001
1.40001
1.40001
1.40001
1.40001
1.40001
1.40001
10.0361
8.84112
4.85556
1.38328
1.40001
1.40001
1.40001
1.40001
1.40001
1.40001
1.40001
1.40001
1.40001
1.40001
1.40001
1.40001
1.40001
1.40001
1.40001
1.40001
9.69839
9.30428
6.81365
1.62852
1.40001
1.40001
1.40001
1.40001
1.40001
1.40001
1.40001
1.40001
1.40001
1.40001
1.40001
1.40001
1.40001
1.40001
1.40001
1.40001
8.98151
9.16281
8.34998
2.87732
1.4
1.40001
1.40001
1.40001
1.40001
1.40001
1.40001
1.40001
1.40001
1.40001
1.40001
1.40001
1.40001
1.40001
1.40001
1.40001
8.80957
9.24229
9.24188
4.85237
1.36357
1.40001
1.40001
1.40001
1.40001
1.40001
1.40001
1.40001
1.40001
1.40001
1.40001
1.40001
1.40001
1.40001
1.40001
1.40001
8.89939
9.41877
9.46988
7.03682
2.01151
1.40001
1.40001
1.40001
1.40001
1.40001
1.40001
1.40001
1.40001
1.40001
1.40001
1.40001
1.40001
1.40001
1.40001
1.40001
9.07792
9.46814
9.44918
8.34064
3.91423
1.36397
1.40049
1.4
1.40001
1.40001
1.40001
1.40001
1.40001
1.40001
1.40001
1.40001
1.40001
1.40001
1.40001
1.40001
9.28559
9.46538
9.45258
9.01404
6.48455
1.94664
1.39327
1.40013
1.4
1.40001
1.40001
1.40001
1.40001
1.40001
1.40001
1.40001
1.40001
1.40001
1.40001
1.40001
9.44833
9.50202
9.47754
9.36151
8.99121
4.59413
1.43019
1.39956
1.40001
1.40001
1.40001
1.40001
1.40001
1.40001
1.40001
1.40001
1.40001
1.40001
1.40001
1.40001
9.64515
9.56211
9.4741
9.37214
9.352
8.0286
3.68537
1.43654
1.40001
1.40001
1.40001
1.40001
1.40001
1.40001
1.40001
1.40001
1.40001
1.40001
1.40001
1.40001
9.66328
9.59804
9.54462
9.5015
9.59194
9.38165
8.3552
3.3515
0.879412
1.40001
1.40001
1.40001
1.40001
1.40001
1.40001
1.40001
1.40001
1.40001
1.40001
1.40001
3.2255
5.07605
6.82514
7.89166
8.55664
8.88572
9.08339
8.6778
6.32336
4.46352
3.29852
2.17494
1.50661
1.38184
1.38984
1.39473
1.39883
1.39997
1.40003
1.40002
0.420809
1.16455
2.73114
4.44975
5.80909
6.68201
7.51099
8.1766
7.96842
7.33146
6.73542
5.99741
4.72602
3.25099
2.00045
1.4434
1.38531
1.39297
1.39628
1.39922
0.0584792
0.247241
0.745743
1.65751
2.92241
4.02025
4.91378
5.82984
6.58342
6.70822
6.59941
6.60149
6.54034
6.29967
5.58598
4.25467
2.90905
1.86247
1.4261
1.39008
0.00937548
0.0445351
0.135589
0.558012
1.29972
2.04705
2.80341
3.59209
4.38965
4.90012
5.22983
5.56873
5.86213
6.07393
6.2018
6.10122
5.80576
5.0748
3.89317
2.64258
0.0134574
0.036332
0.0786951
0.160611
0.477156
1.06356
1.60431
2.16181
2.77477
3.29041
3.67135
4.04624
4.41683
4.80646
5.24541
5.52268
5.68156
5.73519
5.60699
5.43546
0.0300094
0.0407855
0.0784027
0.0838188
0.14623
0.433944
0.767475
1.15082
1.61557
2.03636
2.38846
2.69956
3.005
3.32178
3.73876
4.12902
4.50533
4.8494
5.07269
5.26128
0.051473
0.0524787
0.072142
0.0843537
0.133128
0.216268
0.38096
0.585295
0.877028
1.20837
1.5126
1.78962
2.05485
2.30254
2.61218
2.93168
3.24415
3.57304
3.89255
4.18257
0.0552038
0.0560724
0.0743451
0.108899
0.158353
0.214363
0.344952
0.479207
0.668313
0.910747
1.11104
1.30777
1.49255
1.66169
1.84647
2.05995
2.28613
2.52701
2.91062
2.91265
0.0518628
0.0550328
0.0682049
0.110617
0.161525
0.208908
0.296283
0.405129
0.536621
0.689634
0.8156
0.939508
1.05967
1.1743
1.2836
1.434
1.64476
1.85472
2.17899
2.12396
0.0444035
0.0573777
0.0644751
0.0891053
0.135003
0.168927
0.215654
0.289564
0.363542
0.43437
0.509431
0.597619
0.704184
0.812186
0.929978
1.08071
1.24841
1.39686
1.62828
1.57339
0.0378997
0.0594566
0.067858
0.0714932
0.0939405
0.128339
0.147773
0.183068
0.224781
0.275893
0.359023
0.442231
0.553744
0.644138
0.742286
0.844702
0.943169
1.03005
1.13597
1.32423
0.0384145
0.058756
0.0709083
0.0715667
0.0812839
0.113857
0.121762
0.144889
0.199969
0.267287
0.336993
0.39172
0.466017
0.524374
0.580297
0.63255
0.679517
0.734258
0.803975
1.01129
0.0436405
0.0614007
0.0699696
0.0727409
0.0851257
0.109005
0.11616
0.146033
0.201289
0.252183
0.298163
0.331049
0.362743
0.393453
0.409107
0.434264
0.463282
0.528418
0.609509
0.76851
0.0530517
0.0642696
0.0693164
0.0716374
0.0834737
0.102357
0.112609
0.140168
0.181572
0.220549
0.229099
0.243907
0.241277
0.251637
0.269046
0.309982
0.366774
0.43654
0.495954
0.590846
0.0712986
0.0679347
0.0689335
0.0677387
0.0750029
0.089871
0.101137
0.118558
0.139563
0.166588
0.158386
0.162544
0.172771
0.205147
0.247217
0.289384
0.330268
0.36754
0.399695
0.433428
0.0931904
0.0833879
0.0760357
0.0638706
0.0642603
0.0718072
0.0806156
0.0884414
0.0999667
0.114244
0.125711
0.14161
0.170037
0.206756
0.235167
0.261758
0.277414
0.2862
0.285514
0.293453
0.0987051
0.101597
0.100593
0.0814889
0.0628835
0.0635814
0.0691786
0.0781796
0.0892046
0.105657
0.12551
0.143611
0.169366
0.194019
0.205101
0.213658
0.211072
0.208282
0.207715
0.228281
0.101587
0.110659
0.11177
0.100008
0.0790316
0.0653671
0.0701096
0.0804142
0.0909561
0.10317
0.120781
0.133254
0.141617
0.145206
0.143586
0.142786
0.143917
0.147428
0.158539
0.181135
0.123058
0.149979
0.170817
0.171754
0.169583
0.149226
0.137375
0.15471
0.180938
0.199286
0.215772
0.242988
0.275178
0.301399
0.311746
0.289015
0.258129
0.2586
0.282687
0.301067
0.218432
0.363802
0.439627
0.512069
0.533568
0.530842
0.524609
0.544818
0.588969
0.606053
0.604749
0.633123
0.640234
0.657303
0.687912
0.686196
0.678519
0.707112
0.73216
0.741821
0.783745
0.880852
0.993121
1.1331
1.12584
1.15313
1.15852
1.21022
1.25729
1.27993
1.28943
1.29699
1.30203
1.3242
1.3441
1.33792
1.31899
1.31013
1.31263
1.3325
0.408847
0.579827
0.756477
0.966252
1.056
1.14112
1.16019
1.20016
1.25193
1.29228
1.31066
1.31813
1.30922
1.30891
1.32638
1.33538
1.33514
1.33284
1.32776
1.33366
0.19545
0.222353
0.327955
0.483125
0.760296
0.968791
1.06728
1.16152
1.2416
1.28835
1.30257
1.30747
1.30028
1.30023
1.31274
1.33234
1.3407
1.3424
1.33954
1.33663
0.265005
0.299466
0.332785
0.338997
0.374524
0.494007
0.774699
1.01607
1.14438
1.24263
1.29726
1.29428
1.28597
1.28623
1.30131
1.32589
1.34293
1.3451
1.3409
1.33505
0.322257
0.368566
0.377698
0.404161
0.425968
0.418968
0.446517
0.568747
0.814525
1.07016
1.23528
1.27135
1.27991
1.2818
1.2944
1.32318
1.34526
1.34319
1.33446
1.33263
0.424661
0.452507
0.461141
0.463067
0.468173
0.476324
0.479726
0.467217
0.493126
0.656167
0.96817
1.20066
1.26606
1.29094
1.29256
1.3193
1.34285
1.33844
1.32851
1.33417
0.55899
0.563649
0.542437
0.526856
0.534306
0.543116
0.537145
0.528881
0.510363
0.513319
0.623802
0.909975
1.18363
1.29243
1.28623
1.31434
1.33014
1.31944
1.32518
1.33756
0.74045
0.708545
0.646053
0.573079
0.566903
0.59116
0.597339
0.590291
0.572554
0.545938
0.54525
0.616662
0.872929
1.17453
1.26019
1.32356
1.31425
1.30747
1.33185
1.34481
0.953344
0.86818
0.768032
0.657065
0.635526
0.656049
0.662231
0.650013
0.623428
0.590995
0.565855
0.567898
0.623709
0.870127
1.18563
1.31098
1.27659
1.29475
1.34267
1.3459
1.20545
1.07916
0.929255
0.777488
0.724114
0.716466
0.717487
0.702275
0.685583
0.639157
0.601953
0.583515
0.592137
0.639311
0.867735
1.16172
1.21766
1.29024
1.35075
1.3418
1.73229
1.34793
1.17453
0.99148
0.817719
0.788842
0.793434
0.803747
0.792158
0.759595
0.691119
0.654041
0.648765
0.652691
0.672189
0.786332
1.0315
1.22912
1.31259
1.3307
2.84961
2.0082
1.63614
1.45109
1.18583
1.02278
0.930711
0.910492
0.879933
0.836212
0.792076
0.770186
0.752935
0.724544
0.682858
0.683897
0.73205
0.888753
1.10575
1.27664
3.49014
3.02633
2.35551
1.89766
1.57548
1.3278
1.11844
1.01839
0.973322
0.911866
0.894366
0.883139
0.861209
0.820947
0.775314
0.729155
0.731484
0.744186
0.805275
1.04802
3.29619
3.27223
3.11423
2.66728
2.16809
1.79535
1.5373
1.31463
1.22009
1.14036
1.05052
0.977135
0.920107
0.871397
0.845702
0.820808
0.78779
0.773732
0.763483
0.810935
2.34594
2.99197
3.09567
3.05614
2.875
2.47925
2.08712
1.72261
1.49408
1.355
1.21204
1.11366
1.0225
0.97166
0.979751
0.968656
0.918885
0.861743
0.794251
0.799399
1.55168
2.0081
2.58095
2.95038
2.9495
2.89337
2.69338
2.35537
1.98419
1.71604
1.51335
1.3735
1.27678
1.17539
1.10496
1.04888
0.980626
0.913035
0.879696
0.856548
1.40633
1.46181
1.68665
2.1687
2.60215
2.82156
2.81106
2.75189
2.55618
2.2593
1.96544
1.69631
1.51705
1.3676
1.22145
1.14179
1.09244
1.03143
1.01362
0.97495
1.40013
1.40156
1.41472
1.51018
1.77747
2.20004
2.54967
2.70058
2.69098
2.63161
2.47318
2.20783
1.92658
1.71866
1.51842
1.39063
1.32046
1.24455
1.16358
1.05986
1.40001
1.40002
1.40022
1.40343
1.42746
1.53867
1.8053
2.174
2.4764
2.59468
2.58667
2.53788
2.39325
2.17361
1.93662
1.70086
1.53243
1.40674
1.29667
1.16067
1.40001
1.40001
1.40001
1.40004
1.40049
1.40518
1.43455
1.55192
1.80128
2.12029
2.38748
2.50356
2.49556
2.45371
2.34664
2.15242
1.92682
1.71879
1.57601
1.39815
1.40001
1.40001
1.40001
1.40001
1.40001
1.40006
1.40071
1.4066
1.43642
1.54936
1.76987
2.06085
2.28491
2.41537
2.41187
2.38424
2.30075
2.13876
1.9547
1.67326
1.40001
1.40001
1.40001
1.40001
1.40001
1.40001
1.40001
1.40009
1.40078
1.4072
1.43345
1.53488
1.72571
1.99613
2.19119
2.32754
2.32757
2.31259
2.26306
2.0505
1.40001
1.40001
1.40001
1.40001
1.40001
1.40001
1.40001
1.40001
1.40001
1.4001
1.40072
1.40651
1.43037
1.51075
1.67755
1.91963
2.11375
2.22988
2.25458
2.2247
1.40001
1.40001
1.40001
1.40001
1.40001
1.40001
1.40001
1.40001
1.40001
1.40001
1.40001
1.4001
1.40069
1.40471
1.42568
1.48775
1.6288
1.83903
2.02004
2.16473
1.40001
1.40001
1.40001
1.40001
1.40001
1.40001
1.40001
1.40001
1.40001
1.40001
1.40001
1.40001
1.40001
1.40007
1.4006
1.40352
1.41975
1.47181
1.5907
1.94171
2.25793
3.42607
3.59198
2.90729
1.83247
1.45158
1.40261
1.40007
1.40001
1.40001
1.40001
1.40001
1.40001
1.40001
1.40001
3.26247
3.91576
3.51906
2.15358
1.46764
1.40115
1.40001
1.4
1.40001
1.40001
1.40001
1.40001
1.40001
1.40001
1.40001
4.07936
3.99292
2.76219
1.6121
1.40726
1.40007
1.40001
1.40001
1.40001
1.40001
1.40001
1.40001
1.40001
1.40001
1.40001
4.52575
3.56325
1.9064
1.42667
1.40026
1.40001
1.40001
1.40001
1.40001
1.40001
1.40001
1.40001
1.40001
1.40001
1.40001
4.62428
2.35012
1.46566
1.40073
1.40001
1.40001
1.40001
1.40001
1.40001
1.40001
1.40001
1.40001
1.40001
1.40001
1.40001
2.88296
1.50195
1.40067
1.4
1.4
1.4
1.40001
1.40001
1.40001
1.40001
1.40001
1.40001
1.40001
1.40001
1.40001
1.54232
1.40078
1.4
1.4
1.40001
1.40001
1.40001
1.40001
1.40001
1.40001
1.40001
1.40001
1.40001
1.40001
1.40001
1.39742
1.39982
1.4
1.40001
1.40001
1.40001
1.40001
1.40001
1.40001
1.40001
1.40001
1.40001
1.40001
1.40001
1.40001
1.39996
1.40001
1.40001
1.40001
1.40001
1.40001
1.40001
1.40001
1.40001
1.40001
1.40001
1.40001
1.40001
1.40001
1.40001
1.40001
1.40001
1.40001
1.40001
1.40001
1.40001
1.40001
1.40001
1.40001
1.40001
1.40001
1.40001
1.40001
1.40001
1.40001
1.40001
1.40001
1.40001
1.40001
1.40001
1.40001
1.40001
1.40001
1.40001
1.40001
1.40001
1.40001
1.40001
1.40001
1.40001
1.40001
1.40001
1.40001
1.40001
1.40001
1.40001
1.40001
1.40001
1.40001
1.40001
1.40001
1.40001
1.40001
1.40001
1.40001
1.40001
1.40001
1.40001
1.40001
1.40001
1.40001
1.40001
1.40001
1.40001
1.40001
1.40001
1.40001
1.40001
1.40001
1.40001
1.40001
1.40001
1.40001
1.40001
1.40001
1.40001
1.40001
1.40001
1.40001
1.40001
1.40001
1.40001
1.40001
1.40001
1.40001
1.40001
1.40001
1.40001
1.40001
1.40001
1.40001
1.40001
1.40001
1.40001
1.40001
1.40001
1.40001
1.40001
1.40001
1.40001
1.40001
1.40001
1.40001
1.40001
1.40001
1.40001
1.40001
1.40001
1.40001
1.40001
1.40001
1.40001
1.40001
1.40001
1.40001
1.40001
1.40001
1.40001
1.40001
1.40001
1.40001
1.40001
1.40001
1.40001
1.40001
1.40001
1.40001
1.40001
1.40001
1.40001
1.40001
1.40001
1.40001
1.40001
1.40001
1.40001
1.40001
1.40001
1.40001
1.40001
1.40001
1.40001
1.40001
1.40001
1.40001
1.40001
1.40001
1.40001
1.40001
1.40001
1.40001
1.40001
1.40001
1.40001
1.40001
1.40001
1.40001
1.40001
1.40001
1.40001
1.40001
1.40001
1.40001
1.40001
1.40001
1.40001
1.40001
1.40001
1.40001
1.40001
1.40001
1.40001
1.40001
1.40001
1.40001
1.40001
1.40001
1.40001
1.40001
1.40001
1.40001
1.40001
1.40001
1.40001
1.40001
1.40001
1.40001
1.40001
1.40001
1.40001
1.40001
1.40001
1.40001
1.40001
1.40001
1.40001
1.40001
1.40001
1.40001
1.40001
1.40001
1.40001
1.40001
1.40001
1.40001
1.40001
1.40001
1.40001
1.40001
1.40001
1.40001
1.40001
1.40001
1.40001
1.40001
1.40001
1.40001
1.40001
1.40001
1.40001
1.40001
1.40001
1.40001
1.40001
1.40001
1.40001
1.40001
1.40001
1.40001
1.40001
1.40001
1.40001
1.40001
1.40001
1.40001
1.40001
1.40001
1.40001
1.40001
1.40001
1.40001
1.40001
1.40001
1.40001
1.40001
1.40001
1.40001
1.40001
1.40001
1.40001
1.40001
1.40001
1.40001
1.40001
1.40001
1.40001
1.40001
1.40001
1.40001
1.40001
1.40001
1.40001
1.40001
1.40001
1.40001
1.40001
1.40001
1.40001
1.40001
1.40001
1.40001
1.40001
1.40001
1.40001
1.40001
1.40001
1.40001
1.40001
1.40001
1.40001
1.40001
1.40001
1.40001
1.40001
1.40001
1.40001
1.40001
1.40001
1.40001
1.40001
1.40001
1.40001
1.40001
1.40001
1.40001
1.40001
1.40001
1.40001
1.40001
1.40001
1.40001
1.40001
1.40001
1.40001
1.40001
1.40001
1.40001
1.40001
1.40001
1.40001
1.40001
1.40001
1.40001
1.40001
1.40001
1.40001
1.40001
1.40001
1.40001
1.40001
1.40001
1.40001
1.40001
1.40001
1.40001
1.40001
1.40001
1.40001
1.40001
1.40001
1.40001
1.40001
1.40001
1.40001
1.40001
1.40001
1.40001
1.40001
1.40001
1.40001
1.40001
1.40001
1.40001
1.40001
1.40001
1.40001
1.40001
1.40001
1.40001
1.40001
1.40001
1.40001
1.40001
1.40001
1.40001
1.40001
1.40001
1.40001
1.40001
1.40001
1.40001
1.40001
1.40001
1.40001
1.40001
1.40001
1.40001
1.40001
1.40001
1.40001
1.40001
1.40001
1.40001
1.40001
1.40001
1.40001
1.40001
1.40001
1.40001
1.40001
1.40001
1.40001
1.40001
1.40001
1.40001
1.40001
1.40001
1.40001
1.40001
1.40001
1.40001
1.40001
1.40001
1.40001
1.40001
1.40001
1.40001
1.40001
1.40001
1.40001
1.40001
1.40001
1.40001
1.40001
1.40001
1.40001
1.40001
1.40001
1.40001
1.40001
1.40001
1.40001
1.40001
1.40001
1.40001
1.40001
1.40001
1.40001
1.40001
1.40001
1.40001
1.40001
1.40001
1.40001
1.40001
1.40001
1.40001
1.40001
1.40001
1.40001
1.40001
1.40001
1.40001
1.40001
1.40001
1.40001
1.40001
1.40001
1.40001
1.40001
1.40001
1.40001
1.40001
1.40001
1.40001
1.40001
1.40001
1.40001
1.40001
1.40001
1.40001
1.40001
1.40001
1.40001
1.40001
1.40001
1.40001
1.40001
1.40001
1.40001
1.40001
1.40001
1.40001
1.40001
1.40001
1.40001
1.40001
1.40001
1.40001
1.40001
1.40001
1.40001
1.40001
1.40001
1.40001
1.40001
1.40001
1.40001
1.40001
1.40001
1.40001
1.40001
1.40001
1.40001
1.40001
1.40001
1.40001
1.40001
1.40001
1.40001
1.40001
1.40001
1.40001
1.40001
1.40001
1.40001
1.40001
1.40001
1.40001
1.40001
1.40001
1.40001
1.40001
1.40001
1.40001
1.40001
1.40001
1.40001
1.40001
1.40001
1.40001
1.40001
1.40001
1.40001
1.40001
1.40001
1.40001
1.40001
1.40001
1.40001
1.40001
1.40001
1.40001
1.40001
1.40001
1.40001
1.40001
1.40001
1.40001
1.40001
1.40001
1.40001
1.40001
1.40001
1.40001
1.40001
1.40001
1.40001
1.40001
1.40001
1.40001
1.40001
1.40001
1.40001
1.40001
1.40001
1.40001
1.40001
1.40001
1.40001
1.40001
1.40001
1.40001
1.40001
1.40001
1.40001
1.40001
1.40001
1.40001
1.40001
1.40001
1.40001
1.40001
1.40001
1.40001
1.40001
1.40001
1.40001
1.40001
1.40001
1.40001
1.40001
1.40001
1.40001
1.40001
1.40001
1.40001
1.40001
1.40001
1.40001
1.40001
1.40001
1.40001
1.40001
1.40001
1.40001
1.40001
1.40001
1.40001
1.40001
1.40001
1.40001
1.40001
1.40001
1.40001
1.40001
1.40001
1.40001
1.40001
1.40001
1.40001
1.40001
1.40001
1.40001
1.40001
1.40001
1.40001
1.40001
1.40001
1.40001
1.40001
1.40001
1.40001
1.40001
1.40001
1.40001
1.40001
1.40001
1.40001
1.40001
1.40001
1.40001
1.40001
1.40001
1.40001
1.40001
1.40001
1.40001
1.40001
1.40001
1.40001
1.40001
1.40001
1.40001
1.40001
1.40001
1.40001
1.40001
1.40001
1.40001
1.40001
1.40001
1.40001
1.40001
1.40001
1.40001
1.40001
1.40001
1.40001
1.40001
1.40001
1.40001
1.40001
1.40001
1.40001
1.40001
1.40001
1.40001
1.40001
1.40001
1.40001
1.40001
1.40001
1.40001
1.40001
1.40001
1.40001
1.40001
1.40001
1.40001
1.40001
1.40001
1.40001
1.40001
1.40001
1.40001
1.40001
1.40001
1.40001
1.40001
1.40001
1.40001
1.40001
1.40001
1.40001
1.40001
1.40001
1.40001
1.40001
1.40001
1.40001
1.40001
1.40001
1.40001
1.40001
1.40001
1.40001
1.40001
1.40001
1.40001
1.40001
1.40001
1.40001
1.40001
1.40001
1.40001
1.40001
1.40001
1.40001
1.40001
1.40001
1.40001
1.40001
1.40001
1.40001
1.40001
1.40001
1.40001
1.40001
1.40001
1.40001
1.40001
1.40001
1.40001
1.40001
1.40001
1.40001
1.40001
1.40001
1.40001
1.40001
1.40001
1.40001
1.40001
1.40001
1.40001
1.40001
1.40001
1.40001
1.40001
1.40001
1.40001
1.40001
1.40001
1.40001
1.40001
1.40001
1.40001
1.40001
1.40001
1.40001
1.40001
1.40001
1.40001
1.40001
1.40001
1.40001
1.40001
1.40001
1.40001
1.40001
1.40001
1.40001
1.40001
1.40001
1.40001
1.40001
1.40001
1.40001
1.40001
1.40001
1.40001
1.40001
1.40001
1.40001
1.40001
1.40001
1.40001
1.40001
1.40001
1.40001
1.40001
1.40001
1.40001
1.40001
1.40001
1.40001
1.40001
1.40001
1.40001
1.40001
1.40001
1.40001
1.40001
1.40001
1.40001
1.40001
1.40001
1.40001
1.40001
1.40001
1.40001
1.40001
1.40001
1.40001
1.40001
1.40001
1.40001
1.40001
1.40001
1.40001
1.40001
1.40001
1.40001
1.40001
1.40001
1.40001
1.40001
1.40001
1.40001
1.40001
1.40001
1.40001
1.40001
1.40001
1.40001
1.40001
1.40001
1.40001
1.40001
1.40001
1.40001
1.40001
1.40001
1.40001
1.40001
1.40001
1.40001
1.40001
1.40001
1.39996
1.40001
1.40001
1.40001
1.40001
1.40001
1.40001
1.40001
1.40001
1.40001
1.40001
1.40001
1.40001
1.40001
1.40001
1.39741
1.39982
1.4
1.4
1.40001
1.40001
1.40001
1.40001
1.40001
1.40001
1.40001
1.40001
1.40001
1.40001
1.40001
1.54237
1.40078
1.4
1.4
1.40001
1.40001
1.40001
1.40001
1.40001
1.40001
1.40001
1.40001
1.40001
1.40001
1.40001
2.88363
1.50205
1.40067
1.4
1.4
1.4
1.40001
1.40001
1.40001
1.40001
1.40001
1.40001
1.40001
1.40001
1.40001
4.62524
2.35017
1.46566
1.40073
1.40001
1.4
1.40001
1.40001
1.40001
1.40001
1.40001
1.40001
1.40001
1.40001
1.40001
4.52617
3.56336
1.90609
1.42662
1.40026
1.40001
1.40001
1.40001
1.40001
1.40001
1.40001
1.40001
1.40001
1.40001
1.40001
4.07991
3.99333
2.76227
1.61203
1.40726
1.40007
1.40001
1.40001
1.40001
1.40001
1.40001
1.40001
1.40001
1.40001
1.40001
3.26268
3.91617
3.51881
2.15358
1.46769
1.40116
1.40001
1.4
1.40001
1.40001
1.40001
1.40001
1.40001
1.40001
1.40001
2.25903
3.42653
3.5917
2.907
1.83246
1.45158
1.40261
1.40007
1.40001
1.40001
1.40001
1.40001
1.40001
1.40001
1.40001
1.72826
2.84882
3.49105
3.29672
2.34697
1.55181
1.40633
1.40013
1.40001
1.40001
1.40001
1.40001
1.40001
1.40001
1.40001
1.3488
2.00218
3.02295
3.27287
2.98976
2.00816
1.46184
1.40156
1.40002
1.40001
1.40001
1.40001
1.40001
1.40001
1.40001
1.17999
1.64201
2.356
3.11074
3.09585
2.58104
1.68703
1.41477
1.40022
1.40001
1.40001
1.40001
1.40001
1.40001
1.40001
0.986791
1.4483
1.90669
2.66284
3.05743
2.95091
2.16772
1.50981
1.40341
1.40004
1.40001
1.40001
1.40001
1.40001
1.40001
0.814835
1.16398
1.56928
2.187
2.8769
2.94942
2.60197
1.77636
1.4272
1.40048
1.40001
1.40001
1.40001
1.40001
1.40001
0.800043
1.03104
1.30556
1.78621
2.48266
2.89382
2.82124
2.1984
1.53871
1.40522
1.40007
1.40001
1.40001
1.40001
1.40001
0.809943
0.954789
1.12375
1.51617
2.07941
2.69336
2.81051
2.54962
1.8049
1.4344
1.40071
1.40001
1.40001
1.40001
1.40001
0.804175
0.917348
1.03082
1.3209
1.73017
2.35147
2.75088
2.70097
2.17476
1.55198
1.40658
1.40009
1.40001
1.40001
1.40001
0.781427
0.863791
0.970638
1.23347
1.50607
1.98454
2.55734
2.69108
2.47412
1.80088
1.43664
1.40078
1.40001
1.40001
1.40001
0.748803
0.816858
0.921108
1.1436
1.35117
1.72946
2.2615
2.63235
2.59564
2.12119
1.54866
1.40712
1.4001
1.40001
1.40001
0.698684
0.783532
0.914651
1.05406
1.19487
1.51954
1.96258
2.47384
2.58797
2.38799
1.76989
1.43341
1.40072
1.40001
1.40001
0.65791
0.763111
0.894505
0.980137
1.0989
1.37869
1.69864
2.20592
2.53848
2.50285
2.06026
1.53516
1.40654
1.4001
1.40001
0.651417
0.748414
0.863276
0.917655
1.0066
1.27136
1.51941
1.93004
2.3948
2.49525
2.28627
1.72566
1.43028
1.40069
1.40001
0.657484
0.723737
0.820228
0.866626
0.968531
1.17329
1.36174
1.71583
2.17589
2.4541
2.41606
1.99629
1.51083
1.40472
1.40007
0.677933
0.682675
0.775618
0.848207
0.97803
1.10636
1.22412
1.51631
1.93401
2.34654
2.41205
2.19139
1.67792
1.42573
1.4006
0.784782
0.682334
0.728896
0.82723
0.966792
1.04719
1.14892
1.39753
1.6994
2.15135
2.38358
2.32787
1.91994
1.48788
1.40353
1.02565
0.728609
0.730707
0.795261
0.920318
0.976876
1.09057
1.32475
1.53389
1.926
2.29976
2.3277
2.11337
1.62873
1.41973
1.22366
0.883685
0.743766
0.780952
0.86681
0.914164
1.02619
1.24352
1.4063
1.71708
2.13796
2.31271
2.22998
1.839
1.47177
1.3057
1.0982
0.805824
0.769011
0.802603
0.876842
1.01357
1.16106
1.29505
1.57427
1.95431
2.26317
2.25486
2.02018
1.59084
1.33011
1.27125
1.04481
0.814477
0.80247
0.850862
0.973823
1.0582
1.16035
1.39809
1.67355
2.05078
2.22501
2.16489
1.94204
1.20667
1.08466
0.934627
0.77309
0.723443
0.717399
0.723237
0.705226
0.686774
0.649501
0.608148
0.591427
0.596418
0.642844
0.874755
1.16302
1.21728
1.28708
1.34386
1.33922
0.957189
0.871161
0.763992
0.647047
0.640287
0.662793
0.665895
0.655145
0.634388
0.600074
0.562088
0.564562
0.6231
0.879454
1.18265
1.30757
1.2761
1.29174
1.33511
1.34358
0.74392
0.705696
0.638499
0.579205
0.580236
0.59986
0.598238
0.589651
0.573237
0.541584
0.538905
0.613415
0.882533
1.21349
1.26672
1.31928
1.31075
1.30691
1.33125
1.34456
0.554875
0.568071
0.53452
0.513176
0.522627
0.534234
0.527491
0.52298
0.51484
0.516568
0.620642
0.905228
1.20512
1.29587
1.28659
1.31271
1.33171
1.32376
1.33174
1.342
0.423661
0.44877
0.464599
0.467523