/*--------------------------------*- C++ -*----------------------------------*\
  =========                 |
  \\      /  F ield         | OpenFOAM: The Open Source CFD Toolbox
   \\    /   O peration     | Website:  https://openfoam.org
    \\  /    A nd           | Version:  7
     \\/     M anipulation  |
\*---------------------------------------------------------------------------*/
FoamFile
{
    version     2.0;
    format      ascii;
    class       volVectorField;
    location    "9.3";
    object      U;
}
// * * * * * * * * * * * * * * * * * * * * * * * * * * * * * * * * * * * * * //

dimensions      [0 1 -1 0 0 0 0];

internalField   nonuniform List<vector> 
3700
(
(1.44362 -0.440247 0)
(1.48489 -0.557517 0)
(1.44487 -0.31059 0)
(1.5074 -0.221615 0)
(1.58502 -0.243857 0)
(1.54853 -0.242461 0)
(1.53968 -0.220152 0)
(1.5185 -0.248305 0)
(1.55764 -0.322864 0)
(1.54501 -0.302702 0)
(1.53482 -0.211078 0)
(1.5989 -0.0992657 0)
(1.65948 -0.11322 0)
(1.69443 -0.197051 0)
(1.70637 -0.242744 0)
(1.66923 -0.221209 0)
(1.66328 -0.140425 0)
(1.72439 -0.122203 0)
(1.79469 -0.192215 0)
(1.87652 -0.27581 0)
(2.04213 -1.41051 0)
(1.97669 -1.26785 0)
(1.96535 -1.21755 0)
(2.04083 -1.23912 0)
(2.06277 -1.45626 0)
(1.87185 -1.56035 0)
(1.79187 -1.49386 0)
(1.77767 -1.59598 0)
(1.83647 -1.71821 0)
(1.82344 -1.60389 0)
(1.82226 -1.43685 0)
(1.93236 -1.22066 0)
(2.06753 -1.17055 0)
(2.1679 -1.24138 0)
(2.17593 -1.23313 0)
(2.14419 -1.15469 0)
(2.10094 -1.02744 0)
(2.17489 -1.03055 0)
(2.24949 -1.11919 0)
(2.31431 -1.27312 0)
(1.9109 -1.3767 0)
(2.04902 -1.20813 0)
(2.12167 -1.31374 0)
(2.18915 -1.55038 0)
(2.0948 -2.01445 0)
(1.9695 -2.26568 0)
(1.98373 -2.28774 0)
(1.96955 -2.26141 0)
(1.99511 -2.18406 0)
(2.06052 -2.06748 0)
(2.09893 -2.08914 0)
(2.20186 -1.95428 0)
(2.28226 -1.89726 0)
(2.36661 -1.84095 0)
(2.46103 -1.7864 0)
(2.57761 -1.72312 0)
(2.63453 -1.6741 0)
(2.65489 -1.63429 0)
(2.65016 -1.62005 0)
(2.60061 -1.60912 0)
(1.84366 -1.41641 0)
(1.92623 -1.35999 0)
(1.93607 -1.56641 0)
(1.89017 -1.93563 0)
(1.82932 -2.19167 0)
(1.93177 -2.27969 0)
(1.98691 -2.29344 0)
(2.05201 -2.15604 0)
(2.10729 -2.08475 0)
(2.2496 -1.95735 0)
(2.23764 -2.02989 0)
(2.32645 -1.90648 0)
(2.36124 -1.83538 0)
(2.40761 -1.75114 0)
(2.47797 -1.65935 0)
(2.60943 -1.5598 0)
(2.65919 -1.44178 0)
(2.76645 -1.31449 0)
(2.83681 -1.21894 0)
(2.81358 -1.25355 0)
(1.66425 -1.3781 0)
(1.73674 -1.39902 0)
(1.71473 -1.79099 0)
(1.63427 -2.14443 0)
(1.60511 -2.29292 0)
(1.75722 -2.22798 0)
(1.92148 -2.19318 0)
(2.12968 -1.91347 0)
(2.22449 -1.9351 0)
(2.39941 -1.79819 0)
(2.41608 -1.77181 0)
(2.47384 -1.69014 0)
(2.52468 -1.6552 0)
(2.51274 -1.66147 0)
(2.53463 -1.57003 0)
(2.57675 -1.49857 0)
(2.60047 -1.3713 0)
(2.6988 -1.29175 0)
(2.75876 -1.11256 0)
(2.86336 -0.897602 0)
(1.48622 -1.27089 0)
(1.54871 -1.42769 0)
(1.54293 -1.89042 0)
(1.44041 -2.23265 0)
(1.54891 -2.28498 0)
(1.76785 -2.17449 0)
(1.89121 -2.07739 0)
(2.04606 -1.85114 0)
(2.15462 -1.79715 0)
(2.37674 -1.70701 0)
(2.5112 -1.52591 0)
(2.60286 -1.47077 0)
(2.6537 -1.38014 0)
(2.65868 -1.39115 0)
(2.69142 -1.3101 0)
(2.6739 -1.31047 0)
(2.65828 -1.19257 0)
(2.66304 -1.15489 0)
(2.70737 -1.12555 0)
(2.77637 -0.887588 0)
(1.37593 -1.09513 0)
(1.3694 -1.44025 0)
(1.45953 -1.94359 0)
(1.47701 -2.26924 0)
(1.749 -2.2573 0)
(1.87312 -2.1906 0)
(1.96848 -2.01225 0)
(2.02703 -1.85319 0)
(2.09477 -1.77525 0)
(2.27052 -1.66721 0)
(2.40358 -1.4545 0)
(2.591 -1.39149 0)
(2.66904 -1.15021 0)
(2.74908 -1.07163 0)
(2.7696 -0.909354 0)
(2.75942 -0.893213 0)
(2.75449 -0.842671 0)
(2.74071 -0.797027 0)
(2.72051 -0.896648 0)
(2.71683 -0.729933 0)
(1.26589 -1.03334 0)
(1.23173 -1.52981 0)
(1.47498 -1.99355 0)
(1.67949 -2.31614 0)
(2.05459 -2.26469 0)
(2.18723 -2.16945 0)
(2.19329 -1.84501 0)
(2.18092 -1.79548 0)
(2.21298 -1.73241 0)
(2.26373 -1.66102 0)
(2.38673 -1.45172 0)
(2.5207 -1.36206 0)
(2.57919 -1.13013 0)
(2.7141 -1.04027 0)
(2.73587 -0.783211 0)
(2.78273 -0.64382 0)
(2.78546 -0.512926 0)
(2.78303 -0.391458 0)
(2.73517 -0.51994 0)
(2.70116 -0.469645 0)
(1.18019 -1.06203 0)
(1.19199 -1.65738 0)
(1.61021 -2.13185 0)
(1.92957 -2.35455 0)
(2.38269 -2.14003 0)
(2.50352 -2.01301 0)
(2.47297 -1.64905 0)
(2.43831 -1.51769 0)
(2.49161 -1.49044 0)
(2.52503 -1.44514 0)
(2.54204 -1.3594 0)
(2.59279 -1.19527 0)
(2.59724 -1.0384 0)
(2.6609 -0.953519 0)
(2.67875 -0.759057 0)
(2.72362 -0.617989 0)
(2.75384 -0.449069 0)
(2.75473 -0.227801 0)
(2.72215 -0.168367 0)
(2.67988 -0.146739 0)
(1.12466 -1.1661 0)
(1.29216 -1.97105 0)
(1.794 -2.35679 0)
(2.16593 -2.48265 0)
(2.39797 -2.04831 0)
(2.44601 -1.91687 0)
(2.59566 -1.51129 0)
(2.70163 -1.35781 0)
(2.78359 -1.22627 0)
(2.79085 -0.959695 0)
(2.78734 -0.952227 0)
(2.76913 -0.74042 0)
(2.72871 -0.6968 0)
(2.72456 -0.601819 0)
(2.70438 -0.507156 0)
(2.6845 -0.429285 0)
(2.69165 -0.363818 0)
(2.68658 -0.227076 0)
(2.65556 -0.0335524 0)
(2.61866 0.0544608 0)
(1.14276 -1.44183 0)
(1.50343 -2.26962 0)
(1.8526 -2.43862 0)
(2.03821 -2.19051 0)
(2.13785 -1.9308 0)
(2.21091 -1.72026 0)
(2.38647 -1.46264 0)
(2.48652 -1.29356 0)
(2.59168 -1.19357 0)
(2.66592 -0.84352 0)
(2.74385 -0.636527 0)
(2.73209 -0.372695 0)
(2.72787 -0.260611 0)
(2.71157 -0.129116 0)
(2.69405 -0.0588163 0)
(2.66307 -0.033209 0)
(2.63322 -0.0339471 0)
(2.62378 -0.055942 0)
(2.55824 0.101825 0)
(2.57708 0.105212 0)
(1.19703 -1.63971 0)
(1.5588 -2.36941 0)
(1.79385 -2.26704 0)
(1.93018 -2.02334 0)
(2.07095 -1.83788 0)
(2.19208 -1.49885 0)
(2.27055 -1.39363 0)
(2.37351 -1.1851 0)
(2.42779 -1.02023 0)
(2.49019 -0.845478 0)
(2.58454 -0.653967 0)
(2.61176 -0.392837 0)
(2.6408 -0.191851 0)
(2.64315 -0.0047684 0)
(2.5961 0.193663 0)
(2.56688 0.276563 0)
(2.5178 0.361152 0)
(2.50837 0.270606 0)
(2.45121 0.32842 0)
(2.47983 0.268738 0)
(1.15188 -1.66824 0)
(1.52376 -2.34765 0)
(1.76999 -2.14667 0)
(1.97601 -1.81781 0)
(2.18804 -1.69604 0)
(2.33116 -1.11886 0)
(2.34636 -1.20073 0)
(2.45968 -0.961317 0)
(2.50897 -0.656944 0)
(2.53402 -0.543658 0)
(2.56473 -0.343332 0)
(2.55885 -0.163592 0)
(2.54869 -0.0137327 0)
(2.54109 0.109691 0)
(2.49044 0.275261 0)
(2.47961 0.35717 0)
(2.39693 0.514094 0)
(2.3435 0.567232 0)
(2.30086 0.59616 0)
(2.31824 0.53799 0)
(1.07418 -1.6181 0)
(1.59226 -2.16116 0)
(1.92013 -1.81545 0)
(2.03163 -1.1924 0)
(2.21905 -1.14625 0)
(2.40821 -0.770427 0)
(2.53006 -0.522328 0)
(2.60729 -0.272444 0)
(2.57578 -0.0535196 0)
(2.56751 0.0441872 0)
(2.5423 0.201096 0)
(2.49525 0.330539 0)
(2.44707 0.420382 0)
(2.40242 0.486821 0)
(2.355 0.53063 0)
(2.33065 0.547494 0)
(2.2704 0.616071 0)
(2.21376 0.697295 0)
(2.15656 0.783873 0)
(2.13187 0.802903 0)
(0.912811 -1.355 0)
(1.74981 -1.78986 0)
(2.10525 -1.43026 0)
(2.10101 -0.786126 0)
(2.38079 -0.384727 0)
(2.49254 -0.587948 0)
(2.56739 -0.269136 0)
(2.53029 0.0566787 0)
(2.49713 0.135896 0)
(2.47234 0.304235 0)
(2.4289 0.468116 0)
(2.33665 0.635244 0)
(2.27193 0.729895 0)
(2.1983 0.818127 0)
(2.15419 0.833538 0)
(2.12076 0.837435 0)
(2.0808 0.872622 0)
(2.07236 0.878348 0)
(2.0371 0.923502 0)
(2.05815 0.95377 0)
(1.06144 -0.820842 0)
(1.71545 -1.56772 0)
(2.21412 -1.35127 0)
(2.39798 -0.164368 0)
(2.46405 -0.136247 0)
(2.42733 -0.244349 0)
(2.42297 -0.0169231 0)
(2.38677 0.208287 0)
(2.33891 0.369848 0)
(2.3148 0.529304 0)
(2.23219 0.695397 0)
(2.14941 0.820912 0)
(2.08329 0.899387 0)
(2.01964 0.967446 0)
(1.97895 0.98084 0)
(1.95202 0.996173 0)
(1.95401 1.01817 0)
(1.96912 0.996146 0)
(1.99482 0.995329 0)
(2.07106 0.978209 0)
(1.41935 -0.361745 0)
(1.9863 -0.83579 0)
(2.18496 -0.12149 0)
(2.29782 -0.129332 0)
(2.35333 -0.0466216 0)
(2.35033 0.298405 0)
(2.26266 0.559291 0)
(2.19484 0.67843 0)
(2.13673 0.767655 0)
(2.08347 0.898078 0)
(1.97739 1.00792 0)
(1.92045 1.06066 0)
(1.88545 1.0793 0)
(1.86807 1.0877 0)
(1.87178 1.05536 0)
(1.89836 1.04675 0)
(1.96258 1.02004 0)
(2.16246 0.904514 0)
(2.37941 0.794973 0)
(2.77818 0.443623 0)
(1.20797 -0.105587 0)
(1.90561 -0.396229 0)
(2.23274 0.270132 0)
(2.22588 0.576627 0)
(2.20093 0.660393 0)
(2.14088 0.760548 0)
(2.0399 0.88972 0)
(1.95264 0.981285 0)
(1.90953 1.03928 0)
(1.8486 1.12756 0)
(1.79236 1.15952 0)
(1.79365 1.1528 0)
(1.80909 1.13181 0)
(1.84638 1.0889 0)
(2.03976 0.951439 0)
(2.26204 0.826353 0)
(2.66627 0.501478 0)
(3.03658 0.0912978 0)
(3.05569 -0.0239628 0)
(3.00407 -0.00470061 0)
(1.03233 -0.00373046 0)
(1.89901 0.881276 0)
(2.10449 0.853725 0)
(2.00877 0.945435 0)
(1.97447 0.977578 0)
(1.85815 1.09347 0)
(1.7805 1.1422 0)
(1.75764 1.14623 0)
(1.75813 1.16212 0)
(1.74059 1.20354 0)
(1.727 1.19383 0)
(1.87102 1.06327 0)
(2.095 0.881714 0)
(2.49421 0.579777 0)
(2.98152 0.140462 0)
(3.07333 -0.0284718 0)
(3.00817 -0.00766795 0)
(3.00293 -0.00382715 0)
(3.00123 -0.00219156 0)
(3.00008 -0.000485914 0)
(1.16337 0.766246 0)
(1.82822 1.15123 0)
(1.84858 1.14439 0)
(1.74305 1.19627 0)
(1.71187 1.20398 0)
(1.65844 1.24543 0)
(1.65134 1.2174 0)
(1.7213 1.16732 0)
(1.75123 1.2416 0)
(1.79365 1.15066 0)
(2.2804 0.73923 0)
(2.86508 0.203438 0)
(3.09928 -0.0309331 0)
(3.02107 -0.0128106 0)
(3.00473 -0.00560439 0)
(3.00187 -0.00306423 0)
(3.00005 -0.000588693 0)
(2.99998 -2.18148e-05 0)
(2.99999 1.4403e-05 0)
(3 5.92794e-06 0)
(1.58059 1.2567 0)
(1.58609 1.26106 0)
(1.59584 1.26588 0)
(1.60142 1.26868 0)
(1.60652 1.26248 0)
(1.59356 1.26756 0)
(1.87218 1.17606 0)
(2.94757 0.411825 0)
(3.37507 -0.655856 0)
(3 6.33115e-11 0)
(3 -7.46343e-11 0)
(3 7.81842e-11 0)
(3 4.98825e-15 0)
(3 -4.25035e-13 0)
(3 -1.81374e-14 0)
(3 1.62621e-14 0)
(3 -1.27566e-14 0)
(3 -3.17555e-15 0)
(3 -4.302e-15 0)
(3 -9.03789e-15 0)
(1.57763 1.2409 0)
(1.59314 1.2525 0)
(1.60626 1.2624 0)
(1.60882 1.27405 0)
(1.63784 1.26599 0)
(1.74311 1.19927 0)
(2.24634 0.74205 0)
(2.99439 0.0157267 0)
(3 5.89753e-08 0)
(3 -3.04544e-11 0)
(3 -6.49305e-15 0)
(3 -3.06095e-15 0)
(3 -8.68522e-16 0)
(3 -4.40859e-16 0)
(3 -2.61702e-15 0)
(3 -1.36037e-15 0)
(3 -2.98218e-15 0)
(3 -2.4727e-15 0)
(3 -3.78141e-15 0)
(3 -4.26923e-15 0)
(1.57913 1.24726 0)
(1.60342 1.25333 0)
(1.61697 1.25808 0)
(1.61146 1.26888 0)
(1.74325 1.19645 0)
(2.25417 0.777006 0)
(3.00678 -0.0119184 0)
(2.99997 -0.00026726 0)
(3 7.13759e-07 0)
(3 5.87495e-11 0)
(3 -2.06661e-14 0)
(3 -1.90257e-15 0)
(3 -1.28957e-15 0)
(3 -1.00329e-15 0)
(3 -3.3395e-15 0)
(3 -1.80783e-15 0)
(3 -4.60528e-15 0)
(3 -3.19395e-15 0)
(3 -5.06064e-15 0)
(3 -4.31468e-15 0)
(1.58111 1.25231 0)
(1.60187 1.25701 0)
(1.62465 1.26409 0)
(1.62339 1.28146 0)
(1.89957 1.06465 0)
(2.76695 0.210928 0)
(3.00412 0.000120874 0)
(2.99993 5.77504e-05 0)
(3 -8.66486e-07 0)
(3 8.7616e-10 0)
(3 -9.242e-15 0)
(3 -3.01633e-15 0)
(3 -1.88919e-15 0)
(3 -3.80527e-16 0)
(3 -3.31516e-15 0)
(3 -1.9537e-15 0)
(3 -4.50932e-15 0)
(3 -3.2872e-15 0)
(3 -5.8883e-15 0)
(3 -4.78597e-15 0)
(1.58208 1.26703 0)
(1.59471 1.27196 0)
(1.62525 1.26817 0)
(1.62611 1.28228 0)
(2.3077 0.673028 0)
(3.02188 -0.0194323 0)
(2.99972 0.00010078 0)
(3 -4.03927e-06 0)
(3 8.03906e-08 0)
(3 -8.9766e-10 0)
(3 1.4938e-13 0)
(3 -2.43974e-15 0)
(3 -2.05242e-15 0)
(3 -8.98708e-16 0)
(3 -3.61904e-15 0)
(3 -2.38897e-15 0)
(3 -3.57013e-15 0)
(3 -3.7351e-15 0)
(3 -5.84596e-15 0)
(3 -5.77437e-15 0)
(1.58264 1.28432 0)
(1.5881 1.28798 0)
(1.64502 1.26155 0)
(1.81797 1.12485 0)
(2.69576 0.251999 0)
(3 -5.96676e-10 0)
(3 1.37769e-08 0)
(3 -1.23816e-08 0)
(3 5.25553e-10 0)
(3 2.07601e-12 0)
(3 -9.48008e-14 0)
(3 -4.37637e-16 0)
(3 -1.78294e-15 0)
(3 -1.93796e-15 0)
(3 -3.35775e-15 0)
(3 -2.47616e-15 0)
(3 -2.96258e-15 0)
(3 -3.79131e-15 0)
(3 -5.50089e-15 0)
(3 -5.87776e-15 0)
(1.58457 1.29873 0)
(1.55283 1.30293 0)
(1.68065 1.22404 0)
(2.17976 0.816706 0)
(3.02308 -0.0214577 0)
(3 -9.76229e-12 0)
(3 2.13584e-12 0)
(3 1.18539e-11 0)
(3 -3.37562e-12 0)
(3 2.37299e-15 0)
(3 -3.14705e-16 0)
(3 -1.23426e-15 0)
(3 -1.40844e-15 0)
(3 -2.18989e-15 0)
(3 -2.77422e-15 0)
(3 -2.60496e-15 0)
(3 -2.72515e-15 0)
(3 -3.59309e-15 0)
(3 -4.87804e-15 0)
(3 -5.33669e-15 0)
(1.59526 1.3309 0)
(1.50169 1.33517 0)
(1.7227 1.19062 0)
(2.38167 0.554617 0)
(3 -1.28282e-07 0)
(3 9.98431e-12 0)
(3 2.36696e-14 0)
(3 -1.90843e-14 0)
(3 1.57865e-14 0)
(3 -1.84342e-15 0)
(3 -1.23106e-15 0)
(3 -9.37877e-16 0)
(3 -1.34961e-15 0)
(3 -1.74551e-15 0)
(3 -2.06143e-15 0)
(3 -2.27871e-15 0)
(3 -2.74084e-15 0)
(3 -3.86387e-15 0)
(3 -4.49086e-15 0)
(3 -5.12354e-15 0)
(1.58615 1.30067 0)
(1.47601 1.34007 0)
(1.9996 1.02022 0)
(2.89402 0.100451 0)
(3 -6.07456e-09 0)
(3 4.70791e-11 0)
(3 -1.86668e-13 0)
(3 5.45233e-16 0)
(3 -2.20747e-15 0)
(3 -1.39779e-15 0)
(3 -1.19799e-15 0)
(3 -1.13635e-15 0)
(3 -1.52551e-15 0)
(3 -1.75423e-15 0)
(3 -1.9894e-15 0)
(3 -2.18679e-15 0)
(3 -3.56175e-15 0)
(3 -4.38989e-15 0)
(3 -4.6648e-15 0)
(3 -5.46985e-15 0)
(1.59904 1.29116 0)
(1.46855 1.38868 0)
(2.15732 0.836017 0)
(3.01045 -0.00831929 0)
(3 2.48391e-08 0)
(3 -4.49179e-11 0)
(3 1.16159e-13 0)
(3 -1.57122e-15 0)
(3 -8.35672e-16 0)
(3 -3.50059e-16 0)
(3 -8.10688e-16 0)
(3 -6.97685e-16 0)
(3 -5.86751e-16 0)
(3 -1.15184e-15 0)
(3 -1.73677e-15 0)
(3 -1.77413e-15 0)
(3 -2.23919e-15 0)
(3 -3.34431e-15 0)
(3 -4.0096e-15 0)
(3 -5.17292e-15 0)
(1.61777 1.2807 0)
(1.55188 1.32821 0)
(2.40154 0.559186 0)
(3 -3.7654e-12 0)
(3 -1.79718e-11 0)
(3 3.52215e-13 0)
(3 -2.82431e-15 0)
(3 6.35811e-16 0)
(3 2.37114e-16 0)
(3 -4.9742e-16 0)
(3 -7.84345e-16 0)
(3 -8.73284e-16 0)
(3 -3.45225e-16 0)
(3 -4.51229e-16 0)
(3 -1.14737e-15 0)
(3 -1.44867e-15 0)
(3 -1.95512e-15 0)
(3 -2.04689e-15 0)
(3 -2.92658e-15 0)
(3 -3.27313e-15 0)
(1.63654 1.26732 0)
(1.65802 1.23427 0)
(2.6533 0.289138 0)
(3 1.93658e-12 0)
(3 -2.11363e-13 0)
(3 -2.74667e-15 0)
(3 -1.75081e-16 0)
(3 -5.74121e-17 0)
(3 3.3337e-16 0)
(3 -5.37277e-16 0)
(3 -1.0445e-15 0)
(3 -1.22289e-15 0)
(3 -7.22283e-16 0)
(3 -4.6268e-16 0)
(3 -4.11462e-16 0)
(3 -4.52473e-16 0)
(3 -1.30825e-15 0)
(3 -1.75446e-15 0)
(3 -2.17032e-15 0)
(3 -2.38252e-15 0)
(1.65286 1.23702 0)
(1.80215 1.10286 0)
(2.86465 0.0988584 0)
(3 -1.92928e-15 0)
(3 -2.30022e-16 0)
(3 -9.91256e-17 0)
(3 -1.13252e-17 0)
(3 1.21678e-16 0)
(3 -2.48984e-16 0)
(3 -3.45858e-16 0)
(3 -9.64965e-16 0)
(3 -1.40501e-15 0)
(3 -1.49796e-15 0)
(3 -6.58782e-16 0)
(3 -1.97009e-16 0)
(3 1.0545e-16 0)
(3 -1.96001e-16 0)
(3 -1.22994e-15 0)
(3 -1.87118e-15 0)
(3 -2.39118e-15 0)
(1.66876 1.20437 0)
(1.89468 0.972982 0)
(2.98519 0.00882804 0)
(3 -7.8826e-16 0)
(3 -8.27333e-17 0)
(3 -3.02624e-16 0)
(3 -2.6432e-17 0)
(3 -8.52194e-17 0)
(3 -9.89737e-20 0)
(3 1.22387e-16 0)
(3 6.5779e-16 0)
(3 7.79169e-16 0)
(3 2.0516e-16 0)
(3 -2.90549e-16 0)
(3 3.95923e-16 0)
(3 8.41227e-16 0)
(3 8.92479e-16 0)
(3 7.02543e-16 0)
(3 4.16266e-16 0)
(3 -3.45427e-16 0)
(1.73387 1.169 0)
(2.07587 0.816554 0)
(3 -2.08058e-15 0)
(3 -1.13004e-15 0)
(3 -3.60833e-16 0)
(3 -5.95504e-17 0)
(3 -3.93323e-16 0)
(3 -1.80972e-16 0)
(3 1.88563e-16 0)
(3 2.59655e-16 0)
(3 6.08121e-16 0)
(3 7.84747e-16 0)
(3 9.44138e-16 0)
(3 -9.99715e-18 0)
(3 -4.06821e-16 0)
(3 -8.10459e-17 0)
(3 3.94987e-16 0)
(3 4.18911e-16 0)
(3 1.9522e-16 0)
(3 -2.36432e-16 0)
(1.75204 1.09533 0)
(2.22611 0.6551 0)
(3 -3.15343e-16 0)
(3 -4.09458e-16 0)
(3 5.08711e-16 0)
(3 5.97726e-16 0)
(3 7.68718e-16 0)
(3 1.31167e-15 0)
(3 1.4533e-15 0)
(3 1.06313e-15 0)
(3 7.30415e-16 0)
(3 7.45638e-16 0)
(3 8.5834e-16 0)
(3 4.12267e-16 0)
(3 -2.63794e-16 0)
(3 -5.95492e-16 0)
(3 -3.16794e-16 0)
(3 4.83735e-17 0)
(3 5.01563e-16 0)
(3 1.60862e-16 0)
(1.80256 1.01317 0)
(2.41914 0.459647 0)
(3 -5.81178e-16 0)
(3 7.0124e-17 0)
(3 6.28619e-16 0)
(3 4.36188e-16 0)
(3 1.45213e-16 0)
(3 -1.1198e-17 0)
(3 4.035e-16 0)
(3 4.37702e-16 0)
(3 6.02898e-16 0)
(3 1.20643e-15 0)
(3 1.41154e-15 0)
(3 1.96752e-15 0)
(3 2.03776e-15 0)
(3 1.94146e-15 0)
(3 1.83582e-15 0)
(3 1.95905e-15 0)
(3 2.23321e-15 0)
(3 2.29474e-15 0)
(1.94659 0.887245 0)
(2.70281 0.217496 0)
(3 8.55652e-16 0)
(3 2.18661e-15 0)
(3 2.57936e-15 0)
(3 2.48335e-15 0)
(3 2.17036e-15 0)
(3 2.02656e-15 0)
(3 2.6526e-15 0)
(3 2.91102e-15 0)
(3 2.94815e-15 0)
(3 3.24089e-15 0)
(3 3.58898e-15 0)
(3 4.05731e-15 0)
(3 4.30133e-15 0)
(3 4.59965e-15 0)
(3 4.64404e-15 0)
(3 4.56281e-15 0)
(3 4.52612e-15 0)
(3 4.47861e-15 0)
(2.1041 0.644531 0)
(2.991 0.000263976 0)
(3 2.62845e-15 0)
(3 3.11239e-15 0)
(3 3.26034e-15 0)
(3 3.44547e-15 0)
(3 3.61484e-15 0)
(3 3.38327e-15 0)
(3 3.2222e-15 0)
(3 3.16346e-15 0)
(3 2.92989e-15 0)
(3 2.8002e-15 0)
(3 2.49703e-15 0)
(3 2.46221e-15 0)
(3 2.5107e-15 0)
(3 2.59691e-15 0)
(3 2.55456e-15 0)
(3 2.5198e-15 0)
(3 2.60507e-15 0)
(3 2.69012e-15 0)
(1.99533 0.375324 0)
(2.99994 -7.80329e-06 0)
(3 2.12337e-15 0)
(3 2.18054e-15 0)
(3 2.96244e-15 0)
(3 3.2897e-15 0)
(3 3.81222e-15 0)
(3 4.15136e-15 0)
(3 3.54031e-15 0)
(3 2.71969e-15 0)
(3 2.09093e-15 0)
(3 1.90752e-15 0)
(3 1.43352e-15 0)
(3 9.11422e-16 0)
(3 5.3237e-16 0)
(3 6.08329e-16 0)
(3 9.74581e-16 0)
(3 1.25475e-15 0)
(3 1.43008e-15 0)
(3 1.81697e-15 0)
(1.99482 -0.37638 0)
(2.99994 7.1849e-06 0)
(3 2.90656e-15 0)
(3 3.93709e-15 0)
(3 4.10662e-15 0)
(3 3.43316e-15 0)
(3 2.70722e-15 0)
(3 1.73847e-15 0)
(3 1.54022e-15 0)
(3 1.87018e-15 0)
(3 1.91294e-15 0)
(3 1.52782e-15 0)
(3 1.13777e-15 0)
(3 7.07364e-16 0)
(3 2.66938e-16 0)
(3 3.55108e-16 0)
(3 5.6102e-16 0)
(3 9.67435e-16 0)
(3 1.11256e-15 0)
(3 1.26692e-15 0)
(2.10262 -0.641351 0)
(2.99137 -0.000275777 0)
(3 6.3177e-15 0)
(3 5.58444e-15 0)
(3 4.99205e-15 0)
(3 3.45221e-15 0)
(3 2.9478e-15 0)
(3 1.70172e-15 0)
(3 1.4197e-15 0)
(3 1.31716e-15 0)
(3 8.51836e-16 0)
(3 6.33168e-16 0)
(3 5.76712e-16 0)
(3 5.04449e-16 0)
(3 8.77126e-16 0)
(3 9.6685e-16 0)
(3 8.65531e-16 0)
(3 6.49293e-16 0)
(3 6.6025e-16 0)
(3 7.50047e-16 0)
(1.95231 -0.886839 0)
(2.70773 -0.21459 0)
(3 6.3588e-15 0)
(3 5.22416e-15 0)
(3 4.09051e-15 0)
(3 3.04146e-15 0)
(3 2.52749e-15 0)
(3 2.4055e-15 0)
(3 2.18019e-15 0)
(3 1.36842e-15 0)
(3 9.78281e-16 0)
(3 7.85312e-16 0)
(3 9.15518e-16 0)
(3 1.03313e-15 0)
(3 1.41033e-15 0)
(3 1.58902e-15 0)
(3 1.27085e-15 0)
(3 6.14168e-16 0)
(3 3.95527e-16 0)
(3 8.20496e-17 0)
(1.80635 -1.01394 0)
(2.41819 -0.46062 0)
(3 5.02309e-15 0)
(3 3.70949e-15 0)
(3 3.20824e-15 0)
(3 3.14675e-15 0)
(3 2.66603e-15 0)
(3 1.86297e-15 0)
(3 1.79945e-15 0)
(3 1.69474e-15 0)
(3 1.29028e-15 0)
(3 1.02873e-15 0)
(3 1.0637e-15 0)
(3 1.05435e-15 0)
(3 9.18269e-16 0)
(3 1.01882e-15 0)
(3 1.07659e-15 0)
(3 1.05608e-15 0)
(3 1.40463e-15 0)
(3 9.30323e-16 0)
(1.74312 -1.09807 0)
(2.21925 -0.657846 0)
(3 5.0186e-15 0)
(3 3.52012e-15 0)
(3 3.35663e-15 0)
(3 3.11469e-15 0)
(3 2.48651e-15 0)
(3 2.00652e-15 0)
(3 1.13874e-15 0)
(3 8.54695e-16 0)
(3 9.45183e-16 0)
(3 1.33892e-15 0)
(3 1.69139e-15 0)
(3 1.7547e-15 0)
(3 1.75657e-15 0)
(3 1.69223e-15 0)
(3 1.4693e-15 0)
(3 1.33882e-15 0)
(3 9.95976e-16 0)
(3 9.12863e-16 0)
(1.735 -1.16723 0)
(2.07385 -0.819274 0)
(3 4.20802e-15 0)
(3 2.99868e-15 0)
(3 2.48688e-15 0)
(3 2.43466e-15 0)
(3 1.75921e-15 0)
(3 8.14604e-16 0)
(3 4.90192e-16 0)
(3 2.02191e-16 0)
(3 6.39733e-17 0)
(3 1.19702e-16 0)
(3 4.61922e-16 0)
(3 6.47609e-16 0)
(3 3.31367e-16 0)
(3 4.09407e-16 0)
(3 7.85796e-17 0)
(3 -1.04165e-16 0)
(3 -2.28309e-16 0)
(3 -6.14551e-17 0)
(1.67169 -1.20343 0)
(1.90222 -0.970075 0)
(2.99079 -0.0052254 0)
(3 -3.56088e-15 0)
(3 1.20979e-15 0)
(3 1.06257e-15 0)
(3 6.00058e-16 0)
(3 4.41165e-16 0)
(3 1.70282e-16 0)
(3 1.59118e-16 0)
(3 7.51351e-17 0)
(3 2.77178e-16 0)
(3 4.22132e-16 0)
(3 1.65726e-16 0)
(3 -3.75734e-16 0)
(3 -2.82503e-16 0)
(3 -6.65795e-17 0)
(3 5.29235e-16 0)
(3 1.077e-15 0)
(3 1.90745e-15 0)
(1.65307 -1.2376 0)
(1.79733 -1.10217 0)
(2.86585 -0.0960748 0)
(3 5.87841e-14 0)
(3 -5.16282e-16 0)
(3 9.04328e-17 0)
(3 3.54936e-17 0)
(3 2.89979e-16 0)
(3 6.48561e-16 0)
(3 5.35612e-16 0)
(3 4.41529e-16 0)
(3 4.15114e-16 0)
(3 1.75617e-16 0)
(3 -2.41679e-16 0)
(3 2.062e-16 0)
(3 1.49427e-15 0)
(3 1.69981e-15 0)
(3 2.48615e-15 0)
(3 2.94775e-15 0)
(3 3.82645e-15 0)
(1.63669 -1.26618 0)
(1.6617 -1.23111 0)
(2.65431 -0.286778 0)
(3 -2.3817e-12 0)
(3 2.20757e-13 0)
(3 2.42009e-15 0)
(3 -1.57583e-16 0)
(3 5.17289e-16 0)
(3 1.00895e-15 0)
(3 1.56255e-15 0)
(3 9.38326e-16 0)
(3 3.9806e-16 0)
(3 -2.84245e-16 0)
(3 1.97516e-16 0)
(3 1.45209e-15 0)
(3 2.1292e-15 0)
(3 2.66498e-15 0)
(3 2.89964e-15 0)
(3 2.6455e-15 0)
(3 3.18272e-15 0)
(1.61806 -1.28152 0)
(1.55548 -1.3249 0)
(2.4036 -0.555208 0)
(3 3.68526e-12 0)
(3 1.37049e-11 0)
(3 -2.97562e-13 0)
(3 3.11799e-15 0)
(3 3.16995e-16 0)
(3 1.11884e-15 0)
(3 1.49153e-15 0)
(3 7.24848e-16 0)
(3 4.0137e-16 0)
(3 7.86231e-16 0)
(3 1.40586e-15 0)
(3 2.14988e-15 0)
(3 2.78878e-15 0)
(3 2.80058e-15 0)
(3 2.95564e-15 0)
(3 3.69513e-15 0)
(3 4.49795e-15 0)
(1.59846 -1.29249 0)
(1.46791 -1.39393 0)
(2.14198 -0.849159 0)
(3.01057 0.00843334 0)
(3 -2.09576e-08 0)
(3 4.74133e-11 0)
(3 -1.46771e-13 0)
(3 8.02482e-16 0)
(3 4.60691e-16 0)
(3 1.72838e-15 0)
(3 9.38854e-16 0)
(3 5.10724e-16 0)
(3 1.90431e-15 0)
(3 2.21191e-15 0)
(3 2.62255e-15 0)
(3 2.82949e-15 0)
(3 4.27496e-15 0)
(3 5.29984e-15 0)
(3 4.58862e-15 0)
(3 3.86087e-15 0)
(1.58437 -1.3001 0)
(1.47417 -1.33695 0)
(2.01065 -1.02223 0)
(2.89904 -0.100838 0)
(3 4.66004e-09 0)
(3 -3.96885e-11 0)
(3 2.15459e-13 0)
(3 -2.9163e-15 0)
(3 9.0565e-17 0)
(3 1.01127e-15 0)
(3 1.85526e-15 0)
(3 1.99551e-15 0)
(3 2.58239e-15 0)
(3 3.22284e-15 0)
(3 3.16399e-15 0)
(3 2.55213e-15 0)
(3 4.61236e-15 0)
(3 4.56863e-15 0)
(3 3.83536e-15 0)
(3 4.68907e-15 0)
(1.5938 -1.32913 0)
(1.50228 -1.33281 0)
(1.72382 -1.19146 0)
(2.38309 -0.553826 0)
(3 6.01875e-08 0)
(3 -2.42356e-11 0)
(3 -1.44666e-14 0)
(3 1.09275e-14 0)
(3 -1.18132e-14 0)
(3 2.23041e-15 0)
(3 2.28571e-15 0)
(3 1.9179e-15 0)
(3 2.77073e-15 0)
(3 4.09847e-15 0)
(3 2.85535e-15 0)
(3 2.54328e-15 0)
(3 4.06034e-15 0)
(3 4.08288e-15 0)
(3 3.91465e-15 0)
(3 4.28222e-15 0)
(1.58601 -1.29946 0)
(1.55368 -1.29973 0)
(1.67786 -1.22007 0)
(2.16123 -0.817167 0)
(3.0233 0.0208763 0)
(3 1.13379e-11 0)
(3 -5.31066e-12 0)
(3 -7.70267e-12 0)
(3 3.37583e-12 0)
(3 -4.10206e-15 0)
(3 2.22737e-15 0)
(3 2.03462e-15 0)
(3 1.92416e-15 0)
(3 3.87493e-15 0)
(3 2.36581e-15 0)
(3 3.05988e-15 0)
(3 4.25669e-15 0)
(3 4.37985e-15 0)
(3 4.44648e-15 0)
(3 4.3992e-15 0)
(1.5839 -1.28565 0)
(1.58873 -1.28973 0)
(1.64612 -1.25981 0)
(1.84126 -1.10888 0)
(2.70587 -0.243388 0)
(3 5.95681e-10 0)
(3 -1.36816e-08 0)
(3 1.22871e-08 0)
(3 -5.20014e-10 0)
(3 -1.93777e-12 0)
(3 9.28205e-14 0)
(3 1.73824e-15 0)
(3 1.81495e-15 0)
(3 3.14835e-15 0)
(3 3.39884e-15 0)
(3 4.40856e-15 0)
(3 4.80491e-15 0)
(3 5.43961e-15 0)
(3 4.70979e-15 0)
(3 4.64625e-15 0)
(1.58245 -1.26874 0)
(1.59538 -1.27282 0)
(1.62545 -1.2684 0)
(1.62024 -1.28511 0)
(2.3059 -0.677529 0)
(3.02225 0.0198918 0)
(2.99971 -8.2442e-05 0)
(3 3.96238e-06 0)
(3 -7.92841e-08 0)
(3 8.89719e-10 0)
(3 -1.38016e-13 0)
(3 2.82275e-15 0)
(3 2.29096e-15 0)
(3 2.17524e-15 0)
(3 3.28667e-15 0)
(3 4.53353e-15 0)
(3 4.80153e-15 0)
(3 4.71434e-15 0)
(3 4.66941e-15 0)
(3 3.41956e-15 0)
(1.58103 -1.25322 0)
(1.60083 -1.2584 0)
(1.62325 -1.26594 0)
(1.60751 -1.29447 0)
(1.88602 -1.07478 0)
(2.75959 -0.217754 0)
(3.00407 -0.000336688 0)
(2.99993 -5.35856e-05 0)
(3 8.28056e-07 0)
(3 -8.68279e-10 0)
(3 9.70635e-15 0)
(3 3.73684e-15 0)
(3 3.44056e-15 0)
(3 1.44211e-15 0)
(3 3.44859e-15 0)
(3 3.74805e-15 0)
(3 4.41292e-15 0)
(3 3.31186e-15 0)
(3 3.41509e-15 0)
(3 2.95601e-15 0)
(1.5791 -1.24816 0)
(1.6024 -1.25471 0)
(1.61569 -1.25948 0)
(1.61147 -1.26882 0)
(1.75706 -1.19215 0)
(2.24938 -0.785866 0)
(3.00577 0.0110197 0)
(2.99995 0.000229841 0)
(3 -6.68871e-07 0)
(3 -5.86695e-11 0)
(3 6.88455e-15 0)
(3 3.25913e-15 0)
(3 2.81134e-15 0)
(3 2.72124e-15 0)
(3 3.49929e-15 0)
(3 2.50173e-15 0)
(3 3.74142e-15 0)
(3 2.37967e-15 0)
(3 1.6887e-15 0)
(3 2.0124e-15 0)
(1.57654 -1.24017 0)
(1.59255 -1.25254 0)
(1.60601 -1.26294 0)
(1.6104 -1.27174 0)
(1.64222 -1.25785 0)
(1.75211 -1.1947 0)
(2.25651 -0.735931 0)
(2.99629 -0.0135144 0)
(3 -6.39284e-08 0)
(3 3.14287e-11 0)
(3 6.64418e-15 0)
(3 3.18206e-15 0)
(3 1.76351e-15 0)
(3 2.0025e-15 0)
(3 2.73482e-15 0)
(3 2.70723e-15 0)
(3 2.65145e-15 0)
(3 1.84424e-15 0)
(3 7.36047e-16 0)
(3 -3.60876e-16 0)
(1.58012 -1.25537 0)
(1.58625 -1.25966 0)
(1.59634 -1.2653 0)
(1.60134 -1.26876 0)
(1.608 -1.26311 0)
(1.59617 -1.26634 0)
(1.86865 -1.17268 0)
(2.94787 -0.405961 0)
(3.38172 0.660697 0)
(3 -6.36803e-11 0)
(3 7.54766e-11 0)
(3 -7.85684e-11 0)
(3 -6.02487e-15 0)
(3 4.27428e-13 0)
(3 1.59225e-14 0)
(3 -1.47168e-14 0)
(3 1.31176e-14 0)
(3 2.00834e-15 0)
(3 5.49334e-16 0)
(3 2.84573e-16 0)
(1.16563 -0.760267 0)
(1.82388 -1.15557 0)
(1.85098 -1.14115 0)
(1.74295 -1.19491 0)
(1.71296 -1.20508 0)
(1.65857 -1.24592 0)
(1.65138 -1.21781 0)
(1.72035 -1.16663 0)
(1.74764 -1.24223 0)
(1.78819 -1.1533 0)
(2.27747 -0.743595 0)
(2.86345 -0.206037 0)
(3.09851 0.0300985 0)
(3.02092 0.0127229 0)
(3.00474 0.00560213 0)
(3.00188 0.00307572 0)
(3.00005 0.000593264 0)
(2.99998 2.22499e-05 0)
(2.99999 -1.439e-05 0)
(3 -5.92391e-06 0)
(1.03345 0.000164269 0)
(1.90701 -0.854248 0)
(2.09646 -0.877999 0)
(2.00875 -0.949171 0)
(1.97685 -0.978759 0)
(1.85799 -1.09545 0)
(1.78053 -1.143 0)
(1.75639 -1.14635 0)
(1.75645 -1.16245 0)
(1.73844 -1.20449 0)
(1.72621 -1.19462 0)
(1.87374 -1.06334 0)
(2.09843 -0.880665 0)
(2.4961 -0.578156 0)
(2.98178 -0.139748 0)
(3.07334 0.0285334 0)
(3.00818 0.00766965 0)
(3.00293 0.00382525 0)
(3.00123 0.00218998 0)
(3.00008 0.000484897 0)
(1.18031 0.101284 0)
(1.87666 0.327244 0)
(2.24878 -0.153364 0)
(2.22707 -0.563156 0)
(2.2004 -0.664815 0)
(2.14611 -0.757315 0)
(2.03873 -0.891681 0)
(1.95019 -0.983114 0)
(1.90728 -1.03981 0)
(1.84771 -1.12811 0)
(1.79358 -1.15831 0)
(1.79421 -1.15212 0)
(1.81009 -1.13128 0)
(1.84649 -1.08873 0)
(2.03852 -0.952292 0)
(2.26115 -0.827349 0)
(2.66657 -0.501373 0)
(3.03673 -0.0908487 0)
(3.05561 0.024007 0)
(3.00407 0.00470058 0)
(1.48235 0.4438 0)
(1.99059 0.948354 0)
(2.22213 -0.250352 0)
(2.28993 0.126947 0)
(2.35433 0.057957 0)
(2.35233 -0.296196 0)
(2.26286 -0.555439 0)
(2.19465 -0.672013 0)
(2.1348 -0.765041 0)
(2.08374 -0.895427 0)
(1.97839 -1.00498 0)
(1.92188 -1.05828 0)
(1.88626 -1.07827 0)
(1.86813 -1.08834 0)
(1.87082 -1.05619 0)
(1.89768 -1.0474 0)
(1.96267 -1.02004 0)
(2.16312 -0.903835 0)
(2.38002 -0.794199 0)
(2.77831 -0.443229 0)
(1.15735 0.882237 0)
(1.65196 1.67158 0)
(2.25883 1.30092 0)
(2.40039 0.259986 0)
(2.48475 0.092192 0)
(2.4318 0.229466 0)
(2.42568 0.0189145 0)
(2.38543 -0.213643 0)
(2.33819 -0.370786 0)
(2.31382 -0.529487 0)
(2.23244 -0.695375 0)
(2.1503 -0.821327 0)
(2.08279 -0.901758 0)
(2.01879 -0.970844 0)
(1.97736 -0.983625 0)
(1.95182 -0.996747 0)
(1.95427 -1.01748 0)
(1.96962 -0.995407 0)
(1.99513 -0.994766 0)
(2.07084 -0.978176 0)
(0.917392 1.41015 0)
(1.71687 1.79948 0)
(2.06842 1.44328 0)
(2.11375 0.803806 0)
(2.38661 0.454735 0)
(2.50097 0.561385 0)
(2.56852 0.234973 0)
(2.53159 -0.068633 0)
(2.49779 -0.148387 0)
(2.46965 -0.315973 0)
(2.42836 -0.473915 0)
(2.33722 -0.638489 0)
(2.27209 -0.732349 0)
(2.19849 -0.819871 0)
(2.15437 -0.833371 0)
(2.12193 -0.835007 0)
(2.08177 -0.869697 0)
(2.07271 -0.876814 0)
(2.03659 -0.923498 0)
(2.05774 -0.954192 0)
(1.09463 1.64834 0)
(1.60841 2.12285 0)
(1.89279 1.79633 0)
(2.04723 1.15647 0)
(2.23288 1.20175 0)
(2.38932 0.758574 0)
(2.5182 0.533326 0)
(2.60151 0.285853 0)
(2.56889 0.0555842 0)
(2.56324 -0.0340437 0)
(2.54239 -0.189672 0)
(2.49698 -0.320946 0)
(2.44828 -0.41355 0)
(2.40282 -0.481967 0)
(2.35489 -0.52714 0)
(2.33084 -0.545772 0)
(2.2698 -0.616778 0)
(2.21217 -0.699953 0)
(2.1557 -0.785299 0)
(2.13164 -0.803427 0)
(1.20845 1.70082 0)
(1.5808 2.31944 0)
(1.76504 2.09417 0)
(1.96395 1.79041 0)
(2.14189 1.7481 0)
(2.31245 1.13377 0)
(2.33425 1.21556 0)
(2.4482 0.962003 0)
(2.49913 0.673521 0)
(2.52685 0.554907 0)
(2.56251 0.353995 0)
(2.55788 0.167971 0)
(2.54829 0.0141719 0)
(2.53949 -0.113913 0)
(2.48933 -0.281187 0)
(2.47841 -0.363705 0)
(2.39604 -0.519747 0)
(2.34359 -0.567244 0)
(2.30155 -0.594524 0)
(2.31892 -0.535695 0)
(1.24419 1.68665 0)
(1.62573 2.35715 0)
(1.83661 2.24531 0)
(1.92098 1.99867 0)
(2.04617 1.85432 0)
(2.18365 1.49301 0)
(2.27119 1.39964 0)
(2.37671 1.17387 0)
(2.43012 1.02005 0)
(2.49586 0.838597 0)
(2.59183 0.64581 0)
(2.6168 0.381741 0)
(2.64266 0.178985 0)
(2.64091 -0.00855507 0)
(2.59547 -0.200856 0)
(2.56665 -0.278337 0)
(2.51948 -0.355852 0)
(2.51049 -0.264129 0)
(2.45134 -0.325288 0)
(2.47983 -0.267435 0)
(1.16098 1.51792 0)
(1.56486 2.27041 0)
(1.94479 2.40465 0)
(2.08959 2.17015 0)
(2.14308 1.95548 0)
(2.22479 1.72638 0)
(2.40671 1.45849 0)
(2.50527 1.28681 0)
(2.61362 1.1841 0)
(2.68193 0.825097 0)
(2.75244 0.621592 0)
(2.73623 0.36356 0)
(2.72814 0.257506 0)
(2.71125 0.131039 0)
(2.69492 0.0665284 0)
(2.6638 0.0427433 0)
(2.63374 0.0445182 0)
(2.62295 0.0583036 0)
(2.55775 -0.103468 0)
(2.57607 -0.109978 0)
(1.05757 1.24373 0)
(1.35216 2.03452 0)
(1.88382 2.34805 0)
(2.24192 2.48176 0)
(2.45902 2.07676 0)
(2.47876 1.92962 0)
(2.6074 1.52056 0)
(2.70669 1.36094 0)
(2.77862 1.22366 0)
(2.78373 0.972917 0)
(2.78074 0.967489 0)
(2.76412 0.752021 0)
(2.72333 0.705475 0)
(2.72077 0.610683 0)
(2.70189 0.514356 0)
(2.68391 0.435223 0)
(2.69195 0.363412 0)
(2.68581 0.220419 0)
(2.65528 0.0249809 0)
(2.61851 -0.0579327 0)
(1.0817 1.13859 0)
(1.22473 1.76523 0)
(1.7217 2.16113 0)
(2.01246 2.37692 0)
(2.39213 2.17686 0)
(2.497 2.02194 0)
(2.4635 1.66004 0)
(2.42237 1.53379 0)
(2.47141 1.49863 0)
(2.50509 1.45752 0)
(2.53113 1.35954 0)
(2.58557 1.19771 0)
(2.59344 1.03815 0)
(2.66147 0.952583 0)
(2.68074 0.757105 0)
(2.72677 0.611895 0)
(2.75355 0.436777 0)
(2.75443 0.216812 0)
(2.71952 0.167795 0)
(2.68111 0.150179 0)
(1.16903 1.10503 0)
(1.23358 1.63358 0)
(1.52098 2.04638 0)
(1.75738 2.3306 0)
(2.04803 2.30645 0)
(2.16907 2.17492 0)
(2.16896 1.84964 0)
(2.14873 1.79942 0)
(2.20042 1.72551 0)
(2.26116 1.65315 0)
(2.38808 1.44178 0)
(2.5254 1.35391 0)
(2.58327 1.11981 0)
(2.71828 1.03013 0)
(2.73952 0.772919 0)
(2.78266 0.636627 0)
(2.7837 0.513045 0)
(2.78153 0.39646 0)
(2.73474 0.531801 0)
(2.70141 0.474103 0)
(1.31959 1.14627 0)
(1.35483 1.5246 0)
(1.46316 2.00191 0)
(1.5363 2.30563 0)
(1.74482 2.28647 0)
(1.86115 2.1978 0)
(1.96159 1.99869 0)
(2.02405 1.84121 0)
(2.0983 1.76439 0)
(2.28231 1.65387 0)
(2.41403 1.44387 0)
(2.59695 1.38405 0)
(2.67433 1.14233 0)
(2.74362 1.07211 0)
(2.76689 0.919959 0)
(2.76035 0.904849 0)
(2.75409 0.851968 0)
(2.73874 0.804077 0)