/*--------------------------------*- C++ -*----------------------------------*\
  =========                 |
  \\      /  F ield         | OpenFOAM: The Open Source CFD Toolbox
   \\    /   O peration     | Website:  https://openfoam.org
    \\  /    A nd           | Version:  7
     \\/     M anipulation  |
\*---------------------------------------------------------------------------*/
FoamFile
{
    version     2.0;
    format      ascii;
    class       volScalarField;
    location    "1.6";
    object      rho;
}
// * * * * * * * * * * * * * * * * * * * * * * * * * * * * * * * * * * * * * //

dimensions      [1 -3 0 0 0 0 0];

internalField   nonuniform List<scalar> 
3700
(
0.216311
0.333912
0.425684
0.515212
0.525344
0.512133
0.505858
0.531023
0.548949
0.566699
0.588743
0.610103
0.628728
0.657118
0.681439
0.687929
0.693339
0.709328
0.729448
0.722957
0.118166
0.136755
0.172605
0.177723
0.164366
0.139253
0.141533
0.15888
0.159107
0.165051
0.1965
0.22287
0.232004
0.234152
0.242594
0.246919
0.247341
0.255899
0.28121
0.28744
0.0967661
0.104029
0.106744
0.0940977
0.0734433
0.0590196
0.0634286
0.0724775
0.0830371
0.0982003
0.123516
0.126139
0.130041
0.133459
0.135851
0.139642
0.146427
0.15771
0.171716
0.193339
0.0963121
0.0968992
0.0939615
0.0758029
0.0579593
0.057177
0.0628057
0.0710649
0.0814453
0.101865
0.12621
0.148016
0.170596
0.187333
0.194688
0.204331
0.205625
0.207406
0.213294
0.243328
0.0943999
0.0829448
0.0690631
0.0576311
0.0602602
0.0699194
0.0801574
0.0786077
0.0852767
0.102696
0.123081
0.148801
0.18301
0.21438
0.235958
0.259473
0.26982
0.277421
0.277611
0.291125
0.0760446
0.0702686
0.0607596
0.0638529
0.077279
0.0944171
0.112604
0.114091
0.122458
0.146216
0.144641
0.154069
0.182999
0.224767
0.262217
0.298798
0.334675
0.369012
0.395108
0.424052
0.0627362
0.0667399
0.0652554
0.0700145
0.0903907
0.112598
0.129646
0.153578
0.180149
0.212546
0.208827
0.21984
0.223283
0.243102
0.277577
0.326663
0.384756
0.449114
0.504412
0.594883
0.0574478
0.0658135
0.0676325
0.0722719
0.0940104
0.118669
0.131719
0.169903
0.22001
0.254122
0.291992
0.320814
0.340686
0.369937
0.393589
0.427212
0.468723
0.545828
0.626637
0.780655
0.0548552
0.0620837
0.0649277
0.0696141
0.0878595
0.11733
0.1272
0.168005
0.229611
0.287694
0.355545
0.403587
0.468248
0.524299
0.574121
0.626239
0.673498
0.735262
0.813676
1.02219
0.0560868
0.0580192
0.0584954
0.0674881
0.0906092
0.129125
0.143196
0.171067
0.223934
0.308912
0.405038
0.479662
0.581777
0.662956
0.751605
0.843493
0.934539
1.02055
1.13622
1.32976
0.062017
0.0534558
0.0555634
0.0875083
0.136043
0.176999
0.213626
0.263101
0.325374
0.422352
0.515352
0.613338
0.727657
0.830327
0.949135
1.09297
1.24806
1.38933
1.62212
1.56975
0.0648615
0.0511702
0.0624397
0.110955
0.165682
0.202087
0.281222
0.389473
0.520822
0.669247
0.791917
0.91997
1.04531
1.15985
1.2789
1.44323
1.65851
1.8606
2.17035
2.11276
0.0658304
0.0531414
0.0717828
0.110837
0.166786
0.194789
0.30718
0.469292
0.674201
0.902554
1.10354
1.30271
1.48887
1.66217
1.84425
2.05673
2.28833
2.52357
2.90352
2.90608
0.058121
0.04994
0.0678456
0.0833851
0.147317
0.201373
0.332204
0.562177
0.875264
1.21969
1.52364
1.80503
2.07229
2.32512
2.63154
2.94763
3.25303
3.57337
3.88092
4.16915
0.0346483
0.0344093
0.0569307
0.0806808
0.145882
0.423684
0.818909
1.19258
1.61287
2.02142
2.36374
2.67465
2.99156
3.33011
3.76373
4.15189
4.51339
4.84353
5.06531
5.2585
0.0165986
0.0311292
0.0459235
0.14766
0.440804
1.05455
1.62376
2.20366
2.81961
3.30554
3.66097
4.00863
4.37623
4.79585
5.26345
5.537
5.67106
5.72
5.59338
5.42701
0.0100399
0.0415162
0.146223
0.564975
1.29747
2.06721
2.79047
3.57464
4.39979
4.9337
5.23782
5.54471
5.82642
6.07104
6.21619
6.1123
5.80911
5.06833
3.88104
2.63421
0.0474492
0.237177
0.776741
1.69471
2.93882
4.00799
4.92121
5.87693
6.63143
6.72088
6.58558
6.58942
6.53115
6.29774
5.5877
4.25695
2.90784
1.85926
1.42511
1.39009
0.427925
1.18626
2.72933
4.44704
5.77921
6.70141
7.54105
8.21918
8.02181
7.37688
6.75491
6.00123
4.72449
3.24127
1.98999
1.44018
1.38528
1.39298
1.39628
1.39923
3.23162
5.07831
6.80913
7.90789
8.54663
8.9881
9.15947
8.68494
6.31962
4.46118
3.30601
2.19186
1.51509
1.38271
1.39014
1.39484
1.39884
1.39997
1.40003
1.40002
9.67906
9.58208
9.5073
9.52841
9.63239
9.51215
8.3133
3.05247
0.944179
1.40001
1.40001
1.40001
1.40001
1.40001
1.40001
1.40001
1.40001
1.40001
1.40001
1.40001
9.61246
9.52287
9.40115
9.30593
9.4006
7.99197
3.62424
1.41817
1.40001
1.40001
1.40001
1.40001
1.40001
1.40001
1.40001
1.40001
1.40001
1.40001
1.40001
1.40001
9.39322
9.47553
9.42607
9.19018
8.92893
4.73953
1.47824
1.39849
1.40001
1.40001
1.40001
1.40001
1.40001
1.40001
1.40001
1.40001
1.40001
1.40001
1.40001
1.40001
9.21707
9.46008
9.46039
8.97665
6.59382
1.97483
1.39133
1.40016
1.4
1.40001
1.40001
1.40001
1.40001
1.40001
1.40001
1.40001
1.40001
1.40001
1.40001
1.40001
9.03443
9.4621
9.48809
8.44097
3.83087
1.36458
1.40052
1.4
1.40001
1.40001
1.40001
1.40001
1.40001
1.40001
1.40001
1.40001
1.40001
1.40001
1.40001
1.40001
8.90646
9.39615
9.48342
7.00187
1.90886
1.40001
1.40001
1.40001
1.40001
1.40001
1.40001
1.40001
1.40001
1.40001
1.40001
1.40001
1.40001
1.40001
1.40001
1.40001
8.84478
9.25209
9.13615
4.8198
1.36979
1.40001
1.40001
1.40001
1.40001
1.40001
1.40001
1.40001
1.40001
1.40001
1.40001
1.40001
1.40001
1.40001
1.40001
1.40001
8.98759
9.226
8.4368
2.88075
1.40001
1.40001
1.40001
1.40001
1.40001
1.40001
1.40001
1.40001
1.40001
1.40001
1.40001
1.40001
1.40001
1.40001
1.40001
1.40001
9.61017
9.29697
6.85543
1.64968
1.40001
1.40001
1.40001
1.40001
1.40001
1.40001
1.40001
1.40001
1.40001
1.40001
1.40001
1.40001
1.40001
1.40001
1.40001
1.40001
10.0088
8.80965
4.91821
1.38245
1.40001
1.40001
1.40001
1.40001
1.40001
1.40001
1.40001
1.40001
1.40001
1.40001
1.40001
1.40001
1.40001
1.40001
1.40001
1.40001
10.3252
8.38254
3.19459
1.40001
1.40001
1.40001
1.40001
1.40001
1.40001
1.40001
1.40001
1.40001
1.40001
1.40001
1.40001
1.40001
1.40001
1.40001
1.40001
1.40001
10.4339
7.45793
2.22216
1.40001
1.40001
1.40001
1.40001
1.40001
1.40001
1.40001
1.40001
1.40001
1.40001
1.40001
1.40001
1.40001
1.40001
1.40001
1.40001
1.40001
10.5053
6.5188
1.60347
1.40001
1.40001
1.40001
1.40001
1.40001
1.40001
1.40001
1.40001
1.40001
1.40001
1.40001
1.40001
1.40001
1.40001
1.40001
1.40001
1.40001
10.2746
5.45748
1.40018
1.40001
1.40001
1.40001
1.40001
1.40001
1.40001
1.40001
1.40001
1.40001
1.40001
1.40001
1.40001
1.40001
1.40001
1.40001
1.40001
1.40001
9.92557
4.48275
1.40001
1.40001
1.40001
1.40001
1.40001
1.40001
1.40001
1.40001
1.40001
1.40001
1.40001
1.40001
1.40001
1.40001
1.40001
1.40001
1.40001
1.40001
9.60841
3.62819
1.40001
1.40001
1.40001
1.40001
1.40001
1.40001
1.40001
1.40001
1.40001
1.40001
1.40001
1.40001
1.40001
1.40001
1.40001
1.40001
1.40001
1.40001
9.25081
2.71376
1.40001
1.40001
1.40001
1.40001
1.40001
1.40001
1.40001
1.40001
1.40001
1.40001
1.40001
1.40001
1.40001
1.40001
1.40001
1.40001
1.40001
1.40001
8.65309
1.96439
1.40001
1.40001
1.40001
1.40001
1.40001
1.40001
1.40001
1.40001
1.40001
1.40001
1.40001
1.40001
1.40001
1.40001
1.40001
1.40001
1.40001
1.40001
8.00725
1.41029
1.40001
1.40001
1.40001
1.40001
1.40001
1.40001
1.40001
1.40001
1.40001
1.40001
1.40001
1.40001
1.40001
1.40001
1.40001
1.40001
1.40001
1.40001
6.36008
1.40008
1.40001
1.40001
1.40001
1.40001
1.40001
1.40001
1.40001
1.40001
1.40001
1.40001
1.40001
1.40001
1.40001
1.40001
1.40001
1.40001
1.40001
1.40001
6.36008
1.40008
1.40001
1.40001
1.40001
1.40001
1.40001
1.40001
1.40001
1.40001
1.40001
1.40001
1.40001
1.40001
1.40001
1.40001
1.40001
1.40001
1.40001
1.40001
8.00725
1.41029
1.40001
1.40001
1.40001
1.40001
1.40001
1.40001
1.40001
1.40001
1.40001
1.40001
1.40001
1.40001
1.40001
1.40001
1.40001
1.40001
1.40001
1.40001
8.65309
1.96439
1.40001
1.40001
1.40001
1.40001
1.40001
1.40001
1.40001
1.40001
1.40001
1.40001
1.40001
1.40001
1.40001
1.40001
1.40001
1.40001
1.40001
1.40001
9.25081
2.71376
1.40001
1.40001
1.40001
1.40001
1.40001
1.40001
1.40001
1.40001
1.40001
1.40001
1.40001
1.40001
1.40001
1.40001
1.40001
1.40001
1.40001
1.40001
9.60841
3.62819
1.40001
1.40001
1.40001
1.40001
1.40001
1.40001
1.40001
1.40001
1.40001
1.40001
1.40001
1.40001
1.40001
1.40001
1.40001
1.40001
1.40001
1.40001
9.92558
4.48274
1.40001
1.40001
1.40001
1.40001
1.40001
1.40001
1.40001
1.40001
1.40001
1.40001
1.40001
1.40001
1.40001
1.40001
1.40001
1.40001
1.40001
1.40001
10.2746
5.45749
1.40018
1.40001
1.40001
1.40001
1.40001
1.40001
1.40001
1.40001
1.40001
1.40001
1.40001
1.40001
1.40001
1.40001
1.40001
1.40001
1.40001
1.40001
10.5053
6.51881
1.60346
1.40001
1.40001
1.40001
1.40001
1.40001
1.40001
1.40001
1.40001
1.40001
1.40001
1.40001
1.40001
1.40001
1.40001
1.40001
1.40001
1.40001
10.4339
7.45794
2.22217
1.40001
1.40001
1.40001
1.40001
1.40001
1.40001
1.40001
1.40001
1.40001
1.40001
1.40001
1.40001
1.40001
1.40001
1.40001
1.40001
1.40001
10.3252
8.38253
3.19461
1.40001
1.40001
1.40001
1.40001
1.40001
1.40001
1.40001
1.40001
1.40001
1.40001
1.40001
1.40001
1.40001
1.40001
1.40001
1.40001
1.40001
10.0088
8.80964
4.91821
1.38245
1.40001
1.40001
1.40001
1.40001
1.40001
1.40001
1.40001
1.40001
1.40001
1.40001
1.40001
1.40001
1.40001
1.40001
1.40001
1.40001
9.61017
9.29696
6.85541
1.64967
1.40001
1.40001
1.40001
1.40001
1.40001
1.40001
1.40001
1.40001
1.40001
1.40001
1.40001
1.40001
1.40001
1.40001
1.40001
1.40001
8.98759
9.22601
8.43683
2.88075
1.40001
1.40001
1.40001
1.40001
1.40001
1.40001
1.40001
1.40001
1.40001
1.40001
1.40001
1.40001
1.40001
1.40001
1.40001
1.40001
8.84479
9.25208
9.13613
4.81979
1.36979
1.40001
1.40001
1.40001
1.40001
1.40001
1.40001
1.40001
1.40001
1.40001
1.40001
1.40001
1.40001
1.40001
1.40001
1.40001
8.90646
9.39613
9.48342
7.00198
1.90884
1.40001
1.40001
1.40001
1.40001
1.40001
1.40001
1.40001
1.40001
1.40001
1.40001
1.40001
1.40001
1.40001
1.40001
1.40001
9.03445
9.46213
9.4881
8.44087
3.83091
1.36457
1.40052
1.4
1.40001
1.40001
1.40001
1.40001
1.40001
1.40001
1.40001
1.40001
1.40001
1.40001
1.40001
1.40001
9.21708
9.46011
9.46042
8.97663
6.59371
1.97479
1.39133
1.40016
1.4
1.40001
1.40001
1.40001
1.40001
1.40001
1.40001
1.40001
1.40001
1.40001
1.40001
1.40001
9.39321
9.47547
9.42618
9.19035
8.92914
4.73959
1.47823
1.39849
1.40001
1.40001
1.40001
1.40001
1.40001
1.40001
1.40001
1.40001
1.40001
1.40001
1.40001
1.40001
9.61245
9.52284
9.40113
9.30595
9.40044
7.99173
3.62432
1.41819
1.40001
1.40001
1.40001
1.40001
1.40001
1.40001
1.40001
1.40001
1.40001
1.40001
1.40001
1.40001
9.67905
9.58206
9.50727
9.52836
9.63227
9.51211
8.31331
3.05231
0.944217
1.40001
1.40001
1.40001
1.40001
1.40001
1.40001
1.40001
1.40001
1.40001
1.40001
1.40001
3.23143
5.07785
6.80832
7.90727
8.54685
8.9883
9.1596
8.68502
6.3196
4.46123
3.30619
2.19205
1.51516
1.38271
1.39015
1.39485
1.39884
1.39997
1.40003
1.40002
0.42861
1.18806
2.73148
4.44771
5.77751
6.70054
7.54136
8.2193
8.02177
7.37663
6.75467
6.00102
4.72439
3.24124
1.98997
1.44018
1.38529
1.39298
1.39628
1.39923
0.0464024
0.235675
0.776784
1.69516
2.94182
4.00933
4.92086
5.87599
6.632
6.72083
6.58542
6.58923
6.53094
6.29754
5.58748
4.25676
2.90768
1.85915
1.42508
1.39009
0.0101328
0.0408734
0.145479
0.564953
1.29656
2.06774
2.79238
3.57665
4.40143
4.93456
5.23833
5.54509
5.82666
6.07106
6.21619
6.11229
5.80909
5.06823
3.8809
2.6341
0.0168094
0.0309821
0.0459845
0.147512
0.436149
1.05145
1.62239
2.20313
2.81973
3.30609
3.66175
4.00936
4.37673
4.79603
5.26344
5.53698
5.67113
5.72008
5.59344
5.42706
0.035046
0.0348783
0.0575647
0.0803092
0.147155
0.423405
0.816536
1.18972
1.61067
2.02014
2.363
2.67416
2.99116
3.32978
3.76343
4.15164
4.51327
4.8435
5.06539
5.25859
0.0580033
0.0502288
0.0676747
0.0842314
0.151596
0.202495
0.332957
0.563119
0.875309
1.2191
1.5229
1.80445
2.07184
2.32475
2.63121
2.94733
3.25279
3.57325
3.88103
4.16949
0.0649433
0.0523976
0.0709407
0.111966
0.16933
0.196554
0.308921
0.470753
0.675326
0.903189
1.1039
1.3029
1.48897
1.66216
1.8442
2.05669
2.28832
2.52364
2.90368
2.90608
0.0640101
0.0506045
0.0613796
0.110535
0.166204
0.203347
0.282118
0.390238
0.521399
0.669755
0.792409
0.920404
1.04563
1.16009
1.27908
1.44337
1.65861
1.86068
2.17039
2.11282
0.0610174
0.052906
0.0549166
0.0863405
0.135283
0.177399
0.213473
0.263029
0.325278
0.42235
0.515364
0.613395
0.727785
0.830492
0.949274
1.09304
1.24805
1.38928
1.622
1.56968
0.0551763
0.0573264
0.0580512
0.0669765
0.0904099
0.130391
0.14308
0.170934
0.223989
0.308953
0.40505
0.479561
0.581696
0.662879
0.751511
0.843378
0.934386
1.02036
1.13605
1.3296
0.0542162
0.0613195
0.0643039
0.069265
0.0881133
0.117851
0.127321
0.167963
0.22983
0.287834
0.355551
0.403515
0.468115
0.52415
0.573916
0.625963
0.673159
0.734829
0.813339
1.02184
0.0568952
0.0650548
0.0668249
0.0715516
0.0937205
0.118475
0.131682
0.16998
0.220245
0.254315
0.291981
0.320739
0.340473
0.369613
0.39315
0.42672
0.468296
0.545481
0.626427
0.780598
0.0626608
0.0660971
0.0642435
0.0690569
0.089569
0.112001
0.129463
0.15369
0.180217
0.212595
0.208693
0.219664
0.223028
0.242817
0.277352
0.326512
0.384698
0.44911
0.504422
0.595046
0.0763878
0.0701643
0.0599757
0.0630163
0.0765642
0.0940594
0.112424
0.114122
0.122428
0.146029
0.144686
0.154119
0.182985
0.224796
0.26232
0.29894
0.334823
0.369202
0.395223
0.424178
0.0951129
0.0831877
0.0686618
0.0570687
0.0596912
0.0696591
0.0802541
0.0788384
0.0855332
0.102987
0.123328
0.148923
0.183213
0.214636
0.236218
0.259684
0.27001
0.277587
0.277665
0.291117
0.0972856
0.0976573
0.0944149
0.0749543
0.0574621
0.0572203
0.063014
0.0713626
0.081771
0.102223
0.126504
0.148351
0.170959
0.18766
0.194937
0.204515
0.2058
0.207522
0.213302
0.243208
0.0978511
0.105065
0.10681
0.093463
0.0732798
0.0588117
0.0633765
0.0728114
0.0834525
0.0986208
0.123869
0.126414
0.130255
0.133625
0.135874
0.139566
0.146469
0.157724
0.171594
0.193221
0.11931
0.146394
0.166681
0.1764
0.175693
0.156812
0.133803
0.13266
0.147699
0.17772
0.198496
0.210004
0.230256
0.249552
0.241933
0.238518
0.246319
0.256159
0.273542
0.286944
0.220006
0.357513
0.429695
0.513228
0.53535
0.519899
0.505648
0.507651
0.537303
0.575802
0.589832
0.606756
0.631489
0.666274
0.675633
0.679017
0.697926
0.708212
0.72753
0.725837
0.777978
0.883925
1.00482
1.06015
1.02283
1.02141
1.06918
1.1026
1.11064
1.10478
1.03988
0.999625
1.01164
1.06405
1.17958
1.26975
1.26348
1.23521
1.21815
1.23893
0.386843
0.579027
0.749894
0.918789
0.954842
0.981749
1.05972
1.09826
1.09647
1.08591
1.03331
0.998673
1.01724
1.07756
1.17189
1.25235
1.24579
1.22096
1.20881
1.23703
0.196495
0.224567
0.316407
0.460148
0.680152
0.82379
0.953136
1.04387
1.07249
1.06535
1.03455
1.01403
1.03721
1.10744
1.20855
1.27036
1.25258
1.22613
1.21333
1.23381
0.273154
0.29879
0.337431
0.332425
0.342437
0.404765
0.539157
0.786074
0.986757
1.02191
1.02812
1.02383
1.05478
1.13682
1.23761
1.27999
1.25036
1.2194
1.21007
1.23631
0.332416
0.364132
0.39184
0.410262
0.393741
0.375693
0.373338
0.43129
0.686475
0.926966
1.00154
1.03187
1.07189
1.15819
1.26301
1.28461
1.2471
1.21066
1.20342
1.23447
0.422052
0.45167
0.488878
0.483289
0.444454
0.432349
0.424933
0.397916
0.421177
0.649468
0.914176
0.993305
1.06039
1.16581
1.26308
1.27562
1.24173
1.2055
1.19668
1.22898
0.549726
0.558412
0.5621
0.558235
0.525076
0.503238
0.486023
0.452747
0.40795
0.435548
0.621439
0.872634
1.0186
1.11926
1.23925
1.2601
1.2355
1.19946
1.19056
1.23143
0.735315
0.679959
0.649176
0.642246
0.62067
0.575479
0.542646
0.511128
0.451506
0.425563
0.444643
0.591017
0.797676
0.979245
1.13702
1.23417
1.22688
1.19501
1.18389
1.22911
0.953182
0.845788
0.73458
0.704586
0.699506
0.647884
0.599213
0.572649
0.528748
0.466504
0.44318
0.452613
0.528376
0.709105
0.923774
1.12374
1.19478
1.18151
1.17692
1.2321
1.21617
1.05602
0.872759
0.796185
0.796592
0.744915
0.669051
0.6396
0.607245
0.530392
0.461376
0.460107
0.47171
0.504914
0.610152
0.850747
1.07438
1.14967
1.16539
1.23767
1.74873
1.39539
1.10549
0.885553
0.857895
0.828321
0.772168
0.744741
0.712858
0.618953
0.54373
0.526407
0.522503
0.527675
0.580984
0.711343
0.917568
1.08405
1.15596
1.25206
2.80718
2.10807
1.66644
1.31816
1.13987
0.99034
0.84685
0.813849
0.794574
0.731813
0.644071
0.598233
0.596998
0.608453
0.640503
0.722447
0.870649
1.03243
1.14506
1.27037
3.48743
3.00737
2.37978
1.8781
1.52857
1.30202
1.07207
0.925108
0.847344
0.776979
0.696457
0.686483
0.699373
0.726065
0.772869
0.846839
0.942367
1.05074
1.15614
1.29199
3.30104
3.2671
3.12325
2.68462
2.11367
1.75834
1.4966
1.23567
1.06654
0.938956
0.81156
0.782776
0.781172
0.787846
0.823684
0.908446
1.02264
1.13237
1.22498
1.3318
2.34877
3.00895
3.07907
3.01902
2.80972
2.42568
2.00973
1.60148
1.37369
1.24684
1.0794
0.925867
0.893133
0.894787
0.917133
0.98419
1.09522
1.21578
1.30772
1.3751
1.54454
2.03272
2.59094
2.90286
2.87271
2.77294
2.57209
2.25683
1.89386
1.618
1.41587
1.21584
1.15734
1.16673
1.197
1.25368
1.32625
1.38488
1.40863
1.40896
1.40609
1.46516
1.69845
2.1539
2.55819
2.68727
2.63136
2.51652
2.3554
2.12454
1.90265
1.68865
1.52385
1.46732
1.47544
1.4986
1.5112
1.49481
1.44407
1.40665
1.40014
1.40154
1.4164
1.50792
1.7569
2.10867
2.37859
2.4227
2.35547
2.2488
2.12165
1.98584
1.85399
1.75062
1.68234
1.62371
1.5579
1.48717
1.42947
1.40297
1.40001
1.40002
1.40026
1.40305
1.42591
1.51034
1.7061
1.93771
2.09758
2.12019
2.08142
1.99761
1.89219
1.78726
1.69425
1.61043
1.52584
1.44963
1.40931
1.40046
1.40001
1.40001
1.40001
1.40004
1.40043
1.40346
1.42125
1.4739
1.58412
1.69222
1.77312
1.7778
1.74625
1.68241
1.60126
1.51777
1.4488
1.41076
1.4009
1.40002
1.40001
1.40001
1.40001
1.40001
1.40001
1.40004
1.40032
1.40199
1.4094
1.4273
1.4554
1.47751
1.48037
1.47106
1.44829
1.42236
1.40585
1.40065
1.40003
1.40001
1.40001
1.40001
1.40001
1.40001
1.40001
1.40001
1.40001
1.40002
1.40011
1.40048
1.40147
1.40295
1.40367
1.40346
1.4024
1.40097
1.40019
1.40002
1.40001
1.40001
1.40001
1.40001
1.40001
1.40001
1.40001
1.40001
1.40001
1.40001
1.40001
1.40001
1.40002
1.40003
1.40004
1.40004
1.40003
1.40002
1.40001
1.40001
1.40001
1.40001
1.40001
1.40001
1.40001
1.40001
1.40001
1.40001
1.40001
1.40001
1.40001
1.40001
1.40001
1.40001
1.40001
1.40001
1.40001
1.40001
1.40001
1.40001
1.40001
1.40001
1.40001
1.40001
1.40001
1.40001
1.40001
1.40001
1.40001
1.40001
1.40001
1.40001
1.40001
1.40001
1.40001
1.40001
1.40001
1.40001
1.40001
1.40001
1.40001
1.40001
2.2598
3.43566
3.59436
2.9034
1.82936
1.45178
1.40267
1.40007
1.40001
1.40001
1.40001
1.40001
1.40001
1.40001
1.40001
3.26789
3.91913
3.51862
2.14998
1.46675
1.4011
1.40001
1.4
1.40001
1.40001
1.40001
1.40001
1.40001
1.40001
1.40001
4.07709
3.99584
2.76234
1.61203
1.40734
1.40008
1.40001
1.40001
1.40001
1.40001
1.40001
1.40001
1.40001
1.40001
1.40001
4.52605
3.56517
1.90619
1.42636
1.40025
1.4
1.40001
1.40001
1.40001
1.40001
1.40001
1.40001
1.40001
1.40001
1.40001
4.62664
2.35207
1.46555
1.40071
1.40001
1.40001
1.40001
1.40001
1.40001
1.40001
1.40001
1.40001
1.40001
1.40001
1.40001
2.88554
1.50311
1.40072
1.4
1.4
1.40001
1.40001
1.40001
1.40001
1.40001
1.40001
1.40001
1.40001
1.40001
1.40001
1.54176
1.40078
1.4
1.4
1.40001
1.40001
1.40001
1.40001
1.40001
1.40001
1.40001
1.40001
1.40001
1.40001
1.40001
1.39741
1.39982
1.4
1.40001
1.40001
1.40001
1.40001
1.40001
1.40001
1.40001
1.40001
1.40001
1.40001
1.40001
1.40001
1.39996
1.40001
1.40001
1.40001
1.40001
1.40001
1.40001
1.40001
1.40001
1.40001
1.40001
1.40001
1.40001
1.40001
1.40001
1.40001
1.40001
1.40001
1.40001
1.40001
1.40001
1.40001
1.40001
1.40001
1.40001
1.40001
1.40001
1.40001
1.40001
1.40001
1.40001
1.40001
1.40001
1.40001
1.40001
1.40001
1.40001
1.40001
1.40001
1.40001
1.40001
1.40001
1.40001
1.40001
1.40001
1.40001
1.40001
1.40001
1.40001
1.40001
1.40001
1.40001
1.40001
1.40001
1.40001
1.40001
1.40001
1.40001
1.40001
1.40001
1.40001
1.40001
1.40001
1.40001
1.40001
1.40001
1.40001
1.40001
1.40001
1.40001
1.40001
1.40001
1.40001
1.40001
1.40001
1.40001
1.40001
1.40001
1.40001
1.40001
1.40001
1.40001
1.40001
1.40001
1.40001
1.40001
1.40001
1.40001
1.40001
1.40001
1.40001
1.40001
1.40001
1.40001
1.40001
1.40001
1.40001
1.40001
1.40001
1.40001
1.40001
1.40001
1.40001
1.40001
1.40001
1.40001
1.40001
1.40001
1.40001
1.40001
1.40001
1.40001
1.40001
1.40001
1.40001
1.40001
1.40001
1.40001
1.40001
1.40001
1.40001
1.40001
1.40001
1.40001
1.40001
1.40001
1.40001
1.40001
1.40001
1.40001
1.40001
1.40001
1.40001
1.40001
1.40001
1.40001
1.40001
1.40001
1.40001
1.40001
1.40001
1.40001
1.40001
1.40001
1.40001
1.40001
1.40001
1.40001
1.40001
1.40001
1.40001
1.40001
1.40001
1.40001
1.40001
1.40001
1.40001
1.40001
1.40001
1.40001
1.40001
1.40001
1.40001
1.40001
1.40001
1.40001
1.40001
1.40001
1.40001
1.40001
1.40001
1.40001
1.40001
1.40001
1.40001
1.40001
1.40001
1.40001
1.40001
1.40001
1.40001
1.40001
1.40001
1.40001
1.40001
1.40001
1.40001
1.40001
1.40001
1.40001
1.40001
1.40001
1.40001
1.40001
1.40001
1.40001
1.40001
1.40001
1.40001
1.40001
1.40001
1.40001
1.40001
1.40001
1.40001
1.40001
1.40001
1.40001
1.40001
1.40001
1.40001
1.40001
1.40001
1.40001
1.40001
1.40001
1.40001
1.40001
1.40001
1.40001
1.40001
1.40001
1.40001
1.40001
1.40001
1.40001
1.40001
1.40001
1.40001
1.40001
1.40001
1.40001
1.40001
1.40001
1.40001
1.40001
1.40001
1.40001
1.40001
1.40001
1.40001
1.40001
1.40001
1.40001
1.40001
1.40001
1.40001
1.40001
1.40001
1.40001
1.40001
1.40001
1.40001
1.40001
1.40001
1.40001
1.40001
1.40001
1.40001
1.40001
1.40001
1.40001
1.40001
1.40001
1.40001
1.40001
1.40001
1.40001
1.40001
1.40001
1.40001
1.40001
1.40001
1.40001
1.40001
1.40001
1.40001
1.40001
1.40001
1.40001
1.40001
1.40001
1.40001
1.40001
1.40001
1.40001
1.40001
1.40001
1.40001
1.40001
1.40001
1.40001
1.40001
1.40001
1.40001
1.40001
1.40001
1.40001
1.40001
1.40001
1.40001
1.40001
1.40001
1.40001
1.40001
1.40001
1.40001
1.40001
1.40001
1.40001
1.40001
1.40001
1.40001
1.40001
1.40001
1.40001
1.40001
1.40001
1.40001
1.40001
1.40001
1.40001
1.40001
1.40001
1.40001
1.40001
1.40001
1.40001
1.40001
1.40001
1.40001
1.40001
1.40001
1.40001
1.40001
1.40001
1.40001
1.40001
1.40001
1.40001
1.40001
1.40001
1.40001
1.40001
1.40001
1.40001
1.40001
1.40001
1.40001
1.40001
1.40001
1.40001
1.40001
1.40001
1.40001
1.40001
1.40001
1.40001
1.40001
1.40001
1.40001
1.40001
1.40001
1.40001
1.40001
1.40001
1.40001
1.40001
1.40001
1.40001
1.40001
1.40001
1.40001
1.40001
1.40001
1.40001
1.40001
1.40001
1.40001
1.40001
1.40001
1.40001
1.40001
1.40001
1.40001
1.40001
1.40001
1.40001
1.40001
1.40001
1.40001
1.40001
1.40001
1.40001
1.40001
1.40001
1.40001
1.40001
1.40001
1.40001
1.40001
1.40001
1.40001
1.40001
1.40001
1.40001
1.40001
1.40001
1.40001
1.40001
1.40001
1.40001
1.40001
1.40001
1.40001
1.40001
1.40001
1.40001
1.40001
1.40001
1.40001
1.40001
1.40001
1.40001
1.40001
1.40001
1.40001
1.40001
1.40001
1.40001
1.40001
1.40001
1.40001
1.40001
1.40001
1.40001
1.40001
1.40001
1.40001
1.40001
1.40001
1.40001
1.40001
1.40001
1.40001
1.40001
1.40001
1.40001
1.40001
1.40001
1.40001
1.40001
1.40001
1.40001
1.40001
1.40001
1.40001
1.40001
1.40001
1.40001
1.40001
1.40001
1.40001
1.40001
1.40001
1.40001
1.40001
1.40001
1.40001
1.40001
1.40001
1.40001
1.40001
1.40001
1.40001
1.40001
1.40001
1.40001
1.40001
1.40001
1.40001
1.40001
1.40001
1.40001
1.40001
1.40001
1.40001
1.40001
1.40001
1.40001
1.40001
1.40001
1.40001
1.40001
1.40001
1.40001
1.40001
1.40001
1.40001
1.40001
1.40001
1.40001
1.40001
1.40001
1.40001
1.40001
1.40001
1.40001
1.40001
1.40001
1.40001
1.40001
1.40001
1.40001
1.40001
1.40001
1.40001
1.40001
1.40001
1.40001
1.40001
1.40001
1.40001
1.40001
1.40001
1.40001
1.40001
1.40001
1.40001
1.40001
1.40001
1.40001
1.40001
1.40001
1.40001
1.40001
1.40001
1.40001
1.40001
1.40001
1.40001
1.40001
1.40001
1.40001
1.40001
1.40001
1.40001
1.40001
1.40001
1.40001
1.40001
1.40001
1.40001
1.40001
1.40001
1.40001
1.40001
1.40001
1.40001
1.40001
1.40001
1.40001
1.40001
1.40001
1.40001
1.40001
1.40001
1.40001
1.40001
1.40001
1.40001
1.40001
1.40001
1.40001
1.40001
1.40001
1.40001
1.40001
1.40001
1.40001
1.40001
1.40001
1.40001
1.40001
1.40001
1.40001
1.40001
1.40001
1.40001
1.40001
1.40001
1.40001
1.40001
1.40001
1.40001
1.40001
1.40001
1.40001
1.40001
1.40001
1.40001
1.40001
1.40001
1.40001
1.40001
1.40001
1.40001
1.40001
1.40001
1.40001
1.40001
1.40001
1.40001
1.40001
1.40001
1.40001
1.40001
1.40001
1.40001
1.40001
1.40001
1.40001
1.40001
1.40001
1.40001
1.40001
1.40001
1.40001
1.40001
1.40001
1.40001
1.40001
1.40001
1.40001
1.40001
1.40001
1.40001
1.40001
1.40001
1.40001
1.40001
1.40001
1.40001
1.40001
1.40001
1.40001
1.40001
1.40001
1.40001
1.40001
1.40001
1.40001
1.40001
1.40001
1.40001
1.40001
1.40001
1.40001
1.40001
1.40001
1.40001
1.40001
1.40001
1.40001
1.40001
1.40001
1.40001
1.40001
1.40001
1.40001
1.40001
1.40001
1.40001
1.40001
1.40001
1.40001
1.40001
1.40001
1.40001
1.40001
1.40001
1.40001
1.40001
1.40001
1.40001
1.40001
1.40001
1.40001
1.40001
1.40001
1.40001
1.40001
1.40001
1.40001
1.40001
1.40001
1.40001
1.40001
1.40001
1.40001
1.40001
1.40001
1.40001
1.40001
1.40001
1.40001
1.40001
1.40001
1.40001
1.40001
1.40001
1.40001
1.40001
1.40001
1.40001
1.40001
1.40001
1.40001
1.40001
1.40001
1.40001
1.40001
1.40001
1.40001
1.40001
1.40001
1.40001
1.40001
1.40001
1.40001
1.40001
1.40001
1.40001
1.40001
1.40001
1.40001
1.40001
1.40001
1.40001
1.40001
1.40001
1.40001
1.40001
1.40001
1.40001
1.40001
1.40001
1.40001
1.40001
1.40001
1.40001
1.40001
1.40001
1.40001
1.40001
1.40001
1.40001
1.40001
1.40001
1.40001
1.40001
1.40001
1.40001
1.40001
1.40001
1.40001
1.40001
1.40001
1.40001
1.40001
1.40001
1.40001
1.40001
1.40001
1.40001
1.40001
1.40001
1.40001
1.40001
1.40001
1.40001
1.40001
1.40001
1.40001
1.40001
1.40001
1.40001
1.40001
1.40001
1.40001
1.40001
1.40001
1.40001
1.40001
1.40001
1.40001
1.40001
1.40001
1.40001
1.40001
1.40001
1.40001
1.40001
1.40001
1.40001
1.40001
1.40001
1.40001
1.40001
1.40001
1.40001
1.40001
1.40001
1.40001
1.40001
1.40001
1.40001
1.40001
1.40001
1.40001
1.40001
1.40001
1.40001
1.40001
1.40001
1.40001
1.40001
1.40001
1.40001
1.40001
1.40001
1.40001
1.40001
1.40001
1.40001
1.40001
1.40001
1.40001
1.40001
1.40001
1.40001
1.40001
1.40001
1.40001
1.40001
1.39996
1.40001
1.40001
1.40001
1.40001
1.40001
1.40001
1.40001
1.40001
1.40001
1.40001
1.40001
1.40001
1.40001
1.40001
1.39741
1.39982
1.4
1.40001
1.40001
1.40001
1.40001
1.40001
1.40001
1.40001
1.40001
1.40001
1.40001
1.40001
1.40001
1.54174
1.40078
1.4
1.4
1.40001
1.40001
1.40001
1.40001
1.40001
1.40001
1.40001
1.40001
1.40001
1.40001
1.40001
2.88552
1.5031
1.40072
1.4
1.4
1.40001
1.40001
1.40001
1.40001
1.40001
1.40001
1.40001
1.40001
1.40001
1.40001
4.62669
2.35209
1.46555
1.40071
1.40001
1.40001
1.40001
1.40001
1.40001
1.40001
1.40001
1.40001
1.40001
1.40001
1.40001
4.52611
3.56511
1.90615
1.42637
1.40025
1.4
1.40001
1.40001
1.40001
1.40001
1.40001
1.40001
1.40001
1.40001
1.40001
4.07726
3.99584
2.7623
1.61197
1.40734
1.40008
1.40001
1.40001
1.40001
1.40001
1.40001
1.40001
1.40001
1.40001
1.40001
3.26782
3.91918
3.5186
2.15001
1.46675
1.4011
1.40001
1.4
1.40001
1.40001
1.40001
1.40001
1.40001
1.40001
1.40001
2.25999
3.43562
3.59429
2.90343
1.8294
1.45179
1.40267
1.40007
1.40001
1.40001
1.40001
1.40001
1.40001
1.40001
1.40001
1.74763
2.80859
3.48783
3.30107
2.34863
1.54452
1.40609
1.40014
1.40001
1.40001
1.40001
1.40001
1.40001
1.40001
1.40001
1.39501
2.10776
3.00771
3.26701
3.00873
2.03252
1.46513
1.40154
1.40002
1.40001
1.40001
1.40001
1.40001
1.40001
1.40001
1.10631
1.6637
2.37788
3.12344
3.07893
2.59071
1.69833
1.41639
1.40026
1.40001
1.40001
1.40001
1.40001
1.40001
1.40001
0.886775
1.31969
1.87897
2.6843
3.01878
2.90266
2.15381
1.50791
1.40305
1.40004
1.40001
1.40001
1.40001
1.40001
1.40001
0.858345
1.14277
1.5301
2.11439
2.80977
2.87264
2.55817
1.75695
1.42592
1.40043
1.40001
1.40001
1.40001
1.40001
1.40001
0.826721
0.990291
1.30241
1.75832
2.42696
2.77307
2.68736
2.10876
1.51037
1.40346
1.40004
1.40001
1.40001
1.40001
1.40001
0.769518
0.845548
1.07434
1.49811
2.00944
2.57205
2.63142
2.37866
1.70613
1.42125
1.40032
1.40001
1.40001
1.40001
1.40001
0.742632
0.811635
0.926954
1.2377
1.59934
2.25647
2.51652
2.42272
1.93771
1.4739
1.40199
1.40002
1.40001
1.40001
1.40001
0.712545
0.791922
0.845283
1.06756
1.37468
1.8942
2.35538
2.35546
2.09756
1.5841
1.4094
1.40011
1.40001
1.40001
1.40001
0.625316
0.730385
0.772053
0.939022
1.24809
1.61763
2.12452
2.24878
2.12016
1.6922
1.4273
1.40048
1.40001
1.40001
1.40001
0.548065
0.646159
0.693015
0.809642
1.08091
1.41478
1.90245
2.12162
2.08139
1.77311
1.4554
1.40147
1.40002
1.40001
1.40001
0.526902
0.600921
0.685355
0.78003
0.927305
1.21555
1.68869
1.98583
1.9976
1.77779
1.47751
1.40295
1.40003
1.40001
1.40001
0.523194
0.60105
0.699528
0.777951
0.893407
1.15759
1.52412
1.85404
1.89219
1.74625
1.48037
1.40367
1.40004
1.40001
1.40001
0.527715
0.61521
0.727798
0.784292
0.894973
1.16714
1.46719
1.75062
1.78725
1.68241
1.47106
1.40346
1.40004
1.40001
1.40001
0.580724
0.650375
0.776564
0.820491
0.916892
1.19749
1.47515
1.68225
1.6942
1.60125
1.44829
1.4024
1.40003
1.40001
1.40001
0.712152
0.73116
0.853381
0.907447
0.982911
1.25339
1.49801
1.62357
1.61035
1.51776
1.42236
1.40097
1.40002
1.40001
1.40001
0.917068
0.874093
0.949779
1.02379
1.09286
1.32482
1.51055
1.55774
1.52577
1.44881
1.40585
1.40019
1.40001
1.40001
1.40001
1.08318
1.03261
1.05502
1.13319
1.21341
1.38351
1.49439
1.48699
1.44961
1.41077
1.40066
1.40002
1.40001
1.40001
1.40001
1.15571
1.14508
1.15704
1.22455
1.30612
1.4079
1.44392
1.42941
1.40932
1.40091
1.40003
1.40001
1.40001
1.40001
1.40001
1.25213
1.27039
1.29162
1.33118
1.37462
1.40874
1.4066
1.40297
1.40046
1.40002
1.40001
1.40001
1.40001
1.40001
1.40001
1.21537
1.05616
0.875589
0.79704
0.796147
0.743927
0.666587
0.638903
0.610224
0.533517
0.464041
0.460516
0.46994
0.501551
0.609028
0.850018
1.0701
1.14802
1.16499
1.23767
0.952491
0.845415
0.738634
0.705067
0.699115
0.647012
0.597662
0.573179
0.532096
0.465628
0.444673
0.453731
0.526306
0.701619
0.919402
1.11265
1.18336
1.17695
1.17601
1.232
0.73408
0.679769
0.652427
0.642813
0.619874
0.575151
0.541784
0.512055
0.455092
0.426129
0.4436
0.592481
0.795048
0.970068
1.12194
1.22798
1.22535
1.19432
1.18356
1.22859
0.549339
0.559072
0.563108
0.558144
0.524073
0.503358
0.48552
0.452185
0.407209
0.434717
0.616543
0.86446
1.00877
1.10848
1.22944
1.26225
1.23973
1.20202
1.19136
1.2308