/*--------------------------------*- C++ -*----------------------------------*\
  =========                 |
  \\      /  F ield         | OpenFOAM: The Open Source CFD Toolbox
   \\    /   O peration     | Website:  https://openfoam.org
    \\  /    A nd           | Version:  7
     \\/     M anipulation  |
\*---------------------------------------------------------------------------*/
FoamFile
{
    version     2.0;
    format      ascii;
    class       volScalarField;
    location    "1.6";
    object      T;
}
// * * * * * * * * * * * * * * * * * * * * * * * * * * * * * * * * * * * * * //

dimensions      [0 0 0 1 0 0 0];

internalField   nonuniform List<scalar> 
3700
(
100.608
100.744
100.889
101.003
101.032
101.032
101.039
101.058
101.047
101.04
101.081
101.147
101.153
101.152
101.151
101.144
101.128
101.115
101.102
101.088
100.234
100.287
100.444
100.479
100.466
100.484
100.529
100.553
100.467
100.387
100.448
100.554
100.556
100.52
100.531
100.528
100.473
100.442
100.455
100.429
100.128
100.143
100.128
100.053
99.9393
99.8566
99.8781
99.9098
99.942
99.9913
100.037
100.032
100.023
100.017
100.008
100.008
100.014
100.024
100.034
100.047
100.086
100.077
100.051
99.9615
99.8434
99.8353
99.8605
99.8866
99.9157
99.9796
100.029
100.052
100.073
100.084
100.079
100.074
100.062
100.048
100.047
100.077
100.037
99.9948
99.9267
99.8474
99.8382
99.8565
99.8853
99.8827
99.9089
99.9637
100.004
100.042
100.083
100.107
100.117
100.125
100.125
100.121
100.103
100.102
99.9617
99.9474
99.8907
99.8899
99.939
99.9815
100.01
99.9794
99.977
100.008
100.007
100.033
100.072
100.105
100.127
100.146
100.165
100.18
100.186
100.199
99.9032
99.9373
99.9401
99.9854
100.064
100.093
100.093
100.101
100.112
100.127
100.103
100.101
100.093
100.103
100.12
100.146
100.182
100.217
100.236
100.271
99.8923
99.9536
99.9855
100.035
100.117
100.136
100.118
100.151
100.185
100.194
100.206
100.202
100.201
100.203
100.202
100.203
100.213
100.246
100.277
100.327
99.9057
99.9633
99.9891
100.027
100.095
100.132
100.112
100.153
100.198
100.228
100.257
100.263
100.283
100.29
100.297
100.303
100.307
100.317
100.332
100.385
99.9537
99.9567
99.9372
99.9897
100.067
100.114
100.111
100.142
100.179
100.233
100.275
100.296
100.328
100.341
100.357
100.37
100.381
100.394
100.416
100.451
99.9993
99.9009
99.8902
99.9902
100.092
100.142
100.168
100.202
100.236
100.292
100.312
100.337
100.363
100.38
100.4
100.424
100.447
100.465
100.504
100.494
100.002
99.8538
99.8885
100.042
100.126
100.175
100.234
100.292
100.347
100.394
100.412
100.432
100.444
100.453
100.464
100.483
100.511
100.535
100.577
100.571
99.9983
99.8428
99.9063
100.055
100.127
100.166
100.264
100.342
100.412
100.461
100.484
100.505
100.52
100.535
100.553
100.573
100.595
100.615
100.649
100.653
99.9805
99.8225
99.8754
99.9809
100.11
100.198
100.303
100.384
100.463
100.517
100.545
100.567
100.587
100.608
100.637
100.665
100.69
100.71
100.724
100.734
99.9144
99.7335
99.8294
99.9647
100.159
100.406
100.514
100.566
100.607
100.628
100.639
100.651
100.667
100.692
100.725
100.752
100.772
100.783
100.779
100.775
99.6433
99.7087
99.811
100.142
100.433
100.594
100.641
100.682
100.715
100.729
100.737
100.75
100.769
100.793
100.814
100.824
100.821
100.814
100.789
100.745
99.4037
99.7049
100.174
100.473
100.635
100.697
100.731
100.766
100.793
100.808
100.819
100.833
100.849
100.854
100.854
100.843
100.791
100.678
100.517
100.278
99.5182
100.129
100.493
100.666
100.768
100.81
100.836
100.862
100.876
100.883
100.882
100.882
100.88
100.856
100.77
100.619
100.355
100.1
100.005
99.9978
100.124
100.521
100.734
100.837
100.883
100.901
100.918
100.923
100.92
100.91
100.896
100.841
100.724
100.467
100.146
100.01
99.9967
99.9985
99.9992
99.9998
100.696
100.836
100.913
100.947
100.958
100.953
100.952
100.928
100.849
100.769
100.582
100.238
100.031
99.9958
99.9978
99.9989
99.9998
100
100
100
100.998
100.995
100.991
100.987
100.976
100.953
100.878
100.429
99.8636
100
100
100
100
100
100
100
100
100
100
100
100.998
100.994
100.988
100.976
100.957
100.858
100.485
100.011
100
100
100
100
100
100
100
100
100
100
100
100
100.989
100.991
100.988
100.968
100.929
100.646
100.045
99.9992
100
100
100
100
100
100
100
100
100
100
100
100
100.984
100.99
100.986
100.95
100.799
100.236
99.9965
100
100
100
100
100
100
100
100
100
100
100
100
100
100.979
100.989
100.984
100.914
100.567
99.992
100
100
100
100
100
100
100
100
100
100
100
100
100
100
100.977
100.987
100.98
100.829
100.224
100
100
100
100
100
100
100
100
100
100
100
100
100
100
100
100.976
100.983
100.966
100.691
99.9961
100
100
100
100
100
100
100
100
100
100
100
100
100
100
100
100.986
100.98
100.922
100.478
100
100
100
100
100
100
100
100
100
100
100
100
100
100
100
100
101.003
100.976
100.827
100.137
100
100
100
100
100
100
100
100
100
100
100
100
100
100
100
100
101.013
100.942
100.689
99.9964
100
100
100
100
100
100
100
100
100
100
100
100
100
100
100
100
101.022
100.908
100.503
100
100
100
100
100
100
100
100
100
100
100
100
100
100
100
100
100
101.027
100.85
100.312
100
100
100
100
100
100
100
100
100
100
100
100
100
100
100
100
100
101.03
100.789
100.1
100
100
100
100
100
100
100
100
100
100
100
100
100
100
100
100
100
101.027
100.725
100
100
100
100
100
100
100
100
100
100
100
100
100
100
100
100
100
100
101.016
100.667
100
100
100
100
100
100
100
100
100
100
100
100
100
100
100
100
100
100
100.997
100.589
100
100
100
100
100
100
100
100
100
100
100
100
100
100
100
100
100
100
100.965
100.449
100
100
100
100
100
100
100
100
100
100
100
100
100
100
100
100
100
100
100.91
100.258
100
100
100
100
100
100
100
100
100
100
100
100
100
100
100
100
100
100
100.852
100.006
100
100
100
100
100
100
100
100
100
100
100
100
100
100
100
100
100
100
100.792
100
100
100
100
100
100
100
100
100
100
100
100
100
100
100
100
100
100
100
100.792
100
100
100
100
100
100
100
100
100
100
100
100
100
100
100
100
100
100
100
100.852
100.006
100
100
100
100
100
100
100
100
100
100
100
100
100
100
100
100
100
100
100.91
100.258
100
100
100
100
100
100
100
100
100
100
100
100
100
100
100
100
100
100
100.965
100.449
100
100
100
100
100
100
100
100
100
100
100
100
100
100
100
100
100
100
100.997
100.589
100
100
100
100
100
100
100
100
100
100
100
100
100
100
100
100
100
100
101.016
100.667
100
100
100
100
100
100
100
100
100
100
100
100
100
100
100
100
100
100
101.027
100.725
100
100
100
100
100
100
100
100
100
100
100
100
100
100
100
100
100
100
101.03
100.789
100.1
100
100
100
100
100
100
100
100
100
100
100
100
100
100
100
100
100
101.027
100.85
100.312
100
100
100
100
100
100
100
100
100
100
100
100
100
100
100
100
100
101.022
100.908
100.503
100
100
100
100
100
100
100
100
100
100
100
100
100
100
100
100
100
101.013
100.942
100.689
99.9964
100
100
100
100
100
100
100
100
100
100
100
100
100
100
100
100
101.003
100.976
100.827
100.137
100
100
100
100
100
100
100
100
100
100
100
100
100
100
100
100
100.986
100.98
100.922
100.478
100
100
100
100
100
100
100
100
100
100
100
100
100
100
100
100
100.976
100.983
100.966
100.691
99.9961
100
100
100
100
100
100
100
100
100
100
100
100
100
100
100
100.977
100.987
100.98
100.829
100.224
100
100
100
100
100
100
100
100
100
100
100
100
100
100
100
100.979
100.989
100.984
100.914
100.567
99.992
100
100
100
100
100
100
100
100
100
100
100
100
100
100
100.984
100.99
100.986
100.95
100.799
100.236
99.9965
100
100
100
100
100
100
100
100
100
100
100
100
100
100.989
100.991
100.988
100.968
100.929
100.646
100.045
99.9992
100
100
100
100
100
100
100
100
100
100
100
100
100.998
100.994
100.988
100.976
100.957
100.858
100.485
100.011
100
100
100
100
100
100
100
100
100
100
100
100
100.998
100.995
100.991
100.987
100.976
100.953
100.878
100.429
99.8636
100
100
100
100
100
100
100
100
100
100
100
100.695
100.836
100.913
100.947
100.958
100.953
100.952
100.928
100.849
100.769
100.582
100.238
100.031
99.9958
99.9978
99.9989
99.9998
100
100
100
100.124
100.521
100.734
100.838
100.883
100.901
100.918
100.923
100.92
100.91
100.896
100.841
100.724
100.467
100.146
100.01
99.9967
99.9985
99.9992
99.9998
99.5124
100.127
100.493
100.666
100.768
100.81
100.836
100.862
100.876
100.883
100.882
100.882
100.88
100.856
100.77
100.619
100.355
100.1
100.005
99.9978
99.4064
99.7083
100.175
100.473
100.634
100.698
100.731
100.766
100.793
100.808
100.819
100.833
100.849
100.854
100.854
100.843
100.791
100.678
100.517
100.278
99.6418
99.7094
99.8071
100.14
100.429
100.593
100.641
100.682
100.715
100.729
100.737
100.75
100.769
100.793
100.814
100.824
100.821
100.814
100.789
100.745
99.9138
99.7397
99.83
99.9625
100.153
100.404
100.513
100.565
100.607
100.628
100.639
100.65
100.667
100.692
100.725
100.752
100.772
100.783
100.779
100.775
99.9747
99.8237
99.8747
99.9859
100.119
100.199
100.303
100.384
100.463
100.517
100.545
100.567
100.587
100.608
100.637
100.665
100.69
100.71
100.724
100.734
99.9932
99.8397
99.9038
100.058
100.131
100.17
100.265
100.343
100.412
100.461
100.484
100.505
100.52
100.534
100.553
100.573
100.595
100.615
100.649
100.653
99.9975
99.8515
99.8871
100.042
100.129
100.177
100.235
100.293
100.347
100.395
100.412
100.432
100.444
100.453
100.464
100.483
100.511
100.535
100.577
100.571
99.9935
99.9001
99.8893
99.9907
100.093
100.144
100.169
100.203
100.238
100.293
100.313
100.338
100.363
100.38
100.4
100.424
100.447
100.465
100.504
100.494
99.9462
99.9533
99.938
99.9907
100.07
100.119
100.113
100.144
100.181
100.234
100.276
100.296
100.328
100.341
100.357
100.37
100.381
100.394
100.416
100.451
99.8997
99.958
99.9856
100.027
100.098
100.136
100.114
100.155
100.199
100.229
100.257
100.263
100.283
100.289
100.297
100.302
100.307
100.317
100.332
100.385
99.8875
99.948
99.9804
100.032
100.116
100.137
100.119
100.152
100.185
100.194
100.206
100.202
100.201
100.202
100.201
100.203
100.212
100.245
100.277
100.327
99.9011
99.9337
99.9337
99.979
100.06
100.091
100.093
100.1
100.111
100.126
100.102
100.1
100.092
100.102
100.12
100.146
100.181
100.217
100.236
100.271
99.9625
99.9465
99.8871
99.8856
99.9355
99.9798
100.009
99.9785
99.9761
100.007
100.008
100.033
100.072
100.105
100.128
100.146
100.165
100.18
100.186
100.199
100.04
99.9958
99.9255
99.8452
99.8366
99.8564
99.8863
99.8844
99.9106
99.9652
100.005
100.043
100.083
100.107
100.117
100.125
100.126
100.121
100.103
100.102
100.09
100.081
100.053
99.9587
99.8419
99.8372
99.8629
99.8889
99.9178
99.9814
100.031
100.053
100.074
100.084
100.079
100.074
100.062
100.048
100.047
100.077
100.132
100.146
100.129
100.05
99.9395
99.857
99.8789
99.9109
99.9445
99.9938
100.039
100.032
100.024
100.017
100.008
100.008
100.014
100.023
100.034
100.047
100.238
100.342
100.391
100.455
100.55
100.595
100.517
100.368
100.405
100.501
100.467
100.463
100.529
100.589
100.556
100.49
100.476
100.443
100.43
100.418
100.614
100.801
100.881
100.981
101.059
101.062
101.047
101.02
101.025
101.069
101.09
101.112
101.149
101.164
101.156
101.139
101.127
101.112
101.097
101.087
101.072
101.033
101.006
100.978
100.932
100.884
100.856
100.858
100.864
100.848
100.748
100.527
100.279
100.112
100.037
100.002
99.9782
99.9685
99.9648
99.9693
100.566
100.649
100.689
100.726
100.742
100.736
100.737
100.753
100.79
100.792
100.727
100.552
100.332
100.156
100.049
99.9999
99.9732
99.9645
99.962
99.9684
100.027
100.066
100.157
100.275
100.405
100.466
100.502
100.552
100.631
100.683
100.666
100.571
100.414
100.242
100.099
100.014
99.9735
99.9647
99.962
99.967
100.088
100.089
100.098
100.091
100.104
100.16
100.245
100.355
100.463
100.558
100.58
100.547
100.454
100.313
100.156
100.037
99.973
99.961
99.9595
99.9668
100.131
100.136
100.14
100.141
100.124
100.11
100.107
100.156
100.301
100.438
100.5
100.494
100.446
100.336
100.191
100.057
99.9748
99.9565
99.9557
99.9652
100.181
100.182
100.19
100.183
100.155
100.152
100.147
100.124
100.137
100.282
100.413
100.423
100.402
100.322
100.195
100.066
99.9789
99.9542
99.9526
99.9629
100.24
100.23
100.224
100.219
100.201
100.194
100.184
100.157
100.119
100.13
100.241
100.344
100.332
100.273
100.176
100.067
99.9847
99.9531
99.9502
99.9628
100.306
100.276
100.261
100.258
100.248
100.229
100.211
100.187
100.144
100.112
100.114
100.189
100.216
100.19
100.128
100.056
99.9888
99.9531
99.9481
99.9617
100.368
100.336
100.297
100.285
100.281
100.257
100.232
100.212
100.179
100.135
100.106
100.08
100.082
100.078
100.056
100.024
99.9849
99.9526
99.9462
99.9616
100.434
100.4
100.348
100.318
100.312
100.288
100.255
100.234
100.209
100.161
100.111
100.077
100.039
99.9647
99.9245
99.9478
99.9537
99.9455
99.9429
99.9618
100.531
100.467
100.401
100.336
100.321
100.305
100.281
100.262
100.238
100.188
100.14
100.103
100.053
99.9713
99.8988
99.8936
99.9086
99.9265
99.9392
99.9658
100.615
100.546
100.485
100.426
100.383
100.337
100.288
100.266
100.245
100.206
100.157
100.112
100.058
99.9805
99.901
99.8851
99.8926
99.9119
99.9358
99.9705
100.608
100.585
100.537
100.48
100.425
100.382
100.332
100.281
100.238
100.194
100.152
100.112
100.065
99.9977
99.9297
99.9068
99.9084
99.9179
99.9393
99.9755
100.489
100.546
100.542
100.516
100.463
100.416
100.373
100.318
100.266
100.212
100.155
100.108
100.054
99.984
99.9228
99.9159
99.9217
99.9365
99.9576
99.9849
100.251
100.376
100.446
100.478
100.468
100.439
100.395
100.333
100.281
100.234
100.174
100.11
100.048
99.9796
99.9326
99.9293
99.9372
99.9573
99.9784
99.9945
100.041
100.15
100.257
100.332
100.385
100.397
100.385
100.354
100.303
100.245
100.187
100.125
100.07
100.02
99.9885
99.9848
99.9881
99.9959
100.001
100.002
100.002
100.016
100.068
100.154
100.227
100.276
100.302
100.299
100.283
100.248
100.205
100.154
100.099
100.058
100.034
100.027
100.023
100.018
100.008
100.001
100
100
100.004
100.024
100.074
100.137
100.182
100.207
100.205
100.195
100.175
100.146
100.112
100.082
100.06
100.044
100.031
100.017
100.006
100.001
100
100
100
100.001
100.006
100.024
100.062
100.103
100.129
100.13
100.125
100.113
100.095
100.075
100.057
100.041
100.025
100.01
100.002
100
100
100
100
100
100
100.001
100.005
100.016
100.039
100.057
100.069
100.068
100.063
100.052
100.038
100.023
100.01
100.002
100
100
100
100
100
100
100
100
100
100
100.002
100.006
100.012
100.016
100.017
100.015
100.01
100.005
100.001
100
100
100
100
100
100
100
100
100
100
100
100
100
100
100.001
100.001
100.001
100.001
100
100
100
100
100
100
100
100
100
100
100
100
100
100
100
100
100
100
100
100
100
100
100
100
100
100
100
100
100
100
100
100
100
100
100
100
100
100
100
100
100
100
100
100
100
100
100
100
100
100
100
100
100
100
100
100
100
100
100
100
100
100
100
100
100
100.598
100.653
100.609
100.414
100.142
100.017
100.001
100
100
100
100
100
100
100
100
100.673
100.663
100.517
100.216
100.022
100
100
100
100
100
100
100
100
100
100
100.705
100.635
100.372
100.074
100.002
100
100
100
100
100
100
100
100
100
100
100.719
100.518
100.166
100.009
100
100
100
100
100
100
100
100
100
100
100
100.653
100.286
100.025
100
100
100
100
100
100
100
100
100
100
100
100
100.395
100.038
100
100
100
100
100
100
100
100
100
100
100
100
100
100.042
100
100
100
100
100
100
100
100
100
100
100
100
100
100
99.9995
100
100
100
100
100
100
100
100
100
100
100
100
100
100
100
100
100
100
100
100
100
100
100
100
100
100
100
100
100
100
100
100
100
100
100
100
100
100
100
100
100
100
100
100
100
100
100
100
100
100
100
100
100
100
100
100
100
100
100
100
100
100
100
100
100
100
100
100
100
100
100
100
100
100
100
100
100
100
100
100
100
100
100
100
100
100
100
100
100
100
100
100
100
100
100
100
100
100
100
100
100
100
100
100
100
100
100
100
100
100
100
100
100
100
100
100
100
100
100
100
100
100
100
100
100
100
100
100
100
100
100
100
100
100
100
100
100
100
100
100
100
100
100
100
100
100
100
100
100
100
100
100
100
100
100
100
100
100
100
100
100
100
100
100
100
100
100
100
100
100
100
100
100
100
100
100
100
100
100
100
100
100
100
100
100
100
100
100
100
100
100
100
100
100
100
100
100
100
100
100
100
100
100
100
100
100
100
100
100
100
100
100
100
100
100
100
100
100
100
100
100
100
100
100
100
100
100
100
100
100
100
100
100
100
100
100
100
100
100
100
100
100
100
100
100
100
100
100
100
100
100
100
100
100
100
100
100
100
100
100
100
100
100
100
100
100
100
100
100
100
100
100
100
100
100
100
100
100
100
100
100
100
100
100
100
100
100
100
100
100
100
100
100
100
100
100
100
100
100
100
100
100
100
100
100
100
100
100
100
100
100
100
100
100
100
100
100
100
100
100
100
100
100
100
100
100
100
100
100
100
100
100
100
100
100
100
100
100
100
100
100
100
100
100
100
100
100
100
100
100
100
100
100
100
100
100
100
100
100
100
100
100
100
100
100
100
100
100
100
100
100
100
100
100
100
100
100
100
100
100
100
100
100
100
100
100
100
100
100
100
100
100
100
100
100
100
100
100
100
100
100
100
100
100
100
100
100
100
100
100
100
100
100
100
100
100
100
100
100
100
100
100
100
100
100
100
100
100
100
100
100
100
100
100
100
100
100
100
100
100
100
100
100
100
100
100
100
100
100
100
100
100
100
100
100
100
100
100
100
100
100
100
100
100
100
100
100
100
100
100
100
100
100
100
100
100
100
100
100
100
100
100
100
100
100
100
100
100
100
100
100
100
100
100
100
100
100
100
100
100
100
100
100
100
100
100
100
100
100
100
100
100
100
100
100
100
100
100
100
100
100
100
100
100
100
100
100
100
100
100
100
100
100
100
100
100
100
100
100
100
100
100
100
100
100
100
100
100
100
100
100
100
100
100
100
100
100
100
100
100
100
100
100
100
100
100
100
100
100
100
100
100
100
100
100
100
100
100
100
100
100
100
100
100
100
100
100
100
100
100
100
100
100
100
100
100
100
100
100
100
100
100
100
100
100
100
100
100
100
100
100
100
100
100
100
100
100
100
100
100
100
100
100
100
100
100
100
100
100
100
100
100
100
100
100
100
100
100
100
100
100
100
100
100
100
100
100
100
100
100
100
100
100
100
100
100
100
100
100
100
100
100
100
100
100
100
100
100
100
100
100
100
100
100
100
100
100
100
100
100
100
100
100
100
100
100
100
100
100
100
100
100
100
100
100
100
100
100
100
100
100
100
100
100
100
100
100
100
100
100
100
100
100
100
100
100
100
100
100
100
100
100
100
100
100
100
100
100
100
100
100
100
100
100
100
100
100
100
100
100
100
100
100
100
100
100
100
100
100
100
100
100
100
100
100
100
100
100
100
100
100
100
100
100
100
100
100
100
100
100
100
100
100
100
100
100
100
100
100
100
100
100
100
100
100
100
100
100
100
100
100
100
100
100
100
100
100
100
100
100
100
100
100
100
100
100
100
100
100
100
100
100
100
100
100
100
100
100
100
100
100
100
100
100
100
100
100
100
100
100
100
100
100
100
100
100
100
100
100
100
100
100
100
100
100
100
100
100
100
100
100
100
100
100
100
100
100
100
100
100
100
100
100
100
100
100
100
100
100
100
100
100
100
100
99.9995
100
100
100
100
100
100
100
100
100
100
100
100
100
100
100.042
100
100
100
100
100
100
100
100
100
100
100
100
100
100
100.395
100.038
100
100
100
100
100
100
100
100
100
100
100
100
100
100.653
100.286
100.025
100
100
100
100
100
100
100
100
100
100
100
100
100.719
100.518
100.166
100.009
100
100
100
100
100
100
100
100
100
100
100
100.705
100.635
100.372
100.073
100.002
100
100
100
100
100
100
100
100
100
100
100.673
100.663
100.517
100.216
100.022
100
100
100
100
100
100
100
100
100
100
100.598
100.653
100.609
100.414
100.142
100.017
100.001
100
100
100
100
100
100
100
100
100.531
100.615
100.608
100.489
100.251
100.041
100.002
100
100
100
100
100
100
100
100
100.467
100.546
100.585
100.546
100.376
100.149
100.016
100
100
100
100
100
100
100
100
100.401
100.484
100.537
100.542
100.446
100.257
100.068
100.004
100
100
100
100
100
100
100
100.337
100.426
100.48
100.516
100.478
100.331
100.153
100.024
100.001
100
100
100
100
100
100
100.321
100.383
100.425
100.463
100.468
100.385
100.227
100.074
100.006
100
100
100
100
100
100
100.305
100.337
100.383
100.416
100.439
100.397
100.276
100.137
100.024
100.001
100
100
100
100
100
100.28
100.288
100.333
100.374
100.395
100.385
100.302
100.182
100.062
100.005
100
100
100
100
100
100.262
100.266
100.282
100.318
100.332
100.354
100.299
100.207
100.103
100.016
100
100
100
100
100
100.237
100.244
100.238
100.266
100.281
100.303
100.283
100.205
100.129
100.039
100.002
100
100
100
100
100.189
100.205
100.192
100.213
100.234
100.245
100.248
100.195
100.13
100.057
100.006
100
100
100
100
100.141
100.158
100.151
100.154
100.174
100.187
100.205
100.175
100.125
100.069
100.012
100
100
100
100
100.104
100.113
100.111
100.107
100.11
100.125
100.154
100.146
100.113
100.068
100.016
100.001
100
100
100
100.054
100.059
100.065
100.053
100.048
100.07
100.099
100.112
100.095
100.063
100.017
100.001
100
100
100
99.9719
99.9843
99.9986
99.983
99.9798
100.02
100.058
100.082
100.075
100.052
100.015
100.001
100
100
100
99.9002
99.9056
99.9311
99.9218
99.9326
99.9885
100.034
100.06
100.057
100.038
100.01
100.001
100
100
100
99.8946
99.8876
99.9087
99.9159
99.9289
99.9846
100.027
100.044
100.041
100.023
100.005
100
100
100
100
99.9086
99.894
99.9105
99.9219
99.9367
99.9878
100.023
100.031
100.025
100.01
100.001
100
100
100
100
99.9262
99.9121
99.9193
99.9368
99.9568
99.9956
100.018
100.017
100.01
100.002
100
100
100
100
100
99.9391
99.9357
99.9396
99.9575
99.9781
100.001
100.008
100.006
100.002
100
100
100
100
100
100
99.9659
99.9704
99.9754
99.9847
99.9944
100.002
100.001
100.001
100
100
100
100
100
100
100
100.434
100.4
100.348
100.318
100.312
100.288
100.254
100.234
100.21
100.162
100.114
100.078
100.038
99.9634
99.9253
99.9485
99.952
99.9448
99.9429
99.9619
100.368
100.336
100.299
100.285
100.281
100.256
100.231
100.212
100.18
100.135
100.107
100.081
100.081
100.076
100.055
100.022
99.9815
99.9515
99.9463
99.9617
100.306
100.276
100.262
100.258
100.248
100.229
100.211
100.187
100.145
100.114
100.114
100.191
100.215
100.187
100.123
100.053
99.9891
99.9533
99.9482
99.9617
100.239
100.23
100.225
100.219
100.201
100.194
100.184
100.157
100.118
100.13
100.239
100.341
100.328
100.269
100.173
100.067
99.9859
99.9537
99.9506
99.9628
100.181
100.182
100.19
100.182
100.155
100.152
100.147
100.123
100.136
100.28
100.412
100.422
100.401
100.322
100.196
100.068
99.9806
99.9548
99.9531
99.9629
100.13
100.136
100.14
100.141
100.124
100.11
100.108
100.156
100.299
100.434
100.499
100.494
100.446
100.338
100.193
100.059
99.9761
99.957
99.9561
99.9651
100.088
100.089
100.098
100.091
100.103
100.16
100.244
100.354
100.461
100.556
100.58
100.548
100.456
100.315
100.16
100.039
99.9734
99.9611
99.9598
99.9669
100.027
100.064
100.155
100.274
100.406
100.466
100.501
100.552
100.631
100.683
100.666
100.571
100.415
100.244
100.101
100.016
99.9737
99.9644
99.9619
99.9678
100.573
100.648
100.688
100.725
100.743
100.736
100.738
100.754
100.791
100.792
100.728
100.55
100.328
100.154
100.049
100
99.9733
99.9642
99.9612
99.9669
101.074
101.032
101.006
100.979
100.933
100.883
100.859
100.861
100.865
100.849
100.748
100.526
100.276
100.112
100.037
100.002
99.9783
99.9684
99.9644
99.9689
)
;

boundaryField
{
    inlet
    {
        type            fixedValue;
        value           uniform 100;
    }
    outlet
    {
        type            inletOutlet;
        inletValue      uniform 100;
        value           nonuniform List<scalar> 
50
(
99.966
99.9707
99.9757
99.9851
99.9946
100.002
100.001
100.001
100
100
100
100
100
100
100
99.9693
99.9685
99.967
99.9669
99.9653
99.963
99.9629
99.9618
99.9618
99.962
99.962
99.9618
99.9618
99.9629
99.963
99.9652
99.967
99.9679
99.967
99.969
99.966
99.9706
99.9756
99.9849
99.9945
100.002
100.001
100.001
100
100
100
100
100
100
100
)
;
    }
    airfoil
    {
        type            zeroGradient;
    }
    top
    {
        type            symmetryPlane;
    }
    bottom
    {
        type            symmetryPlane;
    }
    defaultFaces
    {
        type            empty;
    }
}


// ************************************************************************* //
