/*--------------------------------*- C++ -*----------------------------------*\
  =========                 |
  \\      /  F ield         | OpenFOAM: The Open Source CFD Toolbox
   \\    /   O peration     | Website:  https://openfoam.org
    \\  /    A nd           | Version:  7
     \\/     M anipulation  |
\*---------------------------------------------------------------------------*/
FoamFile
{
    version     2.0;
    format      ascii;
    class       volVectorField;
    location    "1.6";
    object      U;
}
// * * * * * * * * * * * * * * * * * * * * * * * * * * * * * * * * * * * * * //

dimensions      [0 1 -1 0 0 0 0];

internalField   nonuniform List<vector> 
3700
(
(1.44724 -0.335607 0)
(1.43598 -0.521612 0)
(1.41253 -0.250783 0)
(1.52093 -0.212628 0)
(1.59818 -0.237075 0)
(1.57531 -0.238039 0)
(1.5304 -0.231578 0)
(1.49793 -0.214901 0)
(1.54183 -0.273261 0)
(1.60822 -0.345995 0)
(1.5778 -0.312843 0)
(1.58327 -0.184683 0)
(1.65329 -0.166627 0)
(1.70472 -0.228265 0)
(1.69812 -0.208011 0)
(1.72603 -0.198388 0)
(1.75396 -0.246704 0)
(1.79539 -0.266118 0)
(1.83361 -0.20617 0)
(1.89366 -0.216491 0)
(2.02346 -1.37432 0)
(1.9262 -1.27746 0)
(1.89189 -1.1032 0)
(2.04157 -1.12205 0)
(2.12098 -1.38132 0)
(1.95646 -1.49073 0)
(1.78676 -1.45994 0)
(1.74821 -1.47035 0)
(1.83271 -1.6248 0)
(1.88757 -1.70224 0)
(1.90188 -1.63482 0)
(1.90291 -1.31974 0)
(2.03884 -1.22321 0)
(2.13215 -1.22682 0)
(2.15577 -1.20841 0)
(2.21217 -1.19029 0)
(2.25116 -1.26375 0)
(2.26604 -1.28726 0)
(2.26886 -1.23586 0)
(2.30929 -1.20383 0)
(1.8902 -1.38803 0)
(2.00278 -1.25952 0)
(2.07897 -1.31348 0)
(2.20723 -1.44689 0)
(2.2007 -1.84133 0)
(2.05654 -2.12113 0)
(2.01205 -2.21102 0)
(1.98754 -2.23842 0)
(2.01787 -2.19738 0)
(2.05667 -2.12248 0)
(2.12126 -2.12089 0)
(2.18461 -1.9954 0)
(2.27514 -1.92096 0)
(2.38401 -1.84542 0)
(2.48872 -1.78999 0)
(2.59973 -1.72191 0)
(2.64605 -1.70906 0)
(2.64687 -1.66322 0)
(2.60603 -1.64167 0)
(2.5765 -1.5808 0)
(1.80366 -1.43105 0)
(1.86857 -1.3798 0)
(1.89832 -1.53205 0)
(1.93463 -1.8394 0)
(1.93186 -2.07904 0)
(2.00011 -2.17615 0)
(2.01202 -2.22982 0)
(2.02837 -2.19438 0)
(2.0959 -2.08915 0)
(2.20646 -2.01432 0)
(2.18083 -2.1161 0)
(2.26669 -1.9366 0)
(2.30786 -1.8368 0)
(2.37955 -1.74372 0)
(2.47623 -1.63244 0)
(2.62636 -1.5138 0)
(2.68959 -1.35089 0)
(2.77465 -1.27286 0)
(2.8057 -1.26455 0)
(2.74739 -1.32256 0)
(1.57544 -1.41078 0)
(1.68091 -1.41878 0)
(1.6927 -1.80873 0)
(1.75476 -2.08156 0)
(1.72412 -2.24591 0)
(1.75047 -2.26901 0)
(1.94726 -2.17505 0)
(2.13172 -1.97803 0)
(2.20577 -1.97768 0)
(2.3311 -1.86364 0)
(2.37746 -1.84674 0)
(2.4529 -1.77837 0)
(2.43019 -1.74225 0)
(2.42492 -1.68489 0)
(2.46435 -1.57482 0)
(2.55906 -1.4796 0)
(2.59622 -1.31 0)
(2.7235 -1.18794 0)
(2.79023 -0.960126 0)
(2.83628 -0.858311 0)
(1.39756 -1.30184 0)
(1.52277 -1.49308 0)
(1.57866 -1.87076 0)
(1.58281 -2.2043 0)
(1.51706 -2.30663 0)
(1.72112 -2.21371 0)
(1.93769 -2.07721 0)
(2.11278 -1.82236 0)
(2.2792 -1.74512 0)
(2.47379 -1.7151 0)
(2.56819 -1.5242 0)
(2.61249 -1.49038 0)
(2.62857 -1.45009 0)
(2.59238 -1.48616 0)
(2.59939 -1.3817 0)
(2.58645 -1.36044 0)
(2.58938 -1.21522 0)
(2.64982 -1.16894 0)
(2.70591 -1.05594 0)
(2.79661 -0.801342 0)
(1.27606 -1.17831 0)
(1.42209 -1.54613 0)
(1.5044 -1.97138 0)
(1.60564 -2.25152 0)
(1.64423 -2.31526 0)
(1.79159 -2.22712 0)
(1.96537 -2.08629 0)
(2.08922 -1.84759 0)
(2.20844 -1.7439 0)
(2.40264 -1.62881 0)
(2.53048 -1.42722 0)
(2.68017 -1.34325 0)
(2.72968 -1.1134 0)
(2.72889 -1.09527 0)
(2.74139 -0.96938 0)
(2.7223 -0.978287 0)
(2.70733 -0.905079 0)
(2.69028 -0.882505 0)
(2.69416 -0.912904 0)
(2.71357 -0.712026 0)
(1.16818 -1.18968 0)
(1.37258 -1.68431 0)
(1.67611 -2.07643 0)
(1.81098 -2.28493 0)
(1.92656 -2.35105 0)
(2.00718 -2.28737 0)
(2.17824 -2.02393 0)
(2.22943 -1.84181 0)
(2.26772 -1.72412 0)
(2.36129 -1.61975 0)
(2.46345 -1.43116 0)
(2.60066 -1.34607 0)
(2.64784 -1.07158 0)
(2.75642 -0.967159 0)
(2.77071 -0.710675 0)
(2.78414 -0.616662 0)
(2.77279 -0.522069 0)
(2.75604 -0.448817 0)
(2.71798 -0.576895 0)
(2.68472 -0.493891 0)
(1.15822 -1.27176 0)
(1.44402 -1.88673 0)
(1.85906 -2.17192 0)
(2.05613 -2.34943 0)
(2.32373 -2.212 0)
(2.42558 -2.17175 0)
(2.46574 -1.74003 0)
(2.51568 -1.64358 0)
(2.50171 -1.62197 0)
(2.51504 -1.45782 0)
(2.52893 -1.3502 0)
(2.58618 -1.20488 0)
(2.6098 -1.00833 0)
(2.68713 -0.923702 0)
(2.70265 -0.698687 0)
(2.75141 -0.562645 0)
(2.76411 -0.390354 0)
(2.75488 -0.201536 0)
(2.71082 -0.197296 0)
(2.67304 -0.181093 0)
(1.21489 -1.42318 0)
(1.60796 -2.10537 0)
(2.05538 -2.33952 0)
(2.26106 -2.4214 0)
(2.45147 -2.08719 0)
(2.52219 -1.91314 0)
(2.62162 -1.49471 0)
(2.68693 -1.34566 0)
(2.72284 -1.26297 0)
(2.70315 -1.05074 0)
(2.6933 -1.04354 0)
(2.70332 -0.826583 0)
(2.68677 -0.742599 0)
(2.70083 -0.648367 0)
(2.68809 -0.517958 0)
(2.6881 -0.432711 0)
(2.70017 -0.331866 0)
(2.6885 -0.172791 0)
(2.65592 -0.00529152 0)
(2.61982 0.0476436 0)
(1.35164 -1.61981 0)
(1.75532 -2.26929 0)
(2.07935 -2.32392 0)
(2.03891 -2.20009 0)
(2.08771 -1.96626 0)
(2.21404 -1.72944 0)
(2.39406 -1.43477 0)
(2.54796 -1.22138 0)
(2.63176 -0.961872 0)
(2.65053 -0.767875 0)
(2.69748 -0.619528 0)
(2.69774 -0.38964 0)
(2.71387 -0.317263 0)
(2.7014 -0.186401 0)
(2.68486 -0.121437 0)
(2.65565 -0.0933978 0)
(2.63182 -0.079283 0)
(2.62024 -0.0502283 0)
(2.55636 0.121041 0)
(2.57413 0.123233 0)
(1.39783 -1.70649 0)
(1.76346 -2.32324 0)
(1.82795 -2.11664 0)
(1.82976 -1.98834 0)
(1.99669 -1.83335 0)
(2.16178 -1.54527 0)
(2.26122 -1.35984 0)
(2.36055 -1.2148 0)
(2.45181 -1.00141 0)
(2.52022 -0.802982 0)
(2.60942 -0.579512 0)
(2.62531 -0.311218 0)
(2.65326 -0.135027 0)
(2.62624 0.0602066 0)
(2.58737 0.215438 0)
(2.55993 0.263449 0)
(2.52454 0.305111 0)
(2.52222 0.223975 0)
(2.45127 0.317647 0)
(2.47289 0.277749 0)
(1.35115 -1.70754 0)
(1.67319 -2.26949 0)
(1.7182 -2.01448 0)
(1.91333 -1.76759 0)
(2.13796 -1.68833 0)
(2.29314 -1.08664 0)
(2.37871 -1.1044 0)
(2.45064 -0.961817 0)
(2.48901 -0.761387 0)
(2.52481 -0.562613 0)
(2.56375 -0.366564 0)
(2.56243 -0.168615 0)
(2.56498 -0.00678358 0)
(2.54146 0.15257 0)
(2.4835 0.331897 0)
(2.46362 0.409985 0)
(2.38941 0.54068 0)
(2.35111 0.549947 0)
(2.30922 0.5786 0)
(2.32304 0.523482 0)
(1.10411 -1.64966 0)
(1.66459 -2.0798 0)
(1.85254 -1.87018 0)
(2.10262 -1.126 0)
(2.32011 -1.19845 0)
(2.38897 -0.709986 0)
(2.54681 -0.414661 0)
(2.6022 -0.20787 0)
(2.5868 -0.0628039 0)
(2.57539 0.0240571 0)
(2.54116 0.169793 0)
(2.49969 0.282163 0)
(2.45894 0.369259 0)
(2.41211 0.449956 0)
(2.35414 0.5283 0)
(2.32852 0.560617 0)
(2.26149 0.641667 0)
(2.20696 0.715845 0)
(2.15661 0.786205 0)
(2.13336 0.799995 0)
(0.898229 -1.45794 0)
(1.77054 -1.80672 0)
(2.20761 -1.49092 0)
(2.17851 -0.846235 0)
(2.38954 -0.644919 0)
(2.51124 -0.411241 0)
(2.56252 -0.315878 0)
(2.54446 -0.0256847 0)
(2.49994 0.180066 0)
(2.47194 0.342191 0)
(2.40831 0.506355 0)
(2.3254 0.651405 0)
(2.2703 0.725423 0)
(2.2044 0.801092 0)
(2.16035 0.819545 0)
(2.1251 0.830061 0)
(2.08511 0.863405 0)
(2.07165 0.875895 0)
(2.03583 0.923684 0)
(2.05671 0.95501 0)
(1.23332 -1.08355 0)
(1.59545 -1.73148 0)
(2.24929 -0.806123 0)
(2.50921 -0.52164 0)
(2.50187 0.0370738 0)
(2.43578 -0.215484 0)
(2.43377 -0.0161588 0)
(2.38152 0.209805 0)
(2.34115 0.33963 0)
(2.31492 0.517266 0)
(2.22494 0.692379 0)
(2.14446 0.822679 0)
(2.07967 0.903314 0)
(2.01618 0.972632 0)
(1.97304 0.987454 0)
(1.94793 1.00093 0)
(1.95393 1.01701 0)
(1.97016 0.993511 0)
(1.99622 0.992509 0)
(2.07039 0.976764 0)
(1.46782 -0.622177 0)
(2.00823 -0.947946 0)
(2.35975 0.248745 0)
(2.31301 -0.139558 0)
(2.34044 -0.00347931 0)
(2.35641 0.275184 0)
(2.28021 0.537211 0)
(2.1889 0.700949 0)
(2.12678 0.786708 0)
(2.07893 0.906183 0)
(1.97154 1.0055 0)
(1.92165 1.05241 0)
(1.89234 1.06979 0)
(1.87223 1.08432 0)
(1.87125 1.05503 0)
(1.8951 1.0482 0)
(1.96033 1.02117 0)
(2.16286 0.903051 0)
(2.38078 0.790558 0)
(2.77896 0.438823 0)
(1.09252 -0.00894371 0)
(1.84899 -0.165052 0)
(2.25609 0.0451057 0)
(2.22464 0.534671 0)
(2.19975 0.628258 0)
(2.1401 0.758649 0)
(2.04853 0.890041 0)
(1.96835 0.968026 0)
(1.90934 1.03988 0)
(1.84338 1.133 0)
(1.7841 1.16278 0)
(1.78858 1.15433 0)
(1.81109 1.13166 0)
(1.85159 1.08724 0)
(2.04291 0.949466 0)
(2.26418 0.825384 0)
(2.66919 0.499571 0)
(3.03685 0.090052 0)
(3.05487 -0.0239144 0)
(3.00403 -0.00465998 0)
(1.02853 0.00994117 0)
(1.92263 0.802698 0)
(2.08274 0.894346 0)
(2.01642 0.939217 0)
(1.9583 0.993607 0)
(1.87121 1.09203 0)
(1.79576 1.14287 0)
(1.76183 1.14903 0)
(1.75766 1.16481 0)
(1.73201 1.20666 0)
(1.7113 1.19998 0)
(1.86661 1.07191 0)
(2.10361 0.886309 0)
(2.50755 0.576126 0)
(2.98728 0.135233 0)
(3.07238 -0.0290249 0)
(3.00799 -0.00760231 0)
(3.0029 -0.0038178 0)
(3.00122 -0.00218934 0)
(3.00008 -0.000483821 0)
(1.16024 0.765394 0)
(1.82233 1.15604 0)
(1.84628 1.14123 0)
(1.7424 1.19566 0)
(1.71614 1.20563 0)
(1.67222 1.24467 0)
(1.66768 1.21814 0)
(1.73082 1.16729 0)
(1.75854 1.22644 0)
(1.78178 1.1418 0)
(2.26268 0.747797 0)
(2.85198 0.216124 0)
(3.09631 -0.026101 0)
(3.02075 -0.0123307 0)
(3.00454 -0.00540486 0)
(3.00185 -0.00300154 0)
(3.00006 -0.00059445 0)
(2.99998 -2.33072e-05 0)
(2.99999 1.43423e-05 0)
(3 5.91796e-06 0)
(1.57686 1.25455 0)
(1.58282 1.26147 0)
(1.59087 1.27008 0)
(1.60432 1.27167 0)
(1.6215 1.26302 0)
(1.62594 1.26083 0)
(1.88478 1.15742 0)
(2.97633 0.322985 0)
(3.31634 -0.53534 0)
(3 7.07617e-11 0)
(3 9.71854e-12 0)
(3 -2.86731e-13 0)
(3 1.65135e-12 0)
(3 -1.49048e-12 0)
(3 2.75924e-15 0)
(3 2.98469e-15 0)
(3 3.42067e-16 0)
(3 -3.10519e-16 0)
(3 4.37658e-16 0)
(3 -1.32974e-16 0)
(1.57559 1.24572 0)
(1.58851 1.2593 0)
(1.59891 1.27505 0)
(1.60629 1.27998 0)
(1.64717 1.25661 0)
(1.7401 1.20807 0)
(2.29612 0.715783 0)
(3.00104 0.0115604 0)
(3 3.3236e-08 0)
(3 8.39971e-12 0)
(3 -3.64965e-14 0)
(3 8.41708e-15 0)
(3 -2.85918e-15 0)
(3 5.90408e-15 0)
(3 2.05014e-15 0)
(3 2.24649e-15 0)
(3 3.11615e-15 0)
(3 1.56152e-15 0)
(3 1.55628e-15 0)
(3 1.13693e-15 0)
(1.58179 1.25526 0)
(1.59894 1.25942 0)
(1.60491 1.26869 0)
(1.59109 1.29017 0)
(1.74965 1.19905 0)
(2.1643 0.843509 0)
(2.98505 0.00652583 0)
(3.00044 -0.000809803 0)
(3 7.84639e-07 0)
(3 5.64977e-11 0)
(3 2.91191e-14 0)
(3 9.89789e-16 0)
(3 2.19046e-15 0)
(3 3.9059e-15 0)
(3 2.77585e-15 0)
(3 2.32067e-15 0)
(3 2.0798e-15 0)
(3 1.32055e-15 0)
(3 1.58758e-15 0)
(3 2.05797e-15 0)
(1.58702 1.2595 0)
(1.60411 1.26394 0)
(1.62242 1.26426 0)
(1.57706 1.30608 0)
(1.8886 1.0606 0)
(2.76527 0.21167 0)
(3.00446 -0.00200031 0)
(2.99992 7.59301e-05 0)
(3 -8.69976e-07 0)
(3 7.39268e-10 0)
(3 -6.49739e-14 0)
(3 2.27123e-15 0)
(3 4.06934e-15 0)
(3 3.91819e-15 0)
(3 2.77816e-15 0)
(3 2.01159e-15 0)
(3 1.88432e-15 0)
(3 2.22491e-16 0)
(3 2.80148e-15 0)
(3 3.01816e-15 0)
(1.59046 1.27049 0)
(1.60694 1.26806 0)
(1.63637 1.25165 0)
(1.64417 1.24627 0)
(2.28756 0.667593 0)
(3.02286 -0.0183989 0)
(2.99971 0.000175529 0)
(3 -4.32583e-06 0)
(3 8.42446e-08 0)
(3 -8.21673e-10 0)
(3 1.60808e-13 0)
(3 2.81437e-15 0)
(3 3.31011e-15 0)
(3 3.09566e-15 0)
(3 2.36169e-15 0)
(3 1.21783e-15 0)
(3 4.30915e-16 0)
(3 2.17137e-15 0)
(3 3.21455e-15 0)
(3 2.33553e-15 0)
(1.58749 1.28273 0)
(1.5906 1.2745 0)
(1.64623 1.24503 0)
(1.90459 1.07197 0)
(2.7622 0.203508 0)
(3 -5.89472e-10 0)
(3 1.40736e-08 0)
(3 -1.2693e-08 0)
(3 5.47321e-10 0)
(3 3.79841e-12 0)
(3 -8.4433e-14 0)
(3 2.71685e-15 0)
(3 2.36405e-15 0)
(3 2.66039e-15 0)
(3 2.05653e-15 0)
(3 8.57222e-16 0)
(3 3.82277e-16 0)
(3 2.94373e-15 0)
(3 3.38059e-15 0)
(3 7.50391e-16 0)
(1.58591 1.29445 0)
(1.55147 1.28634 0)
(1.66435 1.23518 0)
(2.09726 0.854964 0)
(3.02063 -0.0152571 0)
(3 -1.43839e-12 0)
(3 -1.94006e-11 0)
(3 2.60534e-11 0)
(3 -3.66357e-12 0)
(3 -4.36057e-15 0)
(3 1.74546e-15 0)
(3 1.25631e-15 0)
(3 1.67853e-15 0)
(3 1.37557e-15 0)
(3 1.68573e-15 0)
(3 1.09692e-15 0)
(3 8.77623e-16 0)
(3 3.29517e-15 0)
(3 3.4933e-15 0)
(3 1.24852e-15 0)
(1.58298 1.32241 0)
(1.50366 1.32111 0)
(1.75015 1.19212 0)
(2.41398 0.551505 0)
(3 -3.25198e-10 0)
(3 4.79623e-15 0)
(3 3.784e-15 0)
(3 -1.42518e-14 0)
(3 1.73209e-14 0)
(3 2.5767e-15 0)
(3 1.06432e-15 0)
(3 1.08912e-15 0)
(3 1.52442e-15 0)
(3 1.13485e-15 0)
(3 1.19133e-15 0)
(3 1.2197e-15 0)
(3 1.01317e-15 0)
(3 2.75176e-15 0)
(3 2.73957e-15 0)
(3 1.91384e-15 0)
(1.58655 1.30541 0)
(1.47574 1.33853 0)
(1.99111 1.04175 0)
(2.88322 0.124033 0)
(3 -3.03656e-10 0)
(3 -9.76495e-16 0)
(3 3.59568e-15 0)
(3 4.07421e-15 0)
(3 4.48015e-15 0)
(3 4.39004e-15 0)
(3 2.53221e-15 0)
(3 2.88425e-16 0)
(3 1.35714e-15 0)
(3 1.59182e-15 0)
(3 1.46733e-15 0)
(3 1.74414e-15 0)
(3 1.57431e-15 0)
(3 2.74608e-15 0)
(3 2.94784e-15 0)
(3 2.41549e-15 0)
(1.60311 1.29758 0)
(1.48139 1.39791 0)
(2.1063 0.863963 0)
(3.01139 -0.00948075 0)
(3 1.88878e-09 0)
(3 2.39197e-15 0)
(3 3.12089e-15 0)
(3 3.65761e-15 0)
(3 3.4004e-15 0)
(3 3.88789e-15 0)
(3 4.0104e-15 0)
(3 1.56483e-15 0)
(3 7.83625e-16 0)
(3 1.38972e-15 0)
(3 1.78048e-15 0)
(3 2.07005e-15 0)
(3 2.45776e-15 0)
(3 2.4582e-15 0)
(3 2.51851e-15 0)
(3 2.51813e-15 0)
(1.62015 1.2811 0)
(1.57281 1.30567 0)
(2.42845 0.523032 0)
(3 7.27143e-14 0)
(3 -1.28306e-12 0)
(3 5.40871e-15 0)
(3 3.09277e-15 0)
(3 3.52428e-15 0)
(3 3.29764e-15 0)
(3 3.46292e-15 0)
(3 3.56949e-15 0)
(3 2.41011e-15 0)
(3 2.23818e-15 0)
(3 1.15079e-15 0)
(3 1.82204e-15 0)
(3 2.16698e-15 0)
(3 3.27514e-15 0)
(3 3.73744e-15 0)
(3 4.12756e-15 0)
(3 5.25585e-15 0)
(1.63869 1.2644 0)
(1.6327 1.23922 0)
(2.64942 0.285208 0)
(3 1.26415e-13 0)
(3 4.09591e-15 0)
(3 2.68732e-15 0)
(3 3.71787e-15 0)
(3 3.86504e-15 0)
(3 3.6746e-15 0)
(3 3.601e-15 0)
(3 3.30532e-15 0)
(3 2.73202e-15 0)
(3 2.10194e-15 0)
(3 1.15023e-15 0)
(3 -4.12899e-16 0)
(3 7.56451e-16 0)
(3 1.63222e-15 0)
(3 2.96546e-15 0)
(3 2.72514e-15 0)
(3 3.9881e-15 0)
(1.66015 1.24245 0)
(1.83305 1.08983 0)
(2.88655 0.0809801 0)
(3 -2.07227e-13 0)
(3 2.72825e-15 0)
(3 2.81118e-15 0)
(3 3.62887e-15 0)
(3 3.87101e-15 0)
(3 3.7355e-15 0)
(3 3.8786e-15 0)
(3 4.07764e-15 0)
(3 3.61065e-15 0)
(3 3.09111e-15 0)
(3 2.8754e-15 0)
(3 1.23556e-15 0)
(3 5.63731e-16 0)
(3 1.20867e-15 0)
(3 1.68026e-15 0)
(3 1.17289e-15 0)
(3 2.20971e-15 0)
(1.68583 1.19421 0)
(1.91081 0.972698 0)
(2.9999 2.59187e-05 0)
(3 5.04404e-15 0)
(3 3.40329e-15 0)
(3 2.85509e-15 0)
(3 2.43675e-15 0)
(3 2.79587e-15 0)
(3 3.44113e-15 0)
(3 3.74344e-15 0)
(3 3.87603e-15 0)
(3 3.76021e-15 0)
(3 3.51396e-15 0)
(3 3.43654e-15 0)
(3 3.27659e-15 0)
(3 2.22635e-15 0)
(3 1.4442e-15 0)
(3 1.3853e-15 0)
(3 9.86075e-16 0)
(3 1.76741e-15 0)
(1.70921 1.1642 0)
(2.06132 0.828112 0)
(3 1.15765e-15 0)
(3 2.70267e-15 0)
(3 3.71316e-15 0)
(3 3.38922e-15 0)
(3 2.86289e-15 0)
(3 2.74e-15 0)
(3 3.02813e-15 0)
(3 3.37212e-15 0)
(3 3.27293e-15 0)
(3 2.71747e-15 0)
(3 2.18932e-15 0)
(3 2.0763e-15 0)
(3 2.20905e-15 0)
(3 2.08441e-15 0)
(3 1.74252e-15 0)
(3 1.5206e-15 0)
(3 8.56964e-16 0)
(3 6.97016e-16 0)
(1.73581 1.10867 0)
(2.2001 0.673674 0)
(3 3.43127e-16 0)
(3 2.03931e-15 0)
(3 2.66697e-15 0)
(3 2.7345e-15 0)
(3 2.42305e-15 0)
(3 1.54645e-15 0)
(3 2.63618e-15 0)
(3 3.79483e-15 0)
(3 3.84326e-15 0)
(3 3.8093e-15 0)
(3 2.77532e-15 0)
(3 2.00133e-15 0)
(3 1.77431e-15 0)
(3 1.79305e-15 0)
(3 1.73684e-15 0)
(3 1.76668e-15 0)
(3 1.44707e-15 0)
(3 3.68862e-16 0)
(1.82609 1.01578 0)
(2.41994 0.470997 0)
(3 -2.24238e-15 0)
(3 -3.39295e-15 0)
(3 -3.33606e-15 0)
(3 -1.6031e-15 0)
(3 -4.30201e-16 0)
(3 8.59501e-16 0)
(3 3.19163e-15 0)
(3 3.62992e-15 0)
(3 2.31238e-15 0)
(3 2.82514e-15 0)
(3 3.48187e-15 0)
(3 3.49809e-15 0)
(3 3.30463e-15 0)
(3 3.1423e-15 0)
(3 3.13053e-15 0)
(3 3.22013e-15 0)
(3 3.24552e-15 0)
(3 3.1156e-15 0)
(1.90311 0.874502 0)
(2.67836 0.224654 0)
(3 -3.83114e-15 0)
(3 -4.89009e-15 0)
(3 -4.98989e-15 0)
(3 -3.85451e-15 0)
(3 -2.56757e-15 0)
(3 -8.42762e-16 0)
(3 -6.52648e-16 0)
(3 -4.14916e-16 0)
(3 6.74934e-16 0)
(3 1.91626e-15 0)
(3 2.62577e-15 0)
(3 2.84563e-15 0)
(3 2.99772e-15 0)
(3 3.00403e-15 0)
(3 3.1443e-15 0)
(3 2.39868e-15 0)
(3 2.1496e-15 0)
(3 2.51799e-15 0)
(2.12885 0.7041 0)
(2.98878 9.11756e-05 0)
(3 -2.49461e-16 0)
(3 -1.15545e-15 0)
(3 -8.90669e-16 0)
(3 -5.62336e-16 0)
(3 -3.0747e-17 0)
(3 -1.09415e-16 0)
(3 8.88721e-17 0)
(3 -1.46843e-16 0)
(3 -1.79167e-16 0)
(3 -2.8743e-16 0)
(3 -6.05118e-16 0)
(3 -5.90956e-16 0)
(3 -8.32649e-16 0)
(3 -7.40841e-16 0)
(3 -6.01088e-16 0)
(3 -6.90845e-16 0)
(3 -7.02012e-16 0)
(3 -7.04906e-16 0)
(2.00932 0.358921 0)
(2.99994 -1.18947e-05 0)
(3 6.41777e-16 0)
(3 -6.55388e-16 0)
(3 -9.6197e-16 0)
(3 -1.31395e-15 0)
(3 -9.67767e-16 0)
(3 -4.85221e-16 0)
(3 -2.62446e-16 0)
(3 -4.5847e-16 0)
(3 -7.19829e-16 0)
(3 -7.61456e-16 0)
(3 -6.10932e-16 0)
(3 -4.93891e-16 0)
(3 -5.25795e-16 0)
(3 -4.36778e-16 0)
(3 -2.75421e-16 0)
(3 -3.10447e-16 0)
(3 -4.4413e-16 0)
(3 -6.77637e-16 0)
(2.00932 -0.358921 0)
(2.99994 1.18948e-05 0)
(3 3.18455e-16 0)
(3 6.59271e-16 0)
(3 8.69734e-16 0)
(3 8.69557e-16 0)
(3 3.88418e-16 0)
(3 -3.97408e-17 0)
(3 -4.70851e-16 0)
(3 -5.12687e-16 0)
(3 -4.4667e-16 0)
(3 -3.68295e-16 0)
(3 -4.72465e-16 0)
(3 -6.54676e-16 0)
(3 -8.23179e-16 0)
(3 -1.19453e-15 0)
(3 -1.40103e-15 0)
(3 -1.30361e-15 0)
(3 -1.36186e-15 0)
(3 -1.3232e-15 0)
(2.12885 -0.7041 0)
(2.98878 -9.11743e-05 0)
(3 3.95222e-15 0)
(3 4.30508e-15 0)
(3 4.50874e-15 0)
(3 3.09232e-15 0)
(3 1.23441e-15 0)
(3 4.21429e-18 0)
(3 -3.29202e-16 0)
(3 -6.74047e-16 0)
(3 -7.70058e-16 0)
(3 -7.98139e-16 0)
(3 -1.20957e-15 0)
(3 -1.56845e-15 0)
(3 -1.84931e-15 0)
(3 -2.22642e-15 0)
(3 -2.36302e-15 0)
(3 -2.16292e-15 0)
(3 -1.36332e-15 0)
(3 -1.22085e-15 0)
(1.90311 -0.874502 0)
(2.67836 -0.224654 0)
(3 5.46058e-15 0)
(3 4.30428e-15 0)
(3 4.59954e-15 0)
(3 3.89253e-15 0)
(3 3.14503e-15 0)
(3 9.78664e-16 0)
(3 -2.35372e-18 0)
(3 -3.96362e-16 0)
(3 -8.34079e-16 0)
(3 -1.07048e-15 0)
(3 -1.40139e-15 0)
(3 -1.65093e-15 0)
(3 -1.49502e-15 0)
(3 -1.21569e-15 0)
(3 -8.72239e-16 0)
(3 -6.8718e-16 0)
(3 -5.33476e-16 0)
(3 -2.11684e-16 0)
(1.82609 -1.01578 0)
(2.41994 -0.470996 0)
(3 -2.89424e-15 0)
(3 1.96741e-15 0)
(3 1.76479e-15 0)
(3 8.61349e-16 0)
(3 2.22928e-16 0)
(3 7.01061e-16 0)
(3 1.35227e-15 0)
(3 1.63302e-15 0)
(3 1.57557e-15 0)
(3 1.16379e-15 0)
(3 1.02006e-16 0)
(3 -1.99212e-16 0)
(3 -2.74456e-16 0)
(3 -3.58445e-16 0)
(3 -1.4308e-16 0)
(3 -2.66392e-17 0)
(3 4.40944e-17 0)
(3 3.82375e-16 0)
(1.73581 -1.10867 0)
(2.2001 -0.673675 0)
(3 -2.1076e-15 0)
(3 -1.31006e-15 0)
(3 1.5008e-16 0)
(3 8.73187e-17 0)
(3 3.20335e-16 0)
(3 9.13645e-16 0)
(3 9.46293e-16 0)
(3 2.5052e-17 0)
(3 -5.0618e-16 0)
(3 -7.40708e-16 0)
(3 -7.58897e-16 0)
(3 -5.49615e-16 0)
(3 -2.50463e-16 0)
(3 -1.93927e-17 0)
(3 -7.09638e-16 0)
(3 -5.57032e-16 0)
(3 -9.98284e-17 0)
(3 7.86614e-16 0)
(1.70921 -1.1642 0)
(2.06133 -0.82811 0)
(3 -2.99581e-15 0)
(3 -3.59645e-15 0)
(3 -3.96995e-15 0)
(3 -4.13579e-15 0)
(3 -3.03173e-15 0)
(3 -4.78243e-16 0)
(3 -6.54517e-16 0)
(3 -1.50955e-15 0)
(3 -1.74183e-15 0)
(3 -1.8188e-15 0)
(3 -1.25331e-15 0)
(3 -8.09203e-16 0)
(3 -6.78796e-16 0)
(3 -1.11072e-15 0)
(3 -5.38718e-16 0)
(3 4.49049e-16 0)
(3 1.15315e-15 0)
(3 9.78066e-16 0)
(1.68583 -1.19421 0)
(1.91081 -0.972702 0)
(2.9999 -2.59218e-05 0)
(3 -5.20292e-15 0)
(3 -3.72264e-15 0)
(3 -3.5943e-15 0)
(3 -2.89297e-15 0)
(3 -3.10759e-15 0)
(3 -3.90272e-15 0)
(3 -5.10266e-15 0)
(3 -4.97483e-15 0)
(3 -4.20751e-15 0)
(3 -3.41766e-15 0)
(3 -3.90454e-15 0)
(3 -3.25935e-15 0)
(3 -2.90444e-15 0)
(3 -1.69661e-15 0)
(3 -8.64149e-16 0)
(3 -8.10555e-16 0)
(3 -9.59255e-16 0)
(1.66015 -1.24246 0)
(1.83306 -1.08983 0)
(2.88656 -0.0809802 0)
(3 2.03598e-13 0)
(3 -2.65714e-15 0)
(3 -2.42247e-15 0)
(3 -2.51705e-15 0)
(3 -2.43888e-15 0)
(3 -2.53528e-15 0)
(3 -2.96533e-15 0)
(3 -3.18795e-15 0)
(3 -3.31995e-15 0)
(3 -3.39574e-15 0)
(3 -3.11673e-15 0)
(3 -2.75173e-15 0)
(3 -2.6718e-15 0)
(3 -2.80158e-15 0)
(3 -1.15932e-15 0)
(3 -8.33517e-16 0)
(3 -1.24275e-15 0)
(1.63869 -1.2644 0)
(1.6327 -1.23922 0)
(2.64941 -0.285211 0)
(3 -1.24293e-13 0)
(3 -3.3345e-15 0)
(3 -1.4754e-15 0)
(3 -1.75163e-15 0)
(3 -1.36139e-15 0)
(3 -1.18928e-15 0)
(3 -1.97237e-15 0)
(3 -2.03507e-15 0)
(3 -2.47989e-15 0)
(3 -2.55035e-15 0)
(3 -2.19387e-15 0)
(3 -2.16814e-15 0)
(3 -2.30396e-15 0)
(3 -9.2428e-16 0)
(3 -6.97139e-16 0)
(3 -1.34219e-15 0)
(3 -1.96323e-15 0)
(1.62015 -1.2811 0)
(1.5728 -1.30568 0)
(2.42845 -0.523036 0)
(3 -7.2177e-14 0)
(3 1.26981e-12 0)
(3 -5.35386e-15 0)
(3 -1.56345e-15 0)
(3 -1.17944e-15 0)
(3 -1.10825e-15 0)
(3 -1.59062e-15 0)
(3 -1.78238e-15 0)
(3 -2.17533e-15 0)
(3 -2.42878e-15 0)
(3 -1.84312e-15 0)
(3 -1.82128e-15 0)
(3 -1.52693e-15 0)
(3 -9.99112e-16 0)
(3 -1.34456e-15 0)
(3 -2.62848e-15 0)
(3 -3.53665e-15 0)
(1.60311 -1.29758 0)
(1.48139 -1.39791 0)
(2.1063 -0.863962 0)
(3.01139 0.00948067 0)
(3 -1.87337e-09 0)
(3 -9.6929e-16 0)
(3 -8.75357e-16 0)
(3 -1.58557e-15 0)
(3 -1.74239e-15 0)
(3 -2.05923e-15 0)
(3 -2.28175e-15 0)
(3 -2.6252e-15 0)
(3 -2.79628e-15 0)
(3 -1.75266e-15 0)
(3 -1.26842e-15 0)
(3 -9.269e-16 0)
(3 -1.59531e-15 0)
(3 -2.66594e-15 0)
(3 -3.83692e-15 0)
(3 -3.9494e-15 0)
(1.58655 -1.30541 0)
(1.47574 -1.33853 0)
(1.99111 -1.04175 0)
(2.88322 -0.12403 0)
(3 3.01179e-10 0)
(3 7.72361e-16 0)
(3 -7.62322e-16 0)
(3 -2.45148e-16 0)
(3 -2.11858e-15 0)
(3 -2.7774e-15 0)
(3 -3.1803e-15 0)
(3 -3.46218e-15 0)
(3 -2.53838e-15 0)
(3 -1.55992e-15 0)
(3 -7.43119e-16 0)
(3 -1.22065e-15 0)
(3 -2.22455e-15 0)
(3 -3.21167e-15 0)
(3 -3.91341e-15 0)
(3 -3.13125e-15 0)
(1.58298 -1.32241 0)
(1.50366 -1.32111 0)
(1.75016 -1.19212 0)
(2.41398 -0.551501 0)
(3 3.22516e-10 0)
(3 -3.12639e-15 0)
(3 -1.92513e-15 0)
(3 2.00203e-14 0)
(3 -1.71563e-14 0)
(3 -3.04665e-15 0)
(3 -3.14729e-15 0)
(3 -3.04264e-15 0)
(3 -1.3048e-15 0)
(3 -1.46342e-15 0)
(3 -4.36992e-16 0)
(3 -7.81498e-16 0)
(3 -2.00383e-15 0)
(3 -3.91817e-15 0)
(3 -4.11965e-15 0)
(3 -3.38496e-15 0)
(1.58591 -1.29445 0)
(1.55147 -1.28633 0)
(1.66434 -1.23519 0)
(2.09724 -0.854976 0)
(3.02063 0.0152534 0)
(3 1.43916e-12 0)
(3 1.93986e-11 0)
(3 -2.60467e-11 0)
(3 3.66492e-12 0)
(3 5.4492e-15 0)
(3 -3.4646e-15 0)
(3 -2.14995e-15 0)
(3 -6.34664e-16 0)
(3 -3.00622e-16 0)
(3 3.35238e-16 0)
(3 -1.16129e-15 0)
(3 -2.17482e-15 0)
(3 -4.29485e-15 0)
(3 -3.55314e-15 0)
(3 -2.18399e-15 0)
(1.58749 -1.28273 0)
(1.59059 -1.2745 0)
(1.64623 -1.24503 0)
(1.90463 -1.07196 0)
(2.76221 -0.203507 0)
(3 5.89469e-10 0)
(3 -1.40735e-08 0)
(3 1.26929e-08 0)
(3 -5.47316e-10 0)
(3 -3.7929e-12 0)
(3 8.36843e-14 0)
(3 -8.29552e-16 0)
(3 -9.13633e-17 0)
(3 2.26173e-16 0)
(3 -4.50654e-16 0)
(3 -1.39879e-15 0)
(3 -2.04181e-15 0)
(3 -3.65737e-15 0)
(3 -2.69841e-15 0)
(3 -1.22847e-15 0)
(1.59046 -1.27048 0)
(1.60695 -1.26806 0)
(1.63638 -1.25165 0)
(1.64414 -1.24629 0)
(2.28754 -0.667609 0)
(3.02286 0.0183991 0)
(2.99971 -0.000175511 0)
(3 4.326e-06 0)
(3 -8.42431e-08 0)
(3 8.21808e-10 0)
(3 -1.55257e-13 0)
(3 5.28982e-16 0)
(3 -5.40254e-16 0)
(3 1.51799e-16 0)
(3 -1.12142e-15 0)
(3 -1.74673e-15 0)
(3 -2.01922e-15 0)
(3 -2.37009e-15 0)
(3 -2.71071e-15 0)
(3 -5.50861e-16 0)
(1.58702 -1.25949 0)
(1.60412 -1.26394 0)
(1.62243 -1.26426 0)
(1.57706 -1.30608 0)
(1.88859 -1.0606 0)
(2.76528 -0.211663 0)
(3.00446 0.0019995 0)
(2.99992 -7.59311e-05 0)
(3 8.70095e-07 0)
(3 -7.39499e-10 0)
(3 7.43148e-14 0)
(3 -1.73332e-15 0)
(3 -1.56125e-15 0)
(3 -1.20958e-15 0)
(3 -1.09656e-15 0)
(3 -1.54982e-15 0)
(3 -2.79885e-15 0)
(3 -1.54353e-15 0)
(3 -2.74758e-15 0)
(3 -8.89593e-16 0)
(1.58179 -1.25526 0)
(1.59894 -1.25941 0)
(1.60491 -1.26868 0)
(1.59111 -1.29015 0)
(1.7497 -1.19903 0)
(2.16437 -0.843489 0)
(2.98506 -0.00651518 0)
(3.00044 0.000809876 0)
(3 -7.84732e-07 0)
(3 -5.64897e-11 0)
(3 -3.03953e-14 0)
(3 3.66459e-17 0)
(3 -6.7115e-16 0)
(3 -1.83564e-15 0)
(3 -9.52844e-16 0)
(3 -1.25483e-15 0)
(3 -2.46348e-15 0)
(3 -7.17743e-16 0)
(3 -2.18498e-15 0)
(3 -9.15209e-16 0)
(1.57559 -1.24573 0)
(1.58851 -1.2593 0)
(1.59891 -1.27505 0)
(1.60629 -1.27998 0)
(1.64715 -1.25661 0)
(1.74001 -1.20811 0)
(2.29604 -0.715826 0)
(3.00103 -0.0115741 0)
(3 -3.32693e-08 0)
(3 -8.3913e-12 0)
(3 3.70145e-14 0)
(3 -4.60297e-15 0)
(3 4.91736e-15 0)
(3 -5.69226e-15 0)
(3 -7.27864e-16 0)
(3 1.84678e-16 0)
(3 -2.28617e-15 0)
(3 -2.0801e-16 0)
(3 -1.57983e-15 0)
(3 -9.08218e-16 0)
(1.57686 -1.25456 0)
(1.58282 -1.26147 0)
(1.59087 -1.27008 0)
(1.60432 -1.27168 0)
(1.6215 -1.26302 0)
(1.62595 -1.26083 0)
(1.88484 -1.15739 0)
(2.97643 -0.322933 0)
(3.3163 0.535295 0)
(3 -7.07558e-11 0)
(3 -9.7018e-12 0)
(3 2.88318e-13 0)
(3 -1.64074e-12 0)
(3 1.48315e-12 0)
(3 -1.40245e-15 0)
(3 1.75454e-16 0)
(3 3.39163e-16 0)
(3 1.07679e-15 0)
(3 -3.90229e-16 0)
(3 4.60502e-16 0)
(1.16038 -0.765185 0)
(1.8222 -1.15635 0)
(1.84643 -1.14131 0)
(1.74215 -1.19603 0)
(1.71615 -1.20566 0)
(1.67224 -1.24465 0)
(1.6677 -1.21814 0)
(1.73082 -1.16729 0)
(1.75851 -1.22648 0)
(1.78171 -1.14186 0)
(2.26255 -0.747909 0)
(2.85189 -0.216222 0)
(3.09631 0.0260787 0)
(3.02075 0.0123302 0)
(3.00454 0.00540423 0)
(3.00185 0.00300118 0)
(3.00006 0.000594568 0)
(2.99998 2.33109e-05 0)
(2.99999 -1.43393e-05 0)
(3 -5.9172e-06 0)
(1.02769 -0.010837 0)
(1.92294 -0.799661 0)
(2.0823 -0.893927 0)
(2.01724 -0.9376 0)
(1.95794 -0.993997 0)
(1.87088 -1.09247 0)
(1.79581 -1.14285 0)
(1.76189 -1.14899 0)
(1.75773 -1.16476 0)
(1.73206 -1.20661 0)
(1.7113 -1.19996 0)
(1.86657 -1.07193 0)
(2.10361 -0.886326 0)
(2.50756 -0.576137 0)
(2.98729 -0.135236 0)
(3.07237 0.0290166 0)
(3.00799 0.00760029 0)
(3.0029 0.00381694 0)
(3.00122 0.00218892 0)
(3.00008 0.00048379 0)
(1.08809 0.0039146 0)
(1.85081 0.153251 0)
(2.25763 -0.0434569 0)
(2.22388 -0.538085 0)
(2.19993 -0.625954 0)
(2.14033 -0.756919 0)
(2.0484 -0.8896 0)
(1.96834 -0.968016 0)
(1.9092 -1.03985 0)
(1.84345 -1.133 0)
(1.78415 -1.16276 0)
(1.7886 -1.1543 0)
(1.8111 -1.13165 0)
(1.85162 -1.08723 0)
(2.04293 -0.949467 0)
(2.26419 -0.825378 0)
(2.66924 -0.499513 0)
(3.03688 -0.0900045 0)
(3.05487 0.0239182 0)
(3.00403 0.00465905 0)
(1.45095 0.630239 0)
(1.99544 0.942772 0)
(2.35952 -0.257499 0)
(2.31423 0.145105 0)
(2.342 0.00086752 0)
(2.35652 -0.277263 0)
(2.28 -0.537419 0)
(2.18919 -0.699913 0)
(2.12691 -0.78596 0)
(2.07907 -0.905904 0)
(1.97158 -1.00541 0)
(1.92165 -1.05243 0)
(1.89232 -1.06983 0)
(1.87224 -1.08433 0)
(1.87128 -1.05503 0)
(1.89513 -1.04819 0)
(1.96036 -1.02115 0)
(2.16288 -0.903029 0)
(2.38078 -0.790531 0)
(2.77897 -0.438781 0)
(1.19893 1.06648 0)
(1.58965 1.71373 0)
(2.2556 0.795669 0)
(2.51669 0.527657 0)
(2.50202 -0.0561796 0)
(2.43439 0.213556 0)
(2.43394 0.0161095 0)
(2.38178 -0.210826 0)
(2.34126 -0.340506 0)
(2.31495 -0.517921 0)
(2.22494 -0.692818 0)
(2.14443 -0.82294 0)
(2.07967 -0.903419 0)
(2.0162 -0.972648 0)
(1.97308 -0.987429 0)
(1.94796 -1.0009 0)
(1.95394 -1.017 0)
(1.97015 -0.993523 0)
(1.99621 -0.992524 0)
(2.07039 -0.976776 0)
(0.891774 1.45625 0)
(1.76408 1.80559 0)
(2.19954 1.5253 0)
(2.18022 0.848301 0)
(2.39552 0.678063 0)
(2.51159 0.404052 0)
(2.56208 0.308211 0)
(2.54418 0.0222465 0)
(2.49967 -0.181727 0)
(2.47184 -0.342867 0)
(2.4083 -0.506675 0)
(2.32543 -0.651499 0)
(2.2703 -0.72544 0)
(2.20439 -0.801061 0)
(2.16035 -0.819479 0)
(2.12509 -0.830031 0)
(2.08509 -0.863394 0)
(2.07164 -0.875909 0)
(2.03582 -0.923707 0)
(2.05671 -0.955034 0)
(1.10636 1.6453 0)
(1.65423 2.08795 0)
(1.8328 1.88668 0)
(2.11067 1.14959 0)
(2.33551 1.2098 0)
(2.38787 0.709498 0)
(2.54181 0.419558 0)
(2.59939 0.211848 0)
(2.58539 0.0651401 0)
(2.5746 -0.0227836 0)
(2.54074 -0.169062 0)
(2.49946 -0.281674 0)
(2.45879 -0.368945 0)
(2.41198 -0.449773 0)
(2.35407 -0.528195 0)
(2.32852 -0.560521 0)
(2.26149 -0.641643 0)
(2.20698 -0.715815 0)
(2.15659 -0.786269 0)
(2.13341 -0.799955 0)
(1.35456 1.70198 0)
(1.67487 2.26831 0)
(1.72223 2.01763 0)
(1.9084 1.78746 0)
(2.13364 1.69395 0)
(2.29722 1.09149 0)
(2.3784 1.10851 0)
(2.44928 0.961807 0)
(2.48763 0.761778 0)
(2.52383 0.563036 0)
(2.56313 0.367076 0)
(2.56202 0.168903 0)
(2.56474 0.00697405 0)
(2.54131 -0.152499 0)
(2.48351 -0.331812 0)
(2.46372 -0.40989 0)
(2.38951 -0.54064 0)
(2.35119 -0.549951 0)
(2.30923 -0.578638 0)
(2.32301 -0.523696 0)
(1.39713 1.69868 0)
(1.76447 2.31854 0)
(1.84462 2.12598 0)
(1.83682 1.99184 0)
(1.99997 1.83303 0)
(2.16277 1.55232 0)
(2.26591 1.35675 0)
(2.36238 1.21341 0)
(2.45262 1.00037 0)
(2.52067 0.802577 0)
(2.60966 0.579113 0)
(2.6255 0.311086 0)
(2.65341 0.134836 0)
(2.62647 -0.0603403 0)
(2.58768 -0.215497 0)
(2.56021 -0.263564 0)
(2.52473 -0.305202 0)
(2.52236 -0.224008 0)
(2.45133 -0.317652 0)
(2.47306 -0.277488 0)
(1.34773 1.60888 0)
(1.75162 2.2591 0)
(2.08652 2.32433 0)
(2.05389 2.21049 0)
(2.09795 1.97174 0)
(2.21888 1.73739 0)
(2.39996 1.43421 0)
(2.55293 1.2242 0)
(2.63639 0.96206 0)
(2.65357 0.767678 0)
(2.69914 0.619185 0)
(2.69867 0.389154 0)
(2.71444 0.316844 0)
(2.70192 0.186215 0)
(2.68528 0.121405 0)
(2.65594 0.0934691 0)
(2.63199 0.0794576 0)
(2.62035 0.0504514 0)
(2.55639 -0.120929 0)
(2.57406 -0.123291 0)
(1.21448 1.41524 0)
(1.60347 2.09518 0)
(2.05425 2.33393 0)
(2.26361 2.42777 0)
(2.46937 2.09302 0)
(2.52714 1.91447 0)
(2.62293 1.49841 0)
(2.68498 1.34615 0)
(2.72047 1.26355 0)
(2.70267 1.05109 0)
(2.69308 1.04443 0)
(2.70323 0.826775 0)
(2.68674 0.742794 0)
(2.70089 0.648642 0)
(2.68815 0.518224 0)
(2.68813 0.433009 0)
(2.70021 0.332218 0)
(2.68845 0.172922 0)
(2.65587 0.00546772 0)
(2.61974 -0.0474764 0)
(1.16393 1.26956 0)
(1.4445 1.8757 0)
(1.85836 2.16006 0)
(2.05211 2.34735 0)
(2.32164 2.22449 0)
(2.42285 2.17322 0)
(2.45394 1.74058 0)
(2.50652 1.64331 0)
(2.49507 1.62251 0)
(2.51053 1.45802 0)
(2.52659 1.35011 0)
(2.58488 1.20505 0)
(2.60918 1.00823 0)
(2.68684 0.9237 0)
(2.70243 0.698667 0)
(2.75119 0.562684 0)
(2.76391 0.390454 0)
(2.75465 0.201419 0)
(2.71061 0.19721 0)
(2.67277 0.181325 0)
(1.17643 1.18774 0)
(1.37881 1.67426 0)
(1.67994 2.06659 0)
(1.80953 2.28084 0)
(1.91359 2.35213 0)
(1.99506 2.2833 0)
(2.16673 2.021 0)
(2.22117 1.84064 0)
(2.26228 1.72099 0)
(2.35765 1.61751 0)
(2.46161 1.42895 0)
(2.59975 1.34443 0)
(2.6471 1.07021 0)
(2.75554 0.96627 0)
(2.76985 0.71036 0)
(2.78339 0.616752 0)
(2.77233 0.52194 0)
(2.75586 0.448869 0)
(2.71795 0.576751 0)
(2.68462 0.494117 0)
(1.28315 1.1817 0)
(1.42937 1.54417 0)
(1.51032 1.96285 0)
(1.6088 2.2462 0)
(1.63579 2.31042 0)
(1.78596 2.22503 0)
(1.95919 2.08132 0)
(2.08424 1.84564 0)
(2.20554 1.73879 0)
(2.40107 1.62532 0)
(2.52984 1.42422 0)
(2.67869 1.34134 0)
(2.72811 1.11376 0)