/*--------------------------------*- C++ -*----------------------------------*\
  =========                 |
  \\      /  F ield         | OpenFOAM: The Open Source CFD Toolbox
   \\    /   O peration     | Website:  https://openfoam.org
    \\  /    A nd           | Version:  7
     \\/     M anipulation  |
\*---------------------------------------------------------------------------*/
FoamFile
{
    version     2.0;
    format      ascii;
    class       volScalarField;
    location    "3.5";
    object      p;
}
// * * * * * * * * * * * * * * * * * * * * * * * * * * * * * * * * * * * * * //

dimensions      [1 -1 -2 0 0 0 0];

internalField   nonuniform List<scalar> 
3700
(
0.102143
0.165889
0.228231
0.273067
0.289551
0.322883
0.372404
0.424377
0.452818
0.460934
0.480484
0.484271
0.477432
0.496313
0.505243
0.497492
0.503763
0.512286
0.510602
0.483952
0.0743308
0.0832187
0.103672
0.111694
0.0991054
0.104486
0.123221
0.13255
0.135757
0.142169
0.155369
0.160297
0.162199
0.174459
0.20614
0.240058
0.265666
0.273136
0.256954
0.211305
0.0820709
0.0841689
0.0795852
0.0691253
0.0579516
0.052008
0.0491575
0.049317
0.0525696
0.0578393
0.0657499
0.0740202
0.0840914
0.0965332
0.108855
0.118043
0.122801
0.12338
0.122927
0.123096
0.0883287
0.0815122
0.0687689
0.0586544
0.0563875
0.0588783
0.0591949
0.0620758
0.0651095
0.0737758
0.0770381
0.0839908
0.0931993
0.106622
0.122182
0.140008
0.158018
0.170747
0.180686
0.180729
0.0920953
0.0721411
0.05722
0.0539483
0.0565112
0.061778
0.0732691
0.0880684
0.0963646
0.108934
0.106396
0.112814
0.112147
0.115677
0.125716
0.145999
0.170653
0.197317
0.222047
0.245125
0.099671
0.0630454
0.0485832
0.0473321
0.0518273
0.0594915
0.0741479
0.095309
0.114709
0.129608
0.145415
0.159612
0.16454
0.169716
0.168002
0.171407
0.18428
0.217307
0.255589
0.316666
0.100674
0.0551096
0.0428008
0.0457764
0.0491007
0.0550797
0.0690967
0.0910157
0.118608
0.143498
0.171772
0.189558
0.214057
0.235475
0.249219
0.257523
0.268627
0.282268
0.3076
0.392453
0.0966005
0.050446
0.0410096
0.0464349
0.0507881
0.0570099
0.0701242
0.0879405
0.113461
0.145417
0.183044
0.210051
0.252085
0.288055
0.323488
0.359808
0.390106
0.418686
0.440212
0.530333
0.0907378
0.0473101
0.0414348
0.0521826
0.0610805
0.0786603
0.10239
0.118307
0.139149
0.161826
0.190479
0.227426
0.282512
0.334457
0.387999
0.450108
0.510863
0.574342
0.61321
0.730955
0.0771919
0.0417533
0.0394267
0.053524
0.0681806
0.0996803
0.146452
0.180099
0.218232
0.257797
0.288496
0.327821
0.370309
0.422315
0.475851
0.549711
0.646379
0.745595
0.84381
0.968146
0.0574333
0.0336707
0.0313048
0.0452509
0.0669594
0.103138
0.16305
0.21509
0.282462
0.363279
0.430891
0.497671
0.563492
0.628613
0.680148
0.745462
0.838583
0.952448
1.16566
1.15443
0.0411386
0.0255554
0.0239829
0.0402482
0.0630059
0.0987259
0.157463
0.221521
0.31123
0.435781
0.549997
0.65926
0.773407
0.868961
0.967999
1.07423
1.18369
1.30288
1.53203
1.50642
0.030372
0.0193407
0.0188839
0.038022
0.0628995
0.113775
0.166834
0.241046
0.379311
0.545084
0.713481
0.868584
1.0273
1.16311
1.32909
1.50293
1.67164
1.82917
2.08139
2.07451
0.0225642
0.0154706
0.0162642
0.0391102
0.0937551
0.237534
0.367638
0.529918
0.743755
0.955815
1.14553
1.31339
1.48115
1.64468
1.85877
2.09716
2.33397
2.57788
2.78118
2.99688
0.0150415
0.0137056
0.01747
0.0863138
0.232848
0.453816
0.679823
0.941719
1.24555
1.53503
1.75831
1.97505
2.19569
2.43047
2.72526
3.00261
3.2678
3.50066
3.64659
3.7771
0.00761864
0.0186048
0.0558554
0.202448
0.446627
0.723518
1.06792
1.47307
1.91338
2.29062
2.56953
2.84394
3.12422
3.43212
3.76112
3.96993
4.09107
4.13432
4.04066
3.91641
0.00747853
0.0485602
0.170878
0.391742
0.835621
1.39701
1.9583
2.53915
3.14741
3.53803
3.77976
4.01009
4.21475
4.38049
4.46817
4.39186
4.1718
3.63631
2.78449
1.89286
0.0362564
0.164479
0.522541
1.16455
2.02122
2.85665
3.57827
4.28453
4.80629
4.86039
4.76533
4.75479
4.71155
4.541
4.02498
3.06134
2.08244
1.32639
1.017
0.992802
0.309114
0.863514
1.93541
3.14771
4.20663
4.86834
5.42995
5.89805
5.76342
5.31226
4.87347
4.33027
3.4028
2.32626
1.42329
1.02901
0.989494
0.994993
0.997344
0.999444
2.32252
3.64001
4.90255
5.71751
6.18329
6.40542
6.56524
6.24859
4.556
3.21446
2.37287
1.56176
1.07837
0.987287
0.992845
0.99626
0.999159
0.999973
1.00002
1.00001
6.97758
6.91753
6.87661
6.88018
6.94115
6.76685
5.98838
2.27675
0.657215
1
1
1
1
1
1
1
1
1
1
1
6.9883
6.91889
6.83422
6.76229
6.75164
5.73043
2.6172
1.01852
1
1
1
1
1
1
1
1
1
1
1
1
6.81734
6.87184
6.84234
6.72575
6.4717
3.33672
1.03069
0.999354
1
1
1
1
1
1
1
1
1
1
1
1
6.66697
6.82838
6.81175
6.5559
4.66351
1.37543
0.994809
1.0001
0.999999
1
1
1
1
1
1
1
1
1
1
1
6.51218
6.79276
6.77883
5.9999
2.79708
0.974777
1.00035
0.999994
1
1
1
1
1
1
1
1
1
1
1
1
6.41062
6.75885
6.78602
5.0521
1.47016
1
1
1
1
1
1
1
1
1
1
1
1
1
1
1
6.38783
6.69574
6.69465
3.50834
0.973438
1
1
1
1
1
1
1
1
1
1
1
1
1
1
1
6.50392
6.62815
6.01162
2.02612
1
1
1
1
1
1
1
1
1
1
1
1
1
1
1
1
6.94942
6.69787
4.9129
1.16302
1
1
1
1
1
1
1
1
1
1
1
1
1
1
1
1
7.26292
6.34965
3.51291
0.98773
1
1
1
1
1
1
1
1
1
1
1
1
1
1
1
1
7.4877
6.02777
2.30388
1
1
1
1
1
1
1
1
1
1
1
1
1
1
1
1
1
7.54879
5.38482
1.59771
1
1
1
1
1
1
1
1
1
1
1
1
1
1
1
1
1
7.57316
4.7203
1.14596
1
1
1
1
1
1
1
1
1
1
1
1
1
1
1
1
1
7.33948
3.97995
1.00565
1
1
1
1
1
1
1
1
1
1
1
1
1
1
1
1
1
7.14021
3.25574
1
1
1
1
1
1
1
1
1
1
1
1
1
1
1
1
1
1
6.96676
2.55477
1
1
1
1
1
1
1
1
1
1
1
1
1
1
1
1
1
1
6.64775
1.93975
1
1
1
1
1
1
1
1
1
1
1
1
1
1
1
1
1
1
6.34983
1.35357
1
1
1
1
1
1
1
1
1
1
1
1
1
1
1
1
1
1
5.62779
1.0045
1
1
1
1
1
1
1
1
1
1
1
1
1
1
1
1
1
1
4.68162
1.00004
1
1
1
1
1
1
1
1
1
1
1
1
1
1
1
1
1
1
4.68092
1.00004
1
1
1
1
1
1
1
1
1
1
1
1
1
1
1
1
1
1
5.64209
1.00451
1
1
1
1
1
1
1
1
1
1
1
1
1
1
1
1
1
1
6.34167
1.35365
1
1
1
1
1
1
1
1
1
1
1
1
1
1
1
1
1
1
6.64787
1.93282
1
1
1
1
1
1
1
1
1
1
1
1
1
1
1
1
1
1
6.97273
2.54728
1
1
1
1
1
1
1
1
1
1
1
1
1
1
1
1
1
1
7.14831
3.2515
1
1
1
1
1
1
1
1
1
1
1
1
1
1
1
1
1
1
7.34199
3.98048
1.00631
1
1
1
1
1
1
1
1
1
1
1
1
1
1
1
1
1
7.57391
4.71634
1.14505
1
1
1
1
1
1
1
1
1
1
1
1
1
1
1
1
1
7.55081
5.3875
1.59505
1
1
1
1
1
1
1
1
1
1
1
1
1
1
1
1
1
7.4876
6.03527
2.31051
1
1
1
1
1
1
1
1
1
1
1
1
1
1
1
1
1
7.25837
6.35767
3.53001
0.987589
1
1
1
1
1
1
1
1
1
1
1
1
1
1
1
1
6.93243
6.69193
4.93106
1.17069
1
1
1
1
1
1
1
1
1
1
1
1
1
1
1
1
6.48454
6.62351
6.00548
2.0324
1
1
1
1
1
1
1
1
1
1
1
1
1
1
1
1
6.39001
6.69654
6.68007
3.48344
0.973689
1
1
1
1
1
1
1
1
1
1
1
1
1
1
1
6.41071
6.76644
6.79809
5.05228
1.46195
1
1
1
1
1
1
1
1
1
1
1
1
1
1
1
6.50837
6.79316
6.78147
6.00116
2.80694
0.974588
1.00035
0.999994
1
1
1
1
1
1
1
1
1
1
1
1
6.66114
6.82875
6.81232
6.54119
4.67541
1.37995
0.994738
1.0001
0.999999
1
1
1
1
1
1
1
1
1
1
1
6.81389
6.87407
6.84436
6.71732
6.46978
3.3377
1.03215
0.999338
1
1
1
1
1
1
1
1
1
1
1
1
6.98809
6.92361
6.83422
6.75861
6.75592
5.73601
2.60695
1.01674
1
1
1
1
1
1
1
1
1
1
1
1
6.98102
6.9216
6.87753
6.87987
6.94482
6.77916
5.98668
2.26656
0.658174
1
1
1
1
1
1
1
1
1
1
1
2.32368
3.64067
4.90261
5.71833
6.18417
6.41366
6.5699
6.25114
4.55629
3.21456
2.37325
1.56225
1.07853
0.987322
0.992863
0.996268
0.999161
0.999973
1.00002
1.00001
0.310105
0.868262
1.94241
3.14728
4.20589
4.87152
5.43273
5.89951
5.76373
5.3112
4.87157
4.32841
3.40134
2.32492
1.42225
1.02872
0.989496
0.994994
0.997343
0.999443
0.0350518
0.159936
0.51734
1.17013
2.025
2.8583
3.58001
4.28831
4.80651
4.85661
4.76145
4.75336
4.71024
4.53981
4.0238
3.06052
2.08188
1.32604
1.01691
0.992789
0.0076603
0.0499187
0.171617
0.383172
0.829438
1.39707
1.96063
2.54269
3.14985
3.53938
3.78012
4.01058
4.21528
4.38152
4.46923
4.39263
4.17204
3.636
2.78417
1.8932
0.0073933
0.0194541
0.0600768
0.200408
0.444774
0.718985
1.06276
1.46615
1.90658
2.28419
2.56539
2.84048
3.12085
3.43041
3.76071
3.96958
4.09054
4.13433
4.04084
3.91701
0.013166
0.0129077
0.0191534
0.0905783
0.235666
0.454497
0.67951
0.940811
1.24327
1.53391
1.75659
1.97279
2.19328
2.42922
2.72535
3.00379
3.2688
3.50171
3.64708
3.77728
0.0206138
0.0149148
0.0165268
0.0413622
0.0955863
0.242668
0.373164
0.539181
0.754378
0.965778
1.15311
1.3185
1.48472
1.64719
1.85954
2.09763
2.33468
2.5782
2.78178
2.99641
0.0284945
0.018696
0.0188525
0.0384639
0.061261
0.11558
0.168343
0.240646
0.380154
0.545313
0.714032
0.868365
1.02643
1.16231
1.32883
1.50337
1.67305
1.83085
2.08195
2.07463
0.0386655
0.0245921
0.0231938
0.0405706
0.0614534
0.0971542
0.154701
0.215794
0.304022
0.42932
0.544609
0.655608
0.771382
0.867747
0.968257
1.0756
1.18503
1.30382
1.53179
1.5051
0.0527452
0.0333748
0.0320206
0.0453494
0.0662524
0.101749
0.161661
0.212434
0.278978
0.360905
0.429392
0.496993
0.563921
0.629673
0.681543
0.746873
0.838356
0.950515
1.16474
1.15394
0.0695628
0.0423259
0.0429397
0.0534354
0.06826
0.0990301
0.147262
0.181769
0.219894
0.260404
0.291975
0.331219
0.372422
0.423095
0.475126
0.547734
0.644749
0.744358
0.843465
0.969908
0.084248
0.0492422
0.0426019
0.0522904
0.0616799
0.0795687
0.104534
0.121646
0.141897
0.163548
0.190194
0.225947
0.280111
0.332175
0.386036
0.448264
0.510014
0.574805
0.614209
0.73149
0.092217
0.0527599
0.0409564
0.046029
0.0506487
0.057003
0.0700769
0.0877688
0.112484
0.143678
0.181066
0.20803
0.250451
0.286914
0.323095
0.360265
0.391063
0.42076
0.442406
0.529741
0.0982938
0.0571727
0.0422794
0.0452752
0.0483354
0.0544249
0.0679282
0.0898773
0.117526
0.142377
0.170789
0.188929
0.214155
0.236352
0.251291
0.260701
0.272216
0.285424
0.30956
0.391589
0.102882
0.0658181
0.0481332
0.0471386
0.0505923
0.0583891
0.073103
0.0946876
0.114819
0.12983
0.145993
0.160416
0.166539
0.172232
0.170291
0.173525
0.185372
0.216207
0.254148
0.31545
0.101075
0.0768337
0.0595298
0.0547422
0.0566376
0.0614001
0.0728958
0.088554
0.0976541
0.110105
0.108096
0.114736
0.113348
0.116462
0.125643
0.145218
0.169172
0.195418
0.220355
0.244685
0.0940879
0.0854544
0.0728608
0.0619458
0.0578685
0.0592939
0.0606939
0.0637141
0.0662382
0.0746858
0.0773959
0.0839745
0.0927598
0.105917
0.120889
0.138245
0.156189
0.169422
0.179778
0.179996
0.0863553
0.0858683
0.083197
0.0742721
0.0603441
0.0537722
0.0494982
0.0495566
0.0523078
0.0568971
0.0644349
0.0726527
0.0827444
0.0950497
0.107119
0.11617
0.121575
0.122739
0.122572
0.122379
0.0790211
0.0942821
0.109561
0.129323
0.14846
0.144077
0.132543
0.131484
0.136116
0.127429
0.124669
0.130831
0.146059
0.164561
0.181733
0.177741
0.17037
0.176387
0.186949
0.20321
0.102825
0.208789
0.229478
0.270588
0.331166
0.360632
0.377831
0.41695
0.446143
0.447021
0.452767
0.463119
0.466796
0.470122
0.470308
0.460223
0.467142
0.509473
0.528245
0.533387
0.530675
0.649664
0.716519
0.788458
0.81424
0.86218
0.882512
0.895948
0.887128
0.876087
0.881795
0.913785
0.961686
0.977447
0.963256
0.925834
0.893316
0.881285
0.882315
0.883361
0.244534
0.40434
0.561026
0.677977
0.751644
0.825307
0.863173
0.90021
0.904728
0.901515
0.901577
0.916367
0.946425
0.965374
0.963637
0.94572
0.920908
0.894999
0.885606
0.8803
0.135033
0.162527
0.2473
0.34994
0.521019
0.681859
0.777238
0.852129
0.903261
0.920746
0.920808
0.92122
0.926947
0.93799
0.948085
0.94687
0.939596
0.917541
0.895904
0.877544
0.18502
0.214386
0.232109
0.23857
0.25566
0.325826
0.515281
0.703543
0.835693
0.90256
0.943309
0.928889
0.911491
0.915776
0.930545
0.944566
0.942075
0.924584
0.895781
0.870892
0.236074
0.254309
0.286643
0.302246
0.293966
0.280871
0.295038
0.37395
0.582015
0.804738
0.906506
0.915269
0.902959
0.901762
0.919973
0.944494
0.945752
0.927048
0.888122
0.862967
0.31251
0.320479
0.342287
0.345669
0.329295
0.316687
0.317446
0.319647
0.35037
0.496431
0.738524
0.892871
0.905153
0.901454
0.9059
0.932051
0.942412
0.920569
0.878965
0.859631
0.395999
0.39984
0.401761
0.401014
0.38839
0.368927
0.363961
0.360277
0.353819
0.367841
0.455034
0.68047
0.876974
0.918317
0.905505
0.926366
0.93431
0.911374
0.877052
0.862896
0.513818
0.487337
0.467006
0.461764
0.450868
0.419343
0.398957
0.390717
0.383182
0.377221
0.388228
0.445601
0.646926
0.877401
0.910345
0.933378
0.924938
0.900077
0.884406
0.873842
0.678946
0.601192
0.527088
0.506005
0.507788
0.485759
0.456792
0.436235
0.41357
0.406287
0.404765
0.411783
0.452956
0.638645
0.862007
0.919395
0.901693
0.888281
0.891796
0.881421
0.881797
0.750793
0.620587
0.581173
0.576587
0.563782
0.528306
0.492556
0.444477
0.426609
0.431499
0.430246
0.435458
0.465866
0.635097
0.81288
0.851778
0.881391
0.898611
0.88507
1.26919
0.996484
0.776589
0.632639
0.61883
0.642709
0.637087
0.60065
0.54041
0.49239
0.479482
0.479231
0.476259
0.472539
0.484413
0.559931
0.713155
0.834365
0.87388
0.865268
2.01523
1.51147
1.22146
0.920506
0.771294
0.754317
0.749962
0.708167
0.630726
0.564311
0.534115
0.534888
0.530906
0.516573
0.496165
0.490802
0.513875
0.588818
0.698434
0.800121
2.50511
2.15565
1.73148
1.36727
1.09704
0.89025
0.801574
0.775388
0.735573
0.681352
0.651582
0.631824
0.612431
0.582575
0.551475
0.532267
0.52313
0.512837
0.526338
0.635074
2.36643
2.35045
2.22926
1.92329
1.58566
1.28459
1.02649
0.93379
0.897869
0.84338
0.770593
0.702698
0.659183
0.626176
0.597338
0.593733
0.579285
0.550589
0.525214
0.5236
1.68078
2.15134
2.22157
2.19395
2.05366
1.79034
1.49753
1.21821
1.06847
0.971575
0.867845
0.78913
0.732472
0.699656
0.698969
0.690749
0.660753
0.621441
0.573566
0.523771
1.10837
1.43815
1.85092
2.11579
2.11347
2.0741
1.93339
1.6909
1.42805
1.22816
1.0717
0.990236
0.918176
0.837883
0.79093
0.75134
0.701367
0.656996
0.625939
0.576187
1.0045
1.04448
1.20607
1.55047
1.85869
2.02105
2.01619
1.97585
1.83543
1.61693
1.39647
1.2208
1.08948
0.966309
0.885133
0.817869
0.760563
0.742862
0.726235
0.662582
1.00009
1.00113
1.01045
1.0785
1.26841
1.57062
1.82611
1.93628
1.92854
1.88526
1.77241
1.5771
1.38108
1.2235
1.10155
0.99949
0.921852
0.881836
0.836927
0.73696
1
1.00001
1.00015
1.00247
1.01911
1.09944
1.29024
1.55797
1.76646
1.85704
1.85294
1.81546
1.7143
1.56386
1.37918
1.21926
1.1059
0.988174
0.908685
0.813049
1
1
1
1.00003
1.00033
1.00388
1.02422
1.1094
1.28695
1.52029
1.70574
1.78647
1.78228
1.75666
1.67757
1.53876
1.38788
1.22045
1.09396
0.964114
1
1
1
1
1
1.00005
1.00048
1.00476
1.02699
1.10467
1.2636
1.47569
1.63727
1.72473
1.72303
1.70382
1.64
1.52376
1.3808
1.16119
1
1
1
1
1
1
1
1.00006
1.00058
1.00481
1.02474
1.0952
1.23462
1.4213
1.57488
1.66568
1.66208
1.64181
1.59315
1.42488
1
1
1
1
1
1
1
1
1.00001
1.00006
1.00056
1.00432
1.02196
1.08001
1.19739
1.36946
1.51077
1.59435
1.58903
1.53924
1
1
1
1
1
1
1
1
1
1
1.00001
1.00006
1.0005
1.00343
1.01748
1.06417
1.16539
1.30941
1.43116
1.49446
1
1
1
1
1
1
1
1
1
1
1
1
1.00001
1.00005
1.00041
1.00259
1.01427
1.05057
1.13011
1.31779
1.6253
2.46697
2.58434
2.08298
1.30868
1.03675
1.00187
1.00005
1
1
1
1
1
1
1
2.35141
2.81815
2.52757
1.5403
1.04818
1.00081
1
1
1
1
1
1
1
1
1
2.93432
2.8749
1.98246
1.15273
1.00524
1.00005
1
1
1
1
1
1
1
1
1
3.25721
2.55989
1.36502
1.01902
1.00017
1
1
1
1
1
1
1
1
1
1
3.32181
1.68635
1.0476
1.00054
1
1
1
1
1
1
1
1
1
1
1
2.07314
1.07399
1.00049
0.999998
1
1
1
1
1
1
1
1
1
1
1
1.10347
1.00059
0.999997
1
1
1
1
1
1
1
1
1
1
1
1
0.998118
0.999864
0.999996
1
1
1
1
1
1
1
1
1
1
1
1
0.999967
1
1
1
1
1
1
1
1
1
1
1
1
1
1
1
1
1
1
1
1
1
1
1
1
1
1
1
1
1
1
1
1
1
1
1
1
1
1
1
1
1
1
1
1
1
1
1
1
1
1
1
1
1
1
1
1
1
1
1
1
1
1
1
1
1
1
1
1
1
1
1
1
1
1
1
1
1
1
1
1
1
1
1
1
1
1
1
1
1
1
1
1
1
1
1
1
1
1
1
1
1
1
1
1
1
1
1
1
1
1
1
1
1
1
1
1
1
1
1
1
1
1
1
1
1
1
1
1
1
1
1
1
1
1
1
1
1
1
1
1
1
1
1
1
1
1
1
1
1
1
1
1
1
1
1
1
1
1
1
1
1
1
1
1
1
1
1
1
1
1
1
1
1
1
1
1
1
1
1
1
1
1
1
1
1
1
1
1
1
1
1
1
1
1
1
1
1
1
1
1
1
1
1
1
1
1
1
1
1
1
1
1
1
1
1
1
1
1
1
1
1
1
1
1
1
1
1
1
1
1
1
1
1
1
1
1
1
1
1
1
1
1
1
1
1
1
1
1
1
1
1
1
1
1
1
1
1
1
1
1
1
1
1
1
1
1
1
1
1
1
1
1
1
1
1
1
1
1
1
1
1
1
1
1
1
1
1
1
1
1
1
1
1
1
1
1
1
1
1
1
1
1
1
1
1
1
1
1
1
1
1
1
1
1
1
1
1
1
1
1
1
1
1
1
1
1
1
1
1
1
1
1
1
1
1
1
1
1
1
1
1
1
1
1
1
1
1
1
1
1
1
1
1
1
1
1
1
1
1
1
1
1
1
1
1
1
1
1
1
1
1
1
1
1
1
1
1
1
1
1
1
1
1
1
1
1
1
1
1
1
1
1
1
1
1
1
1
1
1
1
1
1
1
1
1
1
1
1
1
1
1
1
1
1
1
1
1
1
1
1
1
1
1
1
1
1
1
1
1
1
1
1
1
1
1
1
1
1
1
1
1
1
1
1
1
1
1
1
1
1
1
1
1
1
1
1
1
1
1
1
1
1
1
1
1
1
1
1
1
1
1
1
1
1
1
1
1
1
1
1
1
1
1
1
1
1
1
1
1
1
1
1
1
1
1
1
1
1
1
1
1
1
1
1
1
1
1
1
1
1
1
1
1
1
1
1
1
1
1
1
1
1
1
1
1
1
1
1
1
1
1
1
1
1
1
1
1
1
1
1
1
1
1
1
1
1
1
1
1
1
1
1
1
1
1
1
1
1
1
1
1
1
1
1
1
1
1
1
1
1
1
1
1
1
1
1
1
1
1
1
1
1
1
1
1
1
1
1
1
1
1
1
1
1
1
1
1
1
1
1
1
1
1
1
1
1
1
1
1
1
1
1
1
1
1
1
1
1
1
1
1
1
1
1
1
1
1
1
1
1
1
1
1
1
1
1
1
1
1
1
1
1
1
1
1
1
1
1
1
1
1
1
1
1
1
1
1
1
1
1
1
1
1
1
1
1
1
1
1
1
1
1
1
1
1
1
1
1
1
1
1
1
1
1
1
1
1
1
1
1
1
1
1
1
1
1
1
1
1
1
1
1
1
1
1
1
1
1
1
1
1
1
1
1
1
1
1
1
1
1
1
1
1
1
1
1
1
1
1
1
1
1
1
1
1
1
1
1
1
1
1
1
1
1
1
1
1
1
1
1
1
1
1
1
1
1
1
1
1
1
1
1
1
1
1
1
1
1
1
1
1
1
1
1
1
1
1
1
1
1
1
1
1
1
1
1
1
1
1
1
1
1
1
1
1
1
1
1
1
1
1
1
1
1
1
1
1
1
1
1
1
1
1
1
1
1
1
1
1
1
1
1
1
1
1
1
1
1
1
1
1
1
1
1
1
1
1
1
1
1
1
1
1
1
0.999967
1
1
1
1
1
1
1
1
1
1
1
1
1
1
0.998113
0.999863
0.999996
1
1
1
1
1
1
1
1
1
1
1
1
1.10365
1.00059
0.999997
1
1
1
1
1
1
1
1
1
1
1
1
2.07398
1.07412
1.0005
0.999998
1
1
1
1
1
1
1
1
1
1
1
3.32234
1.68692
1.04761
1.00053
1
1
1
1
1
1
1
1
1
1
1
3.25722
2.56002
1.36528
1.01906
1.00018
1
1
1
1
1
1
1
1
1
1
2.93446
2.87455
1.98207
1.15266
1.00524
1.00005
1
1
1
1
1
1
1
1
1
2.3514
2.81814
2.52729
1.54004
1.04814
1.00081
1
1
1
1
1
1
1
1
1
1.62528
2.46718
2.58422
2.08276
1.30857
1.03674
1.00187
1.00005
1
1
1
1
1
1
1
1.27047
2.01468
2.50486
2.36624
1.68063
1.10833
1.0045
1.00009
1
1
1
1
1
1
1
0.99032
1.51813
2.15447
2.35029
2.15154
1.43825
1.0445
1.00113
1.00001
1
1
1
1
1
1
0.766074
1.21651
1.73215
2.22981
2.22158
1.85105
1.20616
1.01046
1.00015
1
1
1
1
1
1
0.633972
0.909136
1.36899
1.92309
2.19384
2.11576
1.55056
1.07853
1.00247
1.00003
1
1
1
1
1
0.625625
0.768225
1.09886
1.58715
2.05341
2.11339
1.85871
1.26842
1.01911
1.00033
1
1
1
1
1
0.64514
0.758532
0.889536
1.28567
1.7899
2.074
2.02097
1.57064
1.09945
1.00388
1.00005
1
1
1
1
0.638179
0.754482
0.798919
1.02521
1.49712
1.93334
2.01612
1.82602
1.29024
1.02422
1.00049
1
1
1
1
0.599331
0.71003
0.772887
0.931796
1.21814
1.69073
1.97583
1.93629
1.55794
1.10939
1.00476
1.00006
1
1
1
0.535527
0.630655
0.734434
0.896331
1.069
1.42807
1.83539
1.92855
1.7665
1.28694
1.02699
1.00058
1.00001
1
1
0.488338
0.563983
0.68273
0.842789
0.971746
1.22852
1.61681
1.88528
1.85704
1.52032
1.10469
1.00481
1.00006
1
1
0.477458
0.534217
0.654019
0.770477
0.867307
1.07133
1.39668
1.77246
1.85293
1.70572
1.26362
1.02475
1.00056
1.00001
1
0.478277
0.534609
0.633563
0.702616
0.788518
0.990203
1.22094
1.57715
1.81544
1.78648
1.47566
1.09519
1.00432
1.00006
1
0.475845
0.530794
0.61298
0.658919
0.732266
0.918485
1.08944
1.38117
1.71433
1.78228
1.63724
1.23458
1.02195
1.0005
1.00001
0.473131
0.51614
0.582463
0.625539
0.699904
0.838105
0.966106
1.22368
1.56396
1.75669
1.72477
1.4213
1.08
1.00343
1.00005
0.484615
0.495259
0.551446
0.597155
0.698957
0.790744
0.884851
1.10175
1.37927
1.67763
1.72306
1.5749
1.1974
1.01748
1.00041
0.560068
0.490279
0.532062
0.59407
0.690771
0.7513
0.817948
0.999724
1.219
1.53866
1.70386
1.66571
1.36948
1.06418
1.00259
0.712984
0.513017
0.521856
0.580089
0.660821
0.700923
0.759729
0.922113
1.10607
1.38773
1.63997
1.6621
1.51079
1.1654
1.01427
0.834483
0.587866
0.512336
0.551803
0.621699
0.656671
0.742154
0.881353
0.988508
1.22081
1.52368
1.64182
1.59437
1.30943
1.05057
0.873535
0.697617
0.525863
0.525634
0.574093
0.626058
0.726311
0.836497
0.908501
1.09417
1.3809
1.59317
1.58906
1.4312
1.13012
0.864654
0.80005
0.634705
0.523472
0.523919
0.576373
0.663268
0.737169
0.812711
0.963922
1.16131
1.42497
1.53929
1.49451
1.31781
0.878401
0.751504
0.627568
0.593531
0.580768
0.550165
0.513677
0.481874
0.441588
0.426395
0.4319
0.430103
0.435161
0.465292
0.634036
0.812791
0.853353
0.882315
0.898041
0.884201
0.682398
0.604178
0.537531
0.521489
0.51426
0.485908
0.457075
0.440605
0.420465
0.406668
0.403627
0.411096
0.453432
0.638605
0.862004
0.918516
0.902546
0.889547
0.891605
0.880598
0.520554
0.493339
0.468966
0.458675
0.44611
0.420135
0.400566
0.395717
0.388253
0.379021
0.389124
0.446033
0.649689
0.879973
0.91179
0.932896
0.924954
0.900825
0.884578
0.873166
0.396102
0.402826
0.402687
0.399442
0.386704
0.368229
0.364
0.361398
0.355517
0.369224
0.452979
0.67898
0.877023
0.920902
0.906751
0.925206
0.933254
0.911019
0.877694
0.862455
0.313014
0.318748
0.346363
0.346945
0.332849
0.319085
0.319139
0.32114
0.351231
0.495293
0.732649
0.889378
0.903334
0.903234
0.90693
0.930339
0.941319
0.920213
0.87955
0.859728
0.23523
0.257894
0.278606
0.293146
0.285401
0.278013
0.292525
0.373348
0.582932
0.805716
0.905608
0.911493
0.899797
0.902718
0.921663
0.944709
0.945005
0.926672
0.888458
0.863342
0.184118
0.215312
0.243803
0.241858
0.259429
0.330762
0.511494
0.703143
0.842147
0.905511
0.942061
0.92495
0.907896
0.91507
0.932679
0.945618
0.942279
0.924651
0.897042
0.871595
0.135914
0.15963
0.222662
0.342017
0.536279
0.686692
0.768356
0.853941
0.908724
0.924522
0.923819
0.922476
0.927056
0.938484
0.950226
0.948936
0.939877
0.917323
0.89525
0.87793
0.336969
0.430193
0.540237
0.67
0.751016
0.818834
0.857984
0.897723
0.90622
0.906423
0.906023
0.915689
0.939402
0.961084
0.962467
0.949283
0.923334
0.896472
0.886769
0.87942
0.569301
0.641483
0.709747
0.784665
0.812056
0.852067
0.879129
0.906447
0.903363
0.893227
0.893985
0.91552
0.959024
0.980804
0.97214
0.940326
0.897334
0.880508
0.881891
0.883315
)
;

boundaryField
{
    inlet
    {
        type            fixedValue;
        value           uniform 1;
    }
    outlet
    {
        type            zeroGradient;
    }
    airfoil
    {
        type            zeroGradient;
    }
    top
    {
        type            symmetryPlane;
    }
    bottom
    {
        type            symmetryPlane;
    }
    defaultFaces
    {
        type            empty;
    }
}


// ************************************************************************* //
