/*--------------------------------*- C++ -*----------------------------------*\
  =========                 |
  \\      /  F ield         | OpenFOAM: The Open Source CFD Toolbox
   \\    /   O peration     | Website:  https://openfoam.org
    \\  /    A nd           | Version:  7
     \\/     M anipulation  |
\*---------------------------------------------------------------------------*/
FoamFile
{
    version     2.0;
    format      ascii;
    class       volScalarField;
    location    "2.7";
    object      p;
}
// * * * * * * * * * * * * * * * * * * * * * * * * * * * * * * * * * * * * * //

dimensions      [1 -1 -2 0 0 0 0];

internalField   nonuniform List<scalar> 
3700
(
0.140894
0.21517
0.255848
0.291591
0.301075
0.319593
0.348816
0.388016
0.421805
0.431546
0.446529
0.454635
0.477326
0.504795
0.509024
0.519293
0.535652
0.532973
0.509176
0.480299
0.103656
0.0931811
0.107397
0.119238
0.110525
0.112973
0.123855
0.136851
0.133679
0.123232
0.121678
0.12457
0.13668
0.162147
0.19843
0.237458
0.276517
0.285491
0.264098
0.209686
0.113452
0.0898508
0.0828342
0.0740862
0.0635646
0.0594467
0.054834
0.0554643
0.0582573
0.0620144
0.0628272
0.0664173
0.0731869
0.0836728
0.0953492
0.106362
0.116462
0.122505
0.126661
0.127867
0.115717
0.088336
0.0709134
0.0585984
0.0551476
0.0589194
0.0623725
0.0742065
0.0851471
0.0953693
0.0910178
0.0952917
0.0966184
0.101992
0.111959
0.124519
0.139829
0.156565
0.172966
0.186763
0.109884
0.0765166
0.0542214
0.0468814
0.0469181
0.0532152
0.0625117
0.0838101
0.102468
0.113132
0.1243
0.137834
0.136542
0.138253
0.137861
0.140844
0.1525
0.175918
0.201608
0.23896
0.0971173
0.0672202
0.0454291
0.0419622
0.0438379
0.0491753
0.0581446
0.0818368
0.104665
0.121984
0.144299
0.161187
0.180694
0.198079
0.204914
0.205057
0.210272
0.218081
0.23604
0.295213
0.0836378
0.0625961
0.0433561
0.0409938
0.0456247
0.050005
0.0592396
0.0797231
0.0998934
0.121413
0.152164
0.174121
0.207209
0.236547
0.262821
0.285302
0.303391
0.316395
0.327726
0.387822
0.0748957
0.0568483
0.0432871
0.044957
0.0548574
0.066652
0.0886552
0.109187
0.11666
0.128042
0.152824
0.179892
0.224184
0.265712
0.30756
0.353728
0.394297
0.436967
0.460734
0.545993
0.0629357
0.0459143
0.0417594
0.047968
0.060054
0.0869918
0.130375
0.160653
0.175129
0.195252
0.211016
0.231867
0.262359
0.306977
0.358384
0.422079
0.49235
0.566552
0.622614
0.745793
0.0450539
0.0336977
0.0373863
0.0434231
0.0557649
0.0923729
0.146291
0.183616
0.22601
0.281295
0.319741
0.361671
0.404637
0.452533
0.492136
0.545823
0.62274
0.722257
0.831829
0.968511
0.0308952
0.0246144
0.0314253
0.0386815
0.0470917
0.0884903
0.142308
0.177177
0.245455
0.338461
0.409782
0.483957
0.563833
0.635308
0.701117
0.775362
0.856496
0.949809
1.14837
1.13869
0.0214831
0.0185931
0.0282588
0.0371044
0.0450149
0.0877126
0.135397
0.171941
0.260335
0.385716
0.506459
0.619641
0.740948
0.840998
0.958589
1.08345
1.20957
1.32726
1.54219
1.50279
0.016289
0.0147332
0.025053
0.0374187
0.0508789
0.143243
0.213352
0.318714
0.477753
0.618288
0.767578
0.89397
1.02492
1.14346
1.29867
1.48576
1.67763
1.85511
2.10309
2.08573
0.0131925
0.0127113
0.0224531
0.0469563
0.113452
0.283607
0.416564
0.597692
0.812831
1.02936
1.20764
1.36553
1.5192
1.66598
1.85583
2.08167
2.32753
2.58517
2.80461
3.00168
0.0112345
0.012921
0.0361031
0.10102
0.24392
0.428363
0.629918
0.883831
1.17067
1.48492
1.7331
1.96356
2.18136
2.41423
2.70211
2.98611
3.26634
3.52317
3.66989
3.78594
0.00844433
0.0251143
0.083979
0.19344
0.42481
0.660599
1.0011
1.39299
1.85963
2.25134
2.5572
2.84431
3.1208
3.4195
3.73313
3.94428
4.08173
4.14123
4.05149
3.92802
0.0071447
0.0480076
0.171029
0.362323
0.822864
1.433
2.0082
2.58398
3.17616
3.56747
3.79535
4.02681
4.22923
4.38027
4.46709
4.39185
4.17582
3.64875
2.79919
1.90187
0.029918
0.154177
0.488003
1.18919
2.06504
2.88646
3.58069
4.28393
4.79336
4.82683
4.74722
4.74296
4.69785
4.52327
4.01044
3.05603
2.0867
1.33193
1.01853
0.992772
0.308234
0.869677
1.97632
3.15393
4.22154
4.89895
5.4554
5.88797
5.73925
5.28492
4.85471
4.31454
3.39375
2.32269
1.42119
1.02791
0.989388
0.994923
0.997307
0.999433
2.31288
3.62776
4.86076
5.69772
6.24054
6.49129
6.60578
6.25919
4.54412
3.20281
2.35908
1.55292
1.0769
0.987299
0.992903
0.996305
0.999176
0.999975
1.00002
1.00001
6.95011
6.89769
6.84364
6.89457
7.04693
6.86399
5.99339
2.25696
0.659103
1
1
1
1
1
1
1
1
1
1
1
6.95422
6.89834
6.77866
6.68757
6.74438
5.77975
2.61231
1.01751
1
1
1
1
1
1
1
1
1
1
1
1
6.82788
6.87486
6.8424
6.64339
6.27092
3.36176
1.04894
0.998983
1
1
1
1
1
1
1
1
1
1
1
1
6.68745
6.85694
6.84613
6.62135
4.75113
1.40158
0.99377
1.00012
0.999999
1
1
1
1
1
1
1
1
1
1
1
6.5419
6.8087
6.80791
6.0672
2.71694
0.975554
1.00036
0.999994
1
1
1
1
1
1
1
1
1
1
1
1
6.43604
6.75743
6.76226
4.97457
1.49414
1
1
1
1
1
1
1
1
1
1
1
1
1
1
1
6.39628
6.70199
6.72309
3.56776
0.972754
1
1
1
1
1
1
1
1
1
1
1
1
1
1
1
6.54449
6.64973
6.01392
2.0397
1
1
1
1
1
1
1
1
1
1
1
1
1
1
1
1
6.99913
6.71394
4.88261
1.1581
1
1
1
1
1
1
1
1
1
1
1
1
1
1
1
1
7.24256
6.33899
3.46474
0.987989
1
1
1
1
1
1
1
1
1
1
1
1
1
1
1
1
7.41351
6.00448
2.29275
1
1
1
1
1
1
1
1
1
1
1
1
1
1
1
1
1
7.46022
5.37689
1.63383
1
1
1
1
1
1
1
1
1
1
1
1
1
1
1
1
1
7.50274
4.78914
1.18043
1
1
1
1
1
1
1
1
1
1
1
1
1
1
1
1
1
7.3807
4.01805
1.01671
1
1
1
1
1
1
1
1
1
1
1
1
1
1
1
1
1
7.29109
3.1658
1
1
1
1
1
1
1
1
1
1
1
1
1
1
1
1
1
1
6.91961
2.455
1
1
1
1
1
1
1
1
1
1
1
1
1
1
1
1
1
1
6.60886
1.88645
1
1
1
1
1
1
1
1
1
1
1
1
1
1
1
1
1
1
6.33185
1.38663
1
1
1
1
1
1
1
1
1
1
1
1
1
1
1
1
1
1
5.76529
1.00672
1
1
1
1
1
1
1
1
1
1
1
1
1
1
1
1
1
1
4.62369
1.00007
1
1
1
1
1
1
1
1
1
1
1
1
1
1
1
1
1
1
4.62188
1.00007
1
1
1
1
1
1
1
1
1
1
1
1
1
1
1
1
1
1
5.77155
1.00676
1
1
1
1
1
1
1
1
1
1
1
1
1
1
1
1
1
1
6.3271
1.38691
1
1
1
1
1
1
1
1
1
1
1
1
1
1
1
1
1
1
6.61363
1.88481
1
1
1
1
1
1
1
1
1
1
1
1
1
1
1
1
1
1
6.91424
2.45686
1
1
1
1
1
1
1
1
1
1
1
1
1
1
1
1
1
1
7.293
3.16412
1
1
1
1
1
1
1
1
1
1
1
1
1
1
1
1
1
1
7.38267
4.01804
1.01694
1
1
1
1
1
1
1
1
1
1
1
1
1
1
1
1
1
7.50163
4.78806
1.18101
1
1
1
1
1
1
1
1
1
1
1
1
1
1
1
1
1
7.45753
5.37607
1.63371
1
1
1
1
1
1
1
1
1
1
1
1
1
1
1
1
1
7.41085
6.00551
2.29295
1
1
1
1
1
1
1
1
1
1
1
1
1
1
1
1
1
7.24187
6.34054
3.46739
0.987972
1
1
1
1
1
1
1
1
1
1
1
1
1
1
1
1
6.99982
6.71544
4.88555
1.15862
1
1
1
1
1
1
1
1
1
1
1
1
1
1
1
1
6.54412
6.64978
6.01383
2.04162
1
1
1
1
1
1
1
1
1
1
1
1
1
1
1
1
6.39632
6.70169
6.72145
3.56509
0.972774
1
1
1
1
1
1
1
1
1
1
1
1
1
1
1
6.43496
6.75671
6.76222
4.97573
1.49405
1
1
1
1
1
1
1
1
1
1
1
1
1
1
1
6.53983
6.80883
6.80811
6.06915
2.72238
0.97545
1.00036
0.999994
1
1
1
1
1
1
1
1
1
1
1
1
6.68649
6.85697
6.84614
6.61902
4.75504
1.40363
0.993781
1.00012
0.999999
1
1
1
1
1
1
1
1
1
1
1
6.827
6.87435
6.84173
6.64094
6.27269
3.3567
1.04803
0.999016
1
1
1
1
1
1
1
1
1
1
1
1
6.95501
6.89787
6.77743
6.68521
6.74651
5.78611
2.60892
1.01703
1
1
1
1
1
1
1
1
1
1
1
1
6.95303
6.89918
6.84401
6.89309
7.04729
6.86669
5.99238
2.26064
0.657849
1
1
1
1
1
1
1
1
1
1
1
2.31453
3.62953
4.86713
5.70481
6.24664
6.49364
6.60121
6.25561
4.53989
3.20026
2.35832
1.55336
1.07726
0.987322
0.992906
0.996306
0.999176
0.999975
1.00002
1.00001
0.306309
0.866672
1.96461
3.14206
4.22209
4.90599
5.46284
5.89017
5.73974
5.28351
4.8534
4.31393
3.3942
2.32352
1.42166
1.02797
0.989385
0.994921
0.997307
0.999433
0.0320897
0.152572
0.494117
1.19004
2.06755
2.88911
3.58114
4.2823
4.79829
4.82741
4.74838
4.74241
4.69653
4.52211
4.01031
3.0562
2.08685
1.33202
1.01856
0.992776
0.00907004
0.0580194
0.171878
0.357873
0.806227
1.42762
2.00936
2.5871
3.17887
3.56774
3.7972
4.02889
4.22988
4.37936
4.46598
4.39095
4.17535
3.64864
2.79928
1.90186
0.00829882
0.0294145
0.0804176
0.191169
0.421278
0.648484
0.995903
1.38974
1.85629
2.24908
2.55693
2.84524
3.12097
3.41788
3.73067
3.9426
4.08109
4.14145
4.05188
3.92842
0.00982122
0.0133071
0.0343305
0.108265
0.248262
0.424055
0.620176
0.877999
1.16807
1.48289
1.73245
1.96372
2.18082
2.41295
2.70043
2.98497
3.26634
3.52403
3.67081
3.7866
0.0132786
0.0127171
0.0226212
0.0539045
0.119517
0.288743
0.416377
0.595903
0.812059
1.03061
1.20961
1.36712
1.52032
1.66663
1.85611
2.08205
2.3284
2.58643
2.80608
3.00277
0.0178528
0.0152151
0.0233601
0.038858
0.0574251
0.150583
0.219598
0.324748
0.480844
0.619284
0.767752
0.894271
1.02536
1.14356
1.29833
1.48559
1.67781
1.85546
2.10316
2.08536
0.0248077
0.0184588
0.0234
0.0373009
0.0511043
0.0901169
0.136039
0.171238
0.258144
0.381524
0.503197
0.617859
0.74029
0.840832
0.958594
1.08342
1.20938
1.32691
1.54144
1.50203
0.035649
0.0238348
0.0249681
0.0385464
0.0532547
0.08923
0.141791
0.173513
0.241938
0.335836
0.407985
0.483137
0.563211
0.634573
0.700273
0.774553
0.856034
0.949447
1.148
1.13815
0.0508331
0.0329635
0.0325666
0.0434204
0.0609522
0.0922906
0.145927
0.180193
0.223395
0.280579
0.319697
0.361896
0.40473
0.452144
0.491593
0.545447
0.622516
0.721804
0.831196
0.967712
0.0689651
0.0468017
0.0411469
0.0479124
0.061942
0.0868676
0.130347
0.159133
0.174356
0.196501
0.213224
0.232063
0.260388
0.304834
0.357241
0.421582
0.491889
0.566206
0.62231
0.745996
0.0812201
0.0586197
0.0431693
0.045422
0.0558447
0.066545
0.0889685
0.109646
0.118156
0.127884
0.149604
0.177011
0.222831
0.265183
0.307226
0.353426
0.39417
0.436858
0.461109
0.547595
0.0907451
0.0639912
0.0433792
0.0420534
0.0456434
0.0492551
0.0588307
0.0778769
0.0963983
0.116391
0.149135
0.173374
0.207911
0.237605
0.263706
0.28581
0.303838
0.316805
0.328982
0.390158
0.102725
0.0687022
0.0461142
0.0426511
0.043677
0.0481344
0.0572321
0.0783823
0.100584
0.119585
0.144314
0.162443
0.182622
0.199859
0.206813
0.206977
0.212331
0.220221
0.237957
0.296185
0.114154
0.0788043
0.0554641
0.0468631
0.0465988
0.0517907
0.0613093
0.0814379
0.101121
0.115116
0.127171
0.139826
0.138464
0.140079
0.139764
0.142742
0.154021
0.176951
0.201776
0.237998
0.119495
0.0895793
0.0709398
0.0581777
0.0553025
0.0588963
0.0624977
0.0752538
0.0873867
0.0991604
0.0934068
0.0965953
0.0964251
0.100827
0.11099
0.124007
0.139415
0.155788
0.171664
0.184869
0.116304
0.0907135
0.0834204
0.0741435
0.0641036
0.0604473
0.0568801
0.0578888
0.0603047
0.0639499
0.063138
0.0655097
0.0707307
0.0807769
0.0927613
0.104006
0.114378
0.120697
0.125237
0.125945
0.107282
0.0986505
0.107298
0.120348
0.137624
0.13572
0.127517
0.13385
0.152549
0.162943
0.16212
0.157221
0.154171
0.150325
0.142061
0.141438
0.148241
0.161374
0.186359
0.209548
0.133813
0.22346
0.250881
0.286365
0.33063
0.347843
0.351079
0.380088
0.42496
0.445278
0.456186
0.458632
0.462944
0.465977
0.452768
0.452495
0.492401
0.514366
0.518372
0.525982
0.54457
0.645857
0.706744
0.787474
0.819094
0.868573
0.886626
0.887742
0.873773
0.869828
0.874332
0.889948
0.899826
0.888752
0.870126
0.844498
0.821511
0.802482
0.797979
0.810286
0.259128
0.401331
0.539857
0.670288
0.751691
0.830022
0.866511
0.899296
0.897334
0.894442
0.890861
0.890669
0.890329
0.88173
0.871912
0.857736
0.841145
0.817526
0.802631
0.809802
0.134976
0.158938
0.233821
0.34087
0.516303
0.680272
0.781763
0.85577
0.908933
0.912839
0.906731
0.891919
0.871103
0.861923
0.860758
0.858725
0.855717
0.847507
0.823013
0.815597
0.188952
0.216309
0.242337
0.238117
0.249815
0.317901
0.505572
0.708258
0.845328
0.909098
0.922731
0.90143
0.860891
0.843583
0.845484
0.859718
0.860822
0.86269
0.843912
0.820106
0.243385
0.258278
0.283718
0.296079
0.287065
0.279861
0.292769
0.377731
0.610436
0.832498
0.887014
0.888458
0.86198
0.830784
0.832733
0.855069
0.868302
0.873045
0.858074
0.824426
0.313181
0.32552
0.344151
0.339305
0.319715
0.314633
0.315957
0.320252
0.362227
0.526571
0.74446
0.871709
0.863414
0.832272
0.816749
0.828495
0.850361
0.864857
0.852576
0.824444
0.390561
0.405138
0.409775
0.398235
0.371438
0.367183
0.36454
0.360675
0.36258
0.380192
0.469576
0.669126
0.83813
0.840869
0.82168
0.810167
0.81784
0.846024
0.841825
0.824424
0.506433
0.490776
0.48976
0.471707
0.438117
0.413836
0.399031
0.39232
0.387539
0.38525
0.392631
0.435074
0.599186
0.77502
0.824957
0.808353
0.800335
0.819637
0.82944
0.82673
0.670048
0.600626
0.566078
0.537927
0.506707
0.472633
0.449456
0.434698
0.419197
0.406932
0.406254
0.414435
0.435916
0.542337
0.718996
0.810996
0.793204
0.804645
0.809955
0.823569
0.873289
0.734161
0.65505
0.621989
0.585383
0.543383
0.506889
0.475323
0.437222
0.42714
0.429205
0.431563
0.437848
0.4348
0.498884
0.683205
0.766302
0.794278
0.788261
0.814162
1.27944
0.964639
0.752523
0.652608
0.642804
0.652662
0.63911
0.581286
0.520552
0.488155
0.478777
0.479414
0.470105
0.454772
0.441418
0.472468
0.599946
0.716507
0.740338
0.791468
2.02781
1.52535
1.18304
0.89461
0.786434
0.779728
0.76321
0.701575
0.616282
0.560868
0.540084
0.521406
0.511723
0.493651
0.480875
0.45846
0.461801
0.512623
0.621618
0.744609
2.50562
2.16638
1.72925
1.3617
1.09615
0.88802
0.81277
0.777261
0.73096
0.689897
0.66007
0.618734
0.580939
0.558839
0.532869
0.505369
0.482497
0.455022
0.471636
0.587104
2.36717
2.35137
2.23175
1.92486
1.58949
1.27002
1.03293
0.945103
0.891303
0.847945
0.787387
0.709874
0.636128
0.601295
0.572295
0.538845
0.513613
0.4881
0.481511
0.488146
1.68321
2.14792
2.22048
2.1933
2.05823
1.79477
1.48636
1.24099
1.05792
0.955303
0.879436
0.801743
0.738525
0.701662
0.653877
0.59985
0.576059
0.552464
0.514999
0.504478
1.10868
1.43898
1.84862
2.11353
2.11311
2.07547
1.93182
1.69154
1.43739
1.21769
1.07087
0.976786
0.921831
0.85489
0.765655
0.664391
0.625739
0.601917
0.568232
0.540955
1.00451
1.04449
1.20622
1.54619
1.86152
2.0209
2.01499
1.9679
1.84252
1.62255
1.39138
1.21898
1.07552
0.952077
0.870826
0.795172
0.72141
0.655712
0.599368
0.586854
1.00009
1.00112
1.01046
1.07841
1.26631
1.5701
1.82149
1.93321
1.929
1.88723
1.76724
1.58651
1.37453
1.1679
1.06597
0.982177
0.874728
0.797728
0.719068
0.671876
1
1.00001
1.00014
1.00253
1.01844
1.09944
1.29111
1.55356
1.76957
1.85936
1.85247
1.81209
1.70482
1.53184
1.34947
1.17704
1.00507
0.928444
0.86385
0.784459
1
1
1
1.00003
1.00031
1.00392
1.02432
1.10926
1.28472
1.52183
1.71078
1.78134
1.76853
1.72442
1.62816
1.4894
1.32533
1.16909
1.05255
0.93888
1
1
1
1
1
1.00005
1.00049
1.00476
1.02638
1.10482
1.26999
1.47578
1.63332
1.6853
1.66241
1.61403
1.53755
1.43267
1.33051
1.18517
1
1
1
1
1
1
1
1.00006
1.0006
1.00465
1.02638
1.09667
1.23323
1.39649
1.52052
1.55995
1.53772
1.48958
1.43449
1.33486
1
1
1
1
1
1
1
1
1.00001
1.00006
1.00063
1.00424
1.02219
1.07193
1.16854
1.28569
1.37444
1.40683
1.39457
1.33633
1
1
1
1
1
1
1
1
1
1
1.00001
1.00006
1.00048
1.00283
1.01316
1.04069
1.09346
1.15427
1.20508
1.21297
1
1
1
1
1
1
1
1
1
1
1
1
1
1.00003
1.00024
1.00125
1.00501
1.01416
1.03039
1.04685
1.61944
2.46117
2.58306
2.08363
1.30896
1.03681
1.00187
1.00005
1
1
1
1
1
1
1
2.34734
2.81352
2.52476
1.53926
1.04803
1.0008
1
1
1
1
1
1
1
1
1
2.93137
2.8691
1.97926
1.15273
1.00525
1.00005
1
1
1
1
1
1
1
1
1
3.25266
2.55675
1.36568
1.01937
1.00019
1
1
1
1
1
1
1
1
1
1
3.32241
1.6841
1.04701
1.0005
1
1
1
1
1
1
1
1
1
1
1
2.07547
1.07375
1.0005
0.999999
1
1
1
1
1
1
1
1
1
1
1
1.10451
1.0006
0.999997
1
1
1
1
1
1
1
1
1
1
1
1
0.998111
0.999863
0.999996
1
1
1
1
1
1
1
1
1
1
1
1
0.999966
1
1
1
1
1
1
1
1
1
1
1
1
1
1
1
1
1
1
1
1
1
1
1
1
1
1
1
1
1
1
1
1
1
1
1
1
1
1
1
1
1
1
1
1
1
1
1
1
1
1
1
1
1
1
1
1
1
1
1
1
1
1
1
1
1
1
1
1
1
1
1
1
1
1
1
1
1
1
1
1
1
1
1
1
1
1
1
1
1
1
1
1
1
1
1
1
1
1
1
1
1
1
1
1
1
1
1
1
1
1
1
1
1
1
1
1
1
1
1
1
1
1
1
1
1
1
1
1
1
1
1
1
1
1
1
1
1
1
1
1
1
1
1
1
1
1
1
1
1
1
1
1
1
1
1
1
1
1
1
1
1
1
1
1
1
1
1
1
1
1
1
1
1
1
1
1
1
1
1
1
1
1
1
1
1
1
1
1
1
1
1
1
1
1
1
1
1
1
1
1
1
1
1
1
1
1
1
1
1
1
1
1
1
1
1
1
1
1
1
1
1
1
1
1
1
1
1
1
1
1
1
1
1
1
1
1
1
1
1
1
1
1
1
1
1
1
1
1
1
1
1
1
1
1
1
1
1
1
1
1
1
1
1
1
1
1
1
1
1
1
1
1
1
1
1
1
1
1
1
1
1
1
1
1
1
1
1
1
1
1
1
1
1
1
1
1
1
1
1
1
1
1
1
1
1
1
1
1
1
1
1
1
1
1
1
1
1
1
1
1
1
1
1
1
1
1
1
1
1
1
1
1
1
1
1
1
1
1
1
1
1
1
1
1
1
1
1
1
1
1
1
1
1
1
1
1
1
1
1
1
1
1
1
1
1
1
1
1
1
1
1
1
1
1
1
1
1
1
1
1
1
1
1
1
1
1
1
1
1
1
1
1
1
1
1
1
1
1
1
1
1
1
1
1
1
1
1
1
1
1
1
1
1
1
1
1
1
1
1
1
1
1
1
1
1
1
1
1
1
1
1
1
1
1
1
1
1
1
1
1
1
1
1
1
1
1
1
1
1
1
1
1
1
1
1
1
1
1
1
1
1
1
1
1
1
1
1
1
1
1
1
1
1
1
1
1
1
1
1
1
1
1
1
1
1
1
1
1
1
1
1
1
1
1
1
1
1
1
1
1
1
1
1
1
1
1
1
1
1
1
1
1
1
1
1
1
1
1
1
1
1
1
1
1
1
1
1
1
1
1
1
1
1
1
1
1
1
1
1
1
1
1
1
1
1
1
1
1
1
1
1
1
1
1
1
1
1
1
1
1
1
1
1
1
1
1
1
1
1
1
1
1
1
1
1
1
1
1
1
1
1
1
1
1
1
1
1
1
1
1
1
1
1
1
1
1
1
1
1
1
1
1
1
1
1
1
1
1
1
1
1
1
1
1
1
1
1
1
1
1
1
1
1
1
1
1
1
1
1
1
1
1
1
1
1
1
1
1
1
1
1
1
1
1
1
1
1
1
1
1
1
1
1
1
1
1
1
1
1
1
1
1
1
1
1
1
1
1
1
1
1
1
1
1
1
1
1
1
1
1
1
1
1
1
1
1
1
1
1
1
1
1
1
1
1
1
1
1
1
1
1
1
1
1
1
1
1
1
1
1
1
1
1
1
1
1
1
1
1
1
1
1
1
1
1
1
1
1
1
1
1
1
1
1
1
1
1
1
1
1
1
1
1
1
1
1
1
1
1
1
1
1
1
1
1
1
1
1
1
1
1
1
1
1
1
1
1
1
1
1
1
1
1
1
1
1
1
1
1
1
1
1
1
1
1
1
1
1
1
1
1
1
1
1
1
1
1
1
1
1
1
1
1
1
1
1
1
1
1
1
1
1
1
1
1
1
1
1
1
1
1
1
1
1
1
1
1
1
1
1
1
1
1
1
1
1
1
1
1
1
1
1
1
1
0.999966
1
1
1
1
1
1
1
1
1
1
1
1
1
1
0.998112
0.999863
0.999996
1
1
1
1
1
1
1
1
1
1
1
1
1.10447
1.0006
0.999997
1
1
1
1
1
1
1
1
1
1
1
1
2.07551
1.07373
1.0005
0.999999
1
1
1
1
1
1
1
1
1
1
1
3.32277
1.68419
1.04702
1.0005
1
1
1
1
1
1
1
1
1
1
1
3.25297
2.55681
1.36568
1.01938
1.00019
1
1
1
1
1
1
1
1
1
1
2.93114
2.86874
1.97895
1.15265
1.00525
1.00005
1
1
1
1
1
1
1
1
1
2.34653
2.81312
2.52472
1.53924
1.04802
1.0008
1
1
1
1
1
1
1
1
1
1.61881
2.46088
2.58308
2.0837
1.30898
1.0368
1.00187
1.00005
1
1
1
1
1
1
1
1.27845
2.02825
2.50617
2.36743
1.68319
1.10863
1.00451
1.00009
1
1
1
1
1
1
1
0.96678
1.5248
2.16621
2.35138
2.1478
1.43894
1.0445
1.00112
1.00001
1
1
1
1
1
1
0.754947
1.18451
1.72845
2.23159
2.22044
1.84868
1.20625
1.01046
1.00014
1
1
1
1
1
1
0.651452
0.8965
1.36199
1.9246
2.1932
2.11351
1.54621
1.07841
1.00253
1.00003
1
1
1
1
1
0.640446
0.786862
1.09708
1.58899
2.05814
2.11306
1.86142
1.26629
1.01844
1.00031
1
1
1
1
1
0.651461
0.77885
0.888699
1.27072
1.79471
2.0754
2.02086
1.57003
1.09944
1.00392
1.00005
1
1
1
1
0.638462
0.76218
0.81167
1.03333
1.48686
1.93198
2.01501
1.8215
1.29107
1.02432
1.00049
1
1
1
1
0.582284
0.701201
0.776544
0.945272
1.24091
1.69166
1.96796
1.93327
1.55359
1.10925
1.00476
1.00006
1
1
1
0.522459
0.61633
0.730654
0.891459
1.0574
1.43734
1.84257
1.92903
1.7696
1.28477
1.02638
1.0006
1.00001
1
1
0.489157
0.56072
0.689261
0.847986
0.95552
1.21793
1.62243
1.88722
1.85934
1.52189
1.10486
1.00465
1.00006
1
1
0.478706
0.54023
0.659877
0.787349
0.879428
1.07091
1.39139
1.76717
1.85245
1.71078
1.27001
1.02638
1.00063
1.00001
1
0.479317
0.521517
0.619267
0.709986
0.801233
0.976382
1.219
1.58643
1.81212
1.7814
1.47579
1.09666
1.00424
1.00006
1
0.470269
0.511642
0.581368
0.636814
0.738429
0.921519
1.07557
1.37475
1.70485
1.7686
1.63336
1.23321
1.02219
1.00048
1
0.45489
0.493572
0.558725
0.601622
0.702249
0.855172
0.952022
1.16798
1.53189
1.72452
1.68537
1.3965
1.07192
1.00283
1.00003
0.441372
0.480749
0.532373
0.57198
0.654523
0.766311
0.870561
1.06585
1.34962
1.62828
1.66247
1.52056
1.16854
1.01316
1.00024
0.471828
0.458354
0.504827
0.538278
0.599552
0.664579
0.795243
0.982175
1.17771
1.48953
1.61406
1.55997
1.28569
1.04069
1.00125
0.600355
0.461828
0.482438
0.512958
0.575285
0.625161
0.722191
0.875072
1.00477
1.32539
1.53757
1.53772
1.37444
1.09346
1.00501
0.719139
0.514091
0.455298
0.488007
0.551898
0.601048
0.656271
0.798372
0.927685
1.16911
1.43264
1.48957
1.40683
1.15427
1.01416
0.740711
0.622152
0.471985
0.481834
0.514652
0.567466
0.59913
0.720086
0.863661
1.05259
1.33045
1.43447
1.39456
1.20507
1.03039
0.79025
0.742509
0.587716
0.488928
0.50562
0.541105
0.585594
0.671939
0.784991
0.938408
1.18504
1.33483
1.33631
1.21296
1.04685
0.873182
0.734876
0.654617
0.61954
0.584498
0.543457
0.507308
0.475949
0.43788
0.426764
0.42858
0.431223
0.436977
0.434083
0.49836
0.681729
0.766737
0.791649
0.787685
0.814556
0.669658
0.600689
0.565917
0.537023
0.506998
0.473157
0.450134
0.434563
0.41895
0.407263
0.406548
0.414369
0.435051
0.539673
0.717361
0.81114
0.792833
0.80242
0.809555
0.824996
0.50602
0.489651
0.490792
0.47263
0.439212
0.414322
0.399089
0.391972
0.387459
0.385188
0.392385
0.434555
0.5975
0.775412
0.82497
0.810389
0.800031
0.817857
0.8293
0.830906
0.390919
0.405299
0.406828
0.396123
0.370552
0.367211
0.364703
0.36085
0.362432
0.379763
0.468526
0.667851
0.837556
0.84323
0.821861
0.810106
0.815952
0.844076
0.84157
0.827307
0.312498
0.323543
0.348835
0.343086
0.322636
0.315587
0.316579
0.320433
0.362169
0.524477
0.741626
0.870685
0.863741
0.834901
0.815843
0.825496
0.84732
0.863157
0.851811
0.825432
0.242314
0.258187
0.280147
0.294193
0.285314
0.279382
0.292098
0.378552
0.61144
0.830975
0.886113
0.887186
0.862639
0.832065
0.832777
0.852962
0.866372
0.870613
0.857317
0.824379
0.187647
0.216153
0.241071
0.238755
0.248444
0.313549
0.501863
0.710825
0.845838
0.907719
0.921597
0.899782
0.860318
0.844454
0.846293
0.858949
0.860471
0.863748
0.845629
0.818253
0.134702
0.161966
0.242055
0.340472
0.510433
0.677231
0.779951
0.859983
0.909204
0.914062
0.908402
0.894859
0.873396
0.863234
0.861841
0.860802
0.857127
0.850108
0.825032
0.813334
0.305382
0.423519
0.547882
0.664505
0.75491
0.835066
0.866241
0.897506
0.898659
0.896416
0.890829
0.887452
0.887031
0.88078
0.871502
0.860372
0.844828
0.821517
0.803505
0.807271
0.564368
0.644517
0.707069
0.78552
0.821214
0.876941
0.890321
0.897706
0.887039
0.880948
0.880104
0.890209
0.902099
0.894702
0.878687
0.855248
0.824848
0.802339
0.799084
0.810352
)
;

boundaryField
{
    inlet
    {
        type            fixedValue;
        value           uniform 1;
    }
    outlet
    {
        type            zeroGradient;
    }
    airfoil
    {
        type            zeroGradient;
    }
    top
    {
        type            symmetryPlane;
    }
    bottom
    {
        type            symmetryPlane;
    }
    defaultFaces
    {
        type            empty;
    }
}


// ************************************************************************* //
