/*--------------------------------*- C++ -*----------------------------------*\
  =========                 |
  \\      /  F ield         | OpenFOAM: The Open Source CFD Toolbox
   \\    /   O peration     | Website:  https://openfoam.org
    \\  /    A nd           | Version:  7
     \\/     M anipulation  |
\*---------------------------------------------------------------------------*/
FoamFile
{
    version     2.0;
    format      ascii;
    class       volScalarField;
    location    "2.7";
    object      rho;
}
// * * * * * * * * * * * * * * * * * * * * * * * * * * * * * * * * * * * * * //

dimensions      [1 -3 0 0 0 0 0];

internalField   nonuniform List<scalar> 
3700
(
0.196142
0.299022
0.355376
0.40503
0.418217
0.443679
0.483656
0.537412
0.584107
0.597628
0.618428
0.629745
0.661184
0.699039
0.704592
0.718623
0.741242
0.737588
0.704838
0.665429
0.14481
0.130202
0.149955
0.166439
0.154331
0.15762
0.172487
0.190437
0.186115
0.171702
0.169623
0.17369
0.190525
0.225899
0.276223
0.330253
0.384374
0.396858
0.367305
0.292172
0.158444
0.125567
0.115804
0.10361
0.0889346
0.0832046
0.0767834
0.0776869
0.0816111
0.0868814
0.0880314
0.0930519
0.102512
0.117164
0.133478
0.148871
0.162992
0.171442
0.177262
0.178974
0.161524
0.123427
0.0991624
0.0819923
0.0771765
0.0824537
0.0872878
0.103826
0.119134
0.133452
0.127415
0.133419
0.1353
0.142816
0.156726
0.174267
0.195663
0.219034
0.241945
0.261221
0.15335
0.106919
0.0758861
0.0656568
0.065706
0.074501
0.0874818
0.117223
0.143286
0.158208
0.173827
0.192757
0.190989
0.193428
0.192923
0.197109
0.213399
0.246086
0.281943
0.334061
0.135551
0.0939804
0.063636
0.0588075
0.0614284
0.0688912
0.0814153
0.114486
0.146355
0.17055
0.201715
0.225319
0.252565
0.276872
0.286452
0.286697
0.294023
0.304965
0.33005
0.41256
0.116854
0.0875688
0.0607534
0.0574629
0.0639407
0.0700642
0.0829643
0.111567
0.139749
0.169783
0.212704
0.243373
0.289546
0.330507
0.36719
0.398573
0.423845
0.442023
0.457855
0.541672
0.10475
0.0795775
0.0606632
0.0630173
0.0768678
0.0933662
0.124105
0.15278
0.16322
0.179085
0.213672
0.251466
0.313266
0.371204
0.429574
0.493945
0.550517
0.610031
0.643178
0.761925
0.0881062
0.0643238
0.0585256
0.0672203
0.0841117
0.121725
0.182294
0.224575
0.244826
0.272916
0.294934
0.32403
0.366586
0.42882
0.500481
0.589236
0.687122
0.790491
0.868591
1.04002
0.0631515
0.047258
0.0524094
0.0608575
0.0781021
0.129184
0.204411
0.256525
0.315681
0.392762
0.446396
0.50487
0.564766
0.63155
0.686774
0.761602
0.868715
1.00723
1.1597
1.34978
0.0433602
0.0345564
0.0440681
0.0542226
0.065966
0.123722
0.198793
0.247484
0.342709
0.472317
0.571711
0.675071
0.786336
0.885946
0.9776
1.08098
1.19389
1.32372
1.59976
1.58632
0.0301819
0.0261189
0.0396278
0.0520149
0.0630427
0.122552
0.189104
0.240109
0.363355
0.538091
0.706273
0.863883
1.03275
1.17207
1.3357
1.50937
1.68469
1.84819
2.14667
2.09202
0.0229006
0.0207025
0.0351231
0.0524383
0.0711718
0.199896
0.297722
0.444493
0.665938
0.861622
1.06946
1.24539
1.42764
1.59261
1.80841
2.06836
2.33476
2.58104
2.92507
2.90101
0.0185579
0.0178655
0.0314747
0.0657578
0.158459
0.395455
0.580656
0.832711
1.13195
1.43305
1.68104
1.90057
2.11423
2.31823
2.58195
2.89546
3.23655
3.59376
3.89811
4.17165
0.0158097
0.0181528
0.0505804
0.141222
0.34023
0.596997
0.877411
1.2305
1.6292
2.0659
2.41082
2.73091
3.03329
3.35635
3.75559
4.14936
4.53789
4.89406
5.09803
5.25954
0.0118863
0.035233
0.117536
0.270028
0.591909
0.919942
1.3933
1.93781
2.58581
3.12983
3.55445
3.95273
4.33594
4.74968
5.18431
5.47696
5.66788
5.75083
5.62753
5.45834
0.0100626
0.0672784
0.238949
0.505132
1.14524
1.99245
2.79098
3.58996
4.41167
4.9545
5.27035
5.59089
5.87095
6.08039
6.20098
6.09722
5.80028
5.07384
3.89862
2.65512
0.0420921
0.21557
0.680121
1.65396
2.86919
4.00853
4.97112
5.94607
6.65251
6.69869
6.5881
6.58206
6.51956
6.27879
5.57174
4.2521
2.911
1.86283
1.42587
1.38992
0.431011
1.21121
2.74663
4.37905
5.85807
6.79675
7.56771
8.1679
7.96205
7.3325
6.73653
5.99016
4.71707
3.23661
1.98678
1.43894
1.38519
1.39292
1.39625
1.39921
3.21569
5.03682
6.74369
7.90196
8.65347
9.0017
9.16073
8.68231
6.30863
4.45013
3.284
2.16915
1.50723
1.38228
1.3901
1.39485
1.39885
1.39997
1.40003
1.40002
9.6342
9.56179
9.48717
9.55799
9.76973
9.51857
8.31779
3.14604
0.924088
1.40001
1.40001
1.40001
1.40001
1.40001
1.40001
1.40001
1.40001
1.40001
1.40001
1.40001
9.64009
9.56282
9.39752
9.27239
9.35286
8.02224
3.63924
1.42433
1.40001
1.40001
1.40001
1.40001
1.40001
1.40001
1.40001
1.40001
1.40001
1.40001
1.40001
1.40001
9.4653
9.53032
9.48575
9.21187
8.69994
4.67713
1.46794
1.39859
1.40001
1.40001
1.40001
1.40001
1.40001
1.40001
1.40001
1.40001
1.40001
1.40001
1.40001
1.40001
9.27109
9.50546
9.49095
9.18229
6.59946
1.95781
1.39133
1.40017
1.4
1.40001
1.40001
1.40001
1.40001
1.40001
1.40001
1.40001
1.40001
1.40001
1.40001
1.40001
9.06981
9.43874
9.43811
8.41661
3.78219
1.36589
1.4005
1.4
1.40001
1.40001
1.40001
1.40001
1.40001
1.40001
1.40001
1.40001
1.40001
1.40001
1.40001
1.40001
8.92343
9.36796
9.37519
6.90654
2.08585
1.40001
1.40001
1.40001
1.40001
1.40001
1.40001
1.40001
1.40001
1.40001
1.40001
1.40001
1.40001
1.40001
1.40001
1.40001
8.86844
9.29159
9.32182
4.96008
1.36196
1.40001
1.40001
1.40001
1.40001
1.40001
1.40001
1.40001
1.40001
1.40001
1.40001
1.40001
1.40001
1.40001
1.40001
1.40001
9.07313
9.21982
8.34333
2.8423
1.40001
1.40001
1.40001
1.40001
1.40001
1.40001
1.40001
1.40001
1.40001
1.40001
1.40001
1.40001
1.40001
1.40001
1.40001
1.40001
9.70144
9.30917
6.78029
1.61939
1.40001
1.40001
1.40001
1.40001
1.40001
1.40001
1.40001
1.40001
1.40001
1.40001
1.40001
1.40001
1.40001
1.40001
1.40001
1.40001
10.0377
8.79204
4.81791
1.38324
1.40001
1.40001
1.40001
1.40001
1.40001
1.40001
1.40001
1.40001
1.40001
1.40001
1.40001
1.40001
1.40001
1.40001
1.40001
1.40001
10.2736
8.33076
3.1938
1.40001
1.40001
1.40001
1.40001
1.40001
1.40001
1.40001
1.40001
1.40001
1.40001
1.40001
1.40001
1.40001
1.40001
1.40001
1.40001
1.40001
10.3379
7.46379
2.27986
1.40001
1.40001
1.40001
1.40001
1.40001
1.40001
1.40001
1.40001
1.40001
1.40001
1.40001
1.40001
1.40001
1.40001
1.40001
1.40001
1.40001
10.3965
6.65132
1.65059
1.40001
1.40001
1.40001
1.40001
1.40001
1.40001
1.40001
1.40001
1.40001
1.40001
1.40001
1.40001
1.40001
1.40001
1.40001
1.40001
1.40001
10.2284
5.58399
1.42324
1.40001
1.40001
1.40001
1.40001
1.40001
1.40001
1.40001
1.40001
1.40001
1.40001
1.40001
1.40001
1.40001
1.40001
1.40001
1.40001
1.40001
10.1056
4.40315
1.40001
1.40001
1.40001
1.40001
1.40001
1.40001
1.40001
1.40001
1.40001
1.40001
1.40001
1.40001
1.40001
1.40001
1.40001
1.40001
1.40001
1.40001
9.59331
3.4181
1.40001
1.40001
1.40001
1.40001
1.40001
1.40001
1.40001
1.40001
1.40001
1.40001
1.40001
1.40001
1.40001
1.40001
1.40001
1.40001
1.40001
1.40001
9.16509
2.62964
1.40001
1.40001
1.40001
1.40001
1.40001
1.40001
1.40001
1.40001
1.40001
1.40001
1.40001
1.40001
1.40001
1.40001
1.40001
1.40001
1.40001
1.40001
8.7839
1.93645
1.40001
1.40001
1.40001
1.40001
1.40001
1.40001
1.40001
1.40001
1.40001
1.40001
1.40001
1.40001
1.40001
1.40001
1.40001
1.40001
1.40001
1.40001
8.00225
1.40933
1.40001
1.40001
1.40001
1.40001
1.40001
1.40001
1.40001
1.40001
1.40001
1.40001
1.40001
1.40001
1.40001
1.40001
1.40001
1.40001
1.40001
1.40001
6.42147
1.40011
1.40001
1.40001
1.40001
1.40001
1.40001
1.40001
1.40001
1.40001
1.40001
1.40001
1.40001
1.40001
1.40001
1.40001
1.40001
1.40001
1.40001
1.40001
6.41898
1.40011
1.40001
1.40001
1.40001
1.40001
1.40001
1.40001
1.40001
1.40001
1.40001
1.40001
1.40001
1.40001
1.40001
1.40001
1.40001
1.40001
1.40001
1.40001
8.01091
1.40939
1.40001
1.40001
1.40001
1.40001
1.40001
1.40001
1.40001
1.40001
1.40001
1.40001
1.40001
1.40001
1.40001
1.40001
1.40001
1.40001
1.40001
1.40001
8.77732
1.93684
1.40001
1.40001
1.40001
1.40001
1.40001
1.40001
1.40001
1.40001
1.40001
1.40001
1.40001
1.40001
1.40001
1.40001
1.40001
1.40001
1.40001
1.40001
9.17167
2.62736
1.40001
1.40001
1.40001
1.40001
1.40001
1.40001
1.40001
1.40001
1.40001
1.40001
1.40001
1.40001
1.40001
1.40001
1.40001
1.40001
1.40001
1.40001
9.58588
3.42067
1.40001
1.40001
1.40001
1.40001
1.40001
1.40001
1.40001
1.40001
1.40001
1.40001
1.40001
1.40001
1.40001
1.40001
1.40001
1.40001
1.40001
1.40001
10.1083
4.40082
1.40001
1.40001
1.40001
1.40001
1.40001
1.40001
1.40001
1.40001
1.40001
1.40001
1.40001
1.40001
1.40001
1.40001
1.40001
1.40001
1.40001
1.40001
10.2311
5.58398
1.42357
1.40001
1.40001
1.40001
1.40001
1.40001
1.40001
1.40001
1.40001
1.40001
1.40001
1.40001
1.40001
1.40001
1.40001
1.40001
1.40001
1.40001
10.395
6.64982
1.6514
1.40001
1.40001
1.40001
1.40001
1.40001
1.40001
1.40001
1.40001
1.40001
1.40001
1.40001
1.40001
1.40001
1.40001
1.40001
1.40001
1.40001
10.3342
7.46266
2.2797
1.40001
1.40001
1.40001
1.40001
1.40001
1.40001
1.40001
1.40001
1.40001
1.40001
1.40001
1.40001
1.40001
1.40001
1.40001
1.40001
1.40001
10.27
8.33218
3.19408
1.40001
1.40001
1.40001
1.40001
1.40001
1.40001
1.40001
1.40001
1.40001
1.40001
1.40001
1.40001
1.40001
1.40001
1.40001
1.40001
1.40001
10.0367
8.79418
4.82158
1.38321
1.40001
1.40001
1.40001
1.40001
1.40001
1.40001
1.40001
1.40001
1.40001
1.40001
1.40001
1.40001
1.40001
1.40001
1.40001
1.40001
9.7024
9.31124
6.78435
1.62011
1.40001
1.40001
1.40001
1.40001
1.40001
1.40001
1.40001
1.40001
1.40001
1.40001
1.40001
1.40001
1.40001
1.40001
1.40001
1.40001
9.07261
9.21987
8.34318
2.84496
1.40001
1.40001
1.40001
1.40001
1.40001
1.40001
1.40001
1.40001
1.40001
1.40001
1.40001
1.40001
1.40001
1.40001
1.40001
1.40001
8.8685
9.29117
9.31956
4.95639
1.36199
1.40001
1.40001
1.40001
1.40001
1.40001
1.40001
1.40001
1.40001
1.40001
1.40001
1.40001
1.40001
1.40001
1.40001
1.40001
8.92193
9.36696
9.37514
6.90816
2.08574
1.40001
1.40001
1.40001
1.40001
1.40001
1.40001
1.40001
1.40001
1.40001
1.40001
1.40001
1.40001
1.40001
1.40001
1.40001
9.06695
9.43891
9.43837
8.4193
3.78973
1.36574
1.4005
1.4
1.40001
1.40001
1.40001
1.40001
1.40001
1.40001
1.40001
1.40001
1.40001
1.40001
1.40001
1.40001
9.26976
9.5055
9.49095
9.17903
6.60484
1.96064
1.39135
1.40017
1.4
1.40001
1.40001
1.40001
1.40001
1.40001
1.40001
1.40001
1.40001
1.40001
1.40001
1.40001
9.46409
9.5296
9.48481
9.20846
8.70237
4.6701
1.46667
1.39864
1.40001
1.40001
1.40001
1.40001
1.40001
1.40001
1.40001
1.40001
1.40001
1.40001
1.40001
1.40001
9.64119
9.56217
9.39581
9.26913
9.35583
8.03107
3.63455
1.42366
1.40001
1.40001
1.40001
1.40001
1.40001
1.40001
1.40001
1.40001
1.40001
1.40001
1.40001
1.40001
9.63824
9.56386
9.4877
9.55596
9.77026
9.52234
8.31642
3.15114
0.922336
1.40001
1.40001
1.40001
1.40001
1.40001
1.40001
1.40001
1.40001
1.40001
1.40001
1.40001
3.21798
5.03929
6.75251
7.91176
8.66192
9.00495
9.15439
8.67734
6.30279
4.44662
3.28297
2.16976
1.50774
1.38231
1.3901
1.39485
1.39885
1.39997
1.40003
1.40002
0.428312
1.207
2.73039
4.36261
5.85884
6.80651
7.57801
8.17094
7.96272
7.33055
6.73472
5.98932
4.71769
3.23777
1.98743
1.43903
1.38519
1.39292
1.39625
1.39921
0.045147
0.21336
0.688627
1.65514
2.87263
4.01215
4.97172
5.9438
6.65934
6.69949
6.5897
6.5813
6.51774
6.27717
5.57157
4.25234
2.9112
1.86296
1.42591
1.38992
0.0127676
0.0813311
0.240158
0.49894
1.12215
1.98497
2.79255
3.59426
4.41542
4.95488
5.27291
5.59377
5.87185
6.07914
6.19945
6.09598
5.79963
5.07367
3.89873
2.6551
0.0116787
0.0412991
0.112594
0.266884
0.587024
0.903113
1.38606
1.93328
2.58116
3.12669
3.55408
3.95401
4.33618
4.74744
5.1809
5.47463
5.66699
5.75113
5.62807
5.45891
0.0138139
0.0187008
0.0481083
0.151351
0.346286
0.591013
0.863865
1.22238
1.62557
2.06308
2.40991
2.73113
3.03254
3.35457
3.75327
4.14778
4.5379
4.89525
5.0993
5.26046
0.0186558
0.0178664
0.0317022
0.0754768
0.166923
0.402614
0.580401
0.83023
1.13088
1.43479
1.68377
1.90277
2.11579
2.31913
2.58234
2.896
3.23775
3.59552
3.90015
4.17316
0.0250605
0.021367
0.0327524
0.0544495
0.0803147
0.210134
0.306433
0.452911
0.670255
0.86302
1.06971
1.24582
1.42826
1.59273
1.80793
2.06812
2.335
2.58153
2.92517
2.90051
0.0347974
0.0259179
0.0328336
0.0522903
0.0715494
0.1259
0.189997
0.23913
0.360313
0.532273
0.701748
0.861411
1.03184
1.17184
1.33571
1.50933
1.68442
1.8477
2.14564
2.09097
0.0499647
0.0334494
0.0350343
0.0540334
0.0745821
0.12476
0.198081
0.242389
0.33782
0.468673
0.569216
0.673934
0.785474
0.884927
0.976431
1.07986
1.19324
1.32321
1.59925
1.58558
0.0711826
0.0462202
0.0456696
0.0608501
0.0853561
0.129078
0.203916
0.251764
0.312044
0.391768
0.446341
0.505192
0.564905
0.631016
0.686022
0.76108
0.868403
1.0066
1.15882
1.34867
0.096484
0.0655606
0.0576756
0.0671413
0.0867517
0.12156
0.182268
0.222466
0.243756
0.274663
0.298017
0.324307
0.363841
0.425841
0.498893
0.588545
0.68648
0.790008
0.868166
1.0403
0.113536
0.0820499
0.0605024
0.063668
0.0782523
0.0932223
0.124553
0.153435
0.165323
0.178877
0.209178
0.247445
0.311379
0.370466
0.429109
0.493522
0.550338
0.609876
0.643697
0.764154
0.126732
0.0895138
0.0607886
0.0589466
0.0639721
0.0690216
0.0823996
0.108996
0.134872
0.162779
0.208477
0.242328
0.290524
0.331979
0.36842
0.399277
0.424465
0.442591
0.459603
0.544927
0.143362
0.0960483
0.0645942
0.0597729
0.0612083
0.0674418
0.0801471
0.109672
0.140661
0.167197
0.201733
0.227068
0.255248
0.279349
0.289097
0.289372
0.296893
0.307951
0.332725
0.413917
0.159308
0.110114
0.0776204
0.0656331
0.0652649
0.0725182
0.0858069
0.113911
0.141401
0.160972
0.177826
0.195529
0.193667
0.195974
0.195579
0.199765
0.215529
0.247532
0.282182
0.332723
0.16681
0.12517
0.0991945
0.0814033
0.0773928
0.0824209
0.0874628
0.105286
0.122252
0.138738
0.130741
0.135234
0.135032
0.141194
0.155382
0.173559
0.195089
0.217954
0.240133
0.258586
0.162469
0.126789
0.11662
0.103686
0.089684
0.0846008
0.0796383
0.0810686
0.0844675
0.0895838
0.0884646
0.0917848
0.0990829
0.113125
0.129871
0.145586
0.160084
0.168922
0.17528
0.176289
0.149895
0.137824
0.149859
0.167972
0.191846
0.18911
0.177724
0.186451
0.212145
0.226502
0.225408
0.218694
0.214585
0.209423
0.198191
0.197544
0.207034
0.225268
0.259887
0.291917
0.186307
0.310421
0.348566
0.397798
0.458948
0.482612
0.486943
0.526757
0.58836
0.616341
0.631464
0.634935
0.641018
0.645332
0.627302
0.627269
0.682562
0.712711
0.71794
0.728423
0.754742
0.895097
0.979602
1.09169
1.13585
1.2047
1.22993
1.2317
1.21259
1.20728
1.21365
1.23543
1.24928
1.2342
1.20864
1.1732
1.14133
1.11501
1.10913
1.12839
0.360962
0.55843
0.750548
0.93153
1.04435
1.15294
1.20351
1.24895
1.24617
1.24218
1.23729
1.23715
1.23684
1.22515
1.21172
1.19204
1.16891
1.13611
1.11569
1.12759
0.188922
0.222404
0.326789
0.475826
0.71977
0.947587
1.08832
1.19082
1.26419
1.26936
1.26089
1.24041
1.21161
1.19898
1.19741
1.19453
1.19008
1.17834
1.14437
1.1355
0.264327
0.302544
0.338911
0.333048
0.349355
0.444227
0.705459
0.987377
1.17753
1.26569
1.28464
1.2551
1.19881
1.17476
1.1774
1.1971
1.19835
1.20036
1.17409
1.14183
0.340279
0.361097
0.396649
0.413922
0.401384
0.391342
0.409323
0.527689
0.851538
1.16006
1.23589
1.2379
1.20111
1.15775
1.16046
1.19147
1.20964
1.21569
1.19455
1.14817
0.437638
0.454894
0.480917
0.474188
0.446894
0.439809
0.441666
0.447666
0.50617
0.734949
1.03802
1.21494
1.20343
1.16018
1.13864
1.15497
1.18522
1.20496
1.18762
1.1487
0.545519
0.565879
0.572368
0.556322
0.518978
0.513032
0.50936
0.504017
0.506698
0.531277
0.655757
0.933423
1.16845
1.1723
1.14572
1.12971
1.14027
1.17918
1.17319
1.14919
0.706929
0.68519
0.68378
0.65865
0.611857
0.578013
0.557409
0.54812
0.541519
0.538381
0.548678
0.607826
0.83628
1.08088
1.15048
1.12736
1.11609
1.14275
1.15633
1.15281
0.934681
0.838099
0.790009
0.75083
0.707376
0.659917
0.627657
0.607165
0.585652
0.568622
0.567727
0.579135
0.609106
0.757318
1.00322
1.13123
1.10632
1.12211
1.12952
1.14875
1.21732
1.02383
0.913809
0.867843
0.816942
0.758473
0.707667
0.663762
0.610778
0.596815
0.599743
0.603071
0.611866
0.607649
0.696953
0.953574
1.06911
1.10794
1.09961
1.13599
1.78165
1.34435
1.0495
0.91055
0.896975
0.910707
0.891864
0.811395
0.726898
0.681864
0.668876
0.669819
0.656904
0.635588
0.61701
0.66031
0.837866
1.00013
1.03331
1.10487
2.82154
2.12385
1.64824
1.24729
1.09697
1.08774
1.06482
0.979079
0.86036
0.783243
0.754385
0.72845
0.715029
0.689917
0.672171
0.640947
0.645665
0.71653
0.868327
1.04021
3.48667
3.01528
2.40793
1.89718
1.52804
1.2387
1.13409
1.08471
1.02025
0.963104
0.921667
0.864205
0.811646
0.780934
0.744812
0.706548
0.674713
0.636455
0.659677
0.821046
3.29796
3.27402
3.10765
2.68099
2.21475
1.77058
1.44083
1.31871
1.24387
1.18356
1.09933
0.991458
0.888778
0.840313
0.799968
0.753422
0.718325
0.68281
0.673694
0.683272
2.35061
2.99579
3.09489
3.05589
2.86794
2.50143
2.07243
1.73111
1.47637
1.33357
1.22799
1.11981
1.03177
0.980477
0.913957
0.838714
0.805641
0.772851
0.720667
0.706302
1.5515
2.01164
2.58152
2.94905
2.94693
2.89367
2.69365
2.35919
2.00546
1.69965
1.49523
1.36421
1.28769
1.19449
1.07018
0.92902
0.875226
0.842143
0.795238
0.757463
1.4063
1.46207
1.68761
2.16133
2.60008
2.82109
2.81174
2.74552
2.5708
2.26442
1.94249
1.70236
1.50252
1.33053
1.21729
1.11182
1.00903
0.917503
0.838926
0.821802
1.40013
1.40157
1.4146
1.50941
1.77147
2.19488
2.5448
2.69978
2.69307
2.63446
2.4672
2.21534
1.91998
1.63202
1.48998
1.3732
1.22341
1.11607
1.00636
0.940819
1.40001
1.40002
1.40021
1.40354
1.42575
1.53876
1.80611
2.17198
2.47278
2.59749
2.58718
2.53078
2.38118
2.14006
1.88589
1.64552
1.40574
1.29894
1.20892
1.09834
1.40001
1.40001
1.40001
1.40004
1.40044
1.40547
1.43395
1.55246
1.79721
2.12784
2.39103
2.48909
2.47084
2.40929
2.27507
2.08162
1.85291
1.6351
1.47261
1.31418
1.40001
1.40001
1.40001
1.40001
1.40001
1.40007
1.40069
1.40664
1.43682
1.54627
1.77668
2.06364
2.28321
2.35538
2.3234
2.25591
2.1493
2.00308
1.86068
1.65808
1.40001
1.40001
1.40001
1.40001
1.40001
1.40001
1.40001
1.40009
1.40085
1.40649
1.43682
1.53489
1.72541
1.95308
2.12602
2.18088
2.14984
2.08273
2.00596
1.86708
1.40001
1.40001
1.40001
1.40001
1.40001
1.40001
1.40001
1.40001
1.40001
1.40009
1.40089
1.40592
1.43098
1.50038
1.63516
1.79857
1.92236
1.96754
1.95043
1.86922
1.40001
1.40001
1.40001
1.40001
1.40001
1.40001
1.40001
1.40001
1.40001
1.40001
1.40001
1.40008
1.40068
1.40396
1.41837
1.45679
1.53042
1.61527
1.68616
1.69718
1.40001
1.40001
1.40001
1.40001
1.40001
1.40001
1.40001
1.40001
1.40001
1.40001
1.40001
1.40001
1.40001
1.40005
1.40034
1.40175
1.407
1.41977
1.44242
1.46538
2.25379
3.4233
3.59439
2.90504
1.82997
1.45129
1.40261
1.40007
1.40001
1.40001
1.40001
1.40001
1.40001
1.40001
1.40001
3.2644
3.91304
3.51648
2.15031
1.46693
1.40113
1.40001
1.4
1.40001
1.40001
1.40001
1.40001
1.40001
1.40001
1.40001
4.07523
3.99142
2.76068
1.61263
1.40733
1.40008
1.40001
1.40001
1.40001
1.40001
1.40001
1.40001
1.40001
1.40001
1.40001
4.52121
3.56103
1.90876
1.42699
1.40027
1.40001
1.40001
1.40001
1.40001
1.40001
1.40001
1.40001
1.40001
1.40001
1.40001
4.62129
2.35108
1.46547
1.4007
1.40001
1.40001
1.40001
1.40001
1.40001
1.40001
1.40001
1.40001
1.40001
1.40001
1.40001
2.89415
1.50268
1.40071
1.4
1.4
1.40001
1.40001
1.40001
1.40001
1.40001
1.40001
1.40001
1.40001
1.40001
1.40001
1.54564
1.40084
1.4
1.4
1.40001
1.40001
1.40001
1.40001
1.40001
1.40001
1.40001
1.40001
1.40001
1.40001
1.40001
1.39737
1.39981
1.4
1.40001
1.40001
1.40001
1.40001
1.40001
1.40001
1.40001
1.40001
1.40001
1.40001
1.40001
1.40001
1.39996
1.40001
1.40001
1.40001
1.40001
1.40001
1.40001
1.40001
1.40001
1.40001
1.40001
1.40001
1.40001
1.40001
1.40001
1.40001
1.40001
1.40001
1.40001
1.40001
1.40001
1.40001
1.40001
1.40001
1.40001
1.40001
1.40001
1.40001
1.40001
1.40001
1.40001
1.40001
1.40001
1.40001
1.40001
1.40001
1.40001
1.40001
1.40001
1.40001
1.40001
1.40001
1.40001
1.40001
1.40001
1.40001
1.40001
1.40001
1.40001
1.40001
1.40001
1.40001
1.40001
1.40001
1.40001
1.40001
1.40001
1.40001
1.40001
1.40001
1.40001
1.40001
1.40001
1.40001
1.40001
1.40001
1.40001
1.40001
1.40001
1.40001
1.40001
1.40001
1.40001
1.40001
1.40001
1.40001
1.40001
1.40001
1.40001
1.40001
1.40001
1.40001
1.40001
1.40001
1.40001
1.40001
1.40001
1.40001
1.40001
1.40001
1.40001
1.40001
1.40001
1.40001
1.40001
1.40001
1.40001
1.40001
1.40001
1.40001
1.40001
1.40001
1.40001
1.40001
1.40001
1.40001
1.40001
1.40001
1.40001
1.40001
1.40001
1.40001
1.40001
1.40001
1.40001
1.40001
1.40001
1.40001
1.40001
1.40001
1.40001
1.40001
1.40001
1.40001
1.40001
1.40001
1.40001
1.40001
1.40001
1.40001
1.40001
1.40001
1.40001
1.40001
1.40001
1.40001
1.40001
1.40001
1.40001
1.40001
1.40001
1.40001
1.40001
1.40001
1.40001
1.40001
1.40001
1.40001
1.40001
1.40001
1.40001
1.40001
1.40001
1.40001
1.40001
1.40001
1.40001
1.40001
1.40001
1.40001
1.40001
1.40001
1.40001
1.40001
1.40001
1.40001
1.40001
1.40001
1.40001
1.40001
1.40001
1.40001
1.40001
1.40001
1.40001
1.40001
1.40001
1.40001
1.40001
1.40001
1.40001
1.40001
1.40001
1.40001
1.40001
1.40001
1.40001
1.40001
1.40001
1.40001
1.40001
1.40001
1.40001
1.40001
1.40001
1.40001
1.40001
1.40001
1.40001
1.40001
1.40001
1.40001
1.40001
1.40001
1.40001
1.40001
1.40001
1.40001
1.40001
1.40001
1.40001
1.40001
1.40001
1.40001
1.40001
1.40001
1.40001
1.40001
1.40001
1.40001
1.40001
1.40001
1.40001
1.40001
1.40001
1.40001
1.40001
1.40001
1.40001
1.40001
1.40001
1.40001
1.40001
1.40001
1.40001
1.40001
1.40001
1.40001
1.40001
1.40001
1.40001
1.40001
1.40001
1.40001
1.40001
1.40001
1.40001
1.40001
1.40001
1.40001
1.40001
1.40001
1.40001
1.40001
1.40001
1.40001
1.40001
1.40001
1.40001
1.40001
1.40001
1.40001
1.40001
1.40001
1.40001
1.40001
1.40001
1.40001
1.40001
1.40001
1.40001
1.40001
1.40001
1.40001
1.40001
1.40001
1.40001
1.40001
1.40001
1.40001
1.40001
1.40001
1.40001
1.40001
1.40001
1.40001
1.40001
1.40001
1.40001
1.40001
1.40001
1.40001
1.40001
1.40001
1.40001
1.40001
1.40001
1.40001
1.40001
1.40001
1.40001
1.40001
1.40001
1.40001
1.40001
1.40001
1.40001
1.40001
1.40001
1.40001
1.40001
1.40001
1.40001
1.40001
1.40001
1.40001
1.40001
1.40001
1.40001
1.40001
1.40001
1.40001
1.40001
1.40001
1.40001
1.40001
1.40001
1.40001
1.40001
1.40001
1.40001
1.40001
1.40001
1.40001
1.40001
1.40001
1.40001
1.40001
1.40001
1.40001
1.40001
1.40001
1.40001
1.40001
1.40001
1.40001
1.40001
1.40001
1.40001
1.40001
1.40001
1.40001
1.40001
1.40001
1.40001
1.40001
1.40001
1.40001
1.40001
1.40001
1.40001
1.40001
1.40001
1.40001
1.40001
1.40001
1.40001
1.40001
1.40001
1.40001
1.40001
1.40001
1.40001
1.40001
1.40001
1.40001
1.40001
1.40001
1.40001
1.40001
1.40001
1.40001
1.40001
1.40001
1.40001
1.40001
1.40001
1.40001
1.40001
1.40001
1.40001
1.40001
1.40001
1.40001
1.40001
1.40001
1.40001
1.40001
1.40001
1.40001
1.40001
1.40001
1.40001
1.40001
1.40001
1.40001
1.40001
1.40001
1.40001
1.40001
1.40001
1.40001
1.40001
1.40001
1.40001
1.40001
1.40001
1.40001
1.40001
1.40001
1.40001
1.40001
1.40001
1.40001
1.40001
1.40001
1.40001
1.40001
1.40001
1.40001
1.40001
1.40001
1.40001
1.40001
1.40001
1.40001
1.40001
1.40001
1.40001
1.40001
1.40001
1.40001
1.40001
1.40001
1.40001
1.40001
1.40001
1.40001
1.40001
1.40001
1.40001
1.40001
1.40001
1.40001
1.40001
1.40001
1.40001
1.40001
1.40001
1.40001
1.40001
1.40001
1.40001
1.40001
1.40001
1.40001
1.40001
1.40001
1.40001
1.40001
1.40001
1.40001
1.40001
1.40001
1.40001
1.40001
1.40001
1.40001
1.40001
1.40001
1.40001
1.40001
1.40001
1.40001
1.40001
1.40001
1.40001
1.40001
1.40001
1.40001
1.40001
1.40001
1.40001
1.40001
1.40001
1.40001
1.40001
1.40001
1.40001
1.40001
1.40001
1.40001
1.40001
1.40001
1.40001
1.40001
1.40001
1.40001
1.40001
1.40001
1.40001
1.40001
1.40001
1.40001
1.40001
1.40001
1.40001
1.40001
1.40001
1.40001
1.40001
1.40001
1.40001
1.40001
1.40001
1.40001
1.40001
1.40001
1.40001
1.40001
1.40001
1.40001
1.40001
1.40001
1.40001
1.40001
1.40001
1.40001
1.40001
1.40001
1.40001
1.40001
1.40001
1.40001
1.40001
1.40001
1.40001
1.40001
1.40001
1.40001
1.40001
1.40001
1.40001
1.40001
1.40001
1.40001
1.40001
1.40001
1.40001
1.40001
1.40001
1.40001
1.40001
1.40001
1.40001
1.40001
1.40001
1.40001
1.40001
1.40001
1.40001
1.40001
1.40001
1.40001
1.40001
1.40001
1.40001
1.40001
1.40001
1.40001
1.40001
1.40001
1.40001
1.40001
1.40001
1.40001
1.40001
1.40001
1.40001
1.40001
1.40001
1.40001
1.40001
1.40001
1.40001
1.40001
1.40001
1.40001
1.40001
1.40001
1.40001
1.40001
1.40001
1.40001
1.40001
1.40001
1.40001
1.40001
1.40001
1.40001
1.40001
1.40001
1.40001
1.40001
1.40001
1.40001
1.40001
1.40001
1.40001
1.40001
1.40001
1.40001
1.40001
1.40001
1.40001
1.40001
1.40001
1.40001
1.40001
1.40001
1.40001
1.40001
1.40001
1.40001
1.40001
1.40001
1.40001
1.40001
1.40001
1.40001
1.40001
1.40001
1.40001
1.40001
1.40001
1.40001
1.40001
1.40001
1.40001
1.40001
1.40001
1.40001
1.40001
1.40001
1.40001
1.40001
1.40001
1.40001
1.40001
1.40001
1.40001
1.40001
1.40001
1.40001
1.40001
1.40001
1.40001
1.40001
1.40001
1.40001
1.40001
1.40001
1.40001
1.40001
1.40001
1.40001
1.40001
1.40001
1.40001
1.40001
1.40001
1.40001
1.40001
1.40001
1.40001
1.40001
1.40001
1.40001
1.40001
1.40001
1.40001
1.40001
1.40001
1.40001
1.40001
1.40001
1.40001
1.40001
1.40001
1.40001
1.40001
1.40001
1.40001
1.40001
1.40001
1.40001
1.40001
1.40001
1.40001
1.40001
1.40001
1.40001
1.40001
1.40001
1.40001
1.40001
1.40001
1.40001
1.40001
1.40001
1.40001
1.40001
1.40001
1.40001
1.40001
1.40001
1.40001
1.40001
1.40001
1.40001
1.40001
1.40001
1.40001
1.40001
1.40001
1.40001
1.40001
1.40001
1.40001
1.40001
1.40001
1.40001
1.40001
1.40001
1.40001
1.40001
1.40001
1.40001
1.40001
1.40001
1.40001
1.40001
1.40001
1.40001
1.40001
1.40001
1.40001
1.40001
1.40001
1.40001
1.40001
1.40001
1.40001
1.40001
1.40001
1.40001
1.40001
1.40001
1.40001
1.40001
1.40001
1.40001
1.40001
1.40001
1.40001
1.40001
1.40001
1.40001
1.40001
1.40001
1.40001
1.40001
1.40001
1.40001
1.40001
1.40001
1.40001
1.40001
1.40001
1.40001
1.40001
1.40001
1.40001
1.40001
1.40001
1.40001
1.40001
1.40001
1.40001
1.40001
1.40001
1.40001
1.40001
1.40001
1.40001
1.40001
1.40001
1.40001
1.40001
1.40001
1.40001
1.40001
1.40001
1.40001
1.40001
1.40001
1.40001
1.40001
1.40001
1.40001
1.40001
1.40001
1.40001
1.40001
1.40001
1.40001
1.40001
1.40001
1.40001
1.40001
1.40001
1.40001
1.40001
1.40001
1.40001
1.40001
1.40001
1.40001
1.40001
1.40001
1.40001
1.40001
1.40001
1.40001
1.40001
1.39996
1.40001
1.40001
1.40001
1.40001
1.40001
1.40001
1.40001
1.40001
1.40001
1.40001
1.40001
1.40001
1.40001
1.40001
1.39737
1.39981
1.4
1.40001
1.40001
1.40001
1.40001
1.40001
1.40001
1.40001
1.40001
1.40001
1.40001
1.40001
1.40001
1.54558
1.40084
1.4
1.4
1.40001
1.40001
1.40001
1.40001
1.40001
1.40001
1.40001
1.40001
1.40001
1.40001
1.40001
2.89421
1.50265
1.40071
1.4
1.4
1.40001
1.40001
1.40001
1.40001
1.40001
1.40001
1.40001
1.40001
1.40001
1.40001
4.62179
2.35121
1.46548
1.4007
1.40001
1.40001
1.40001
1.40001
1.40001
1.40001
1.40001
1.40001
1.40001
1.40001
1.40001
4.52164
3.56111
1.90876
1.427
1.40027
1.40001
1.40001
1.40001
1.40001
1.40001
1.40001
1.40001
1.40001
1.40001
1.40001
4.07491
3.99091
2.76025
1.61252
1.40732
1.40008
1.40001
1.40001
1.40001
1.40001
1.40001
1.40001
1.40001
1.40001
1.40001
3.26327
3.91248
3.51642
2.15029
1.46692
1.40113
1.40001
1.4
1.40001
1.40001
1.40001
1.40001
1.40001
1.40001
1.40001
2.25291
3.4229
3.59442
2.90513
1.82999
1.45128
1.40261
1.40007
1.40001
1.40001
1.40001
1.40001
1.40001
1.40001
1.40001
1.78028
2.82216
3.48744
3.29832
2.35059
1.55142
1.4063
1.40013
1.40001
1.40001
1.40001
1.40001
1.40001
1.40001
1.40001
1.34732
2.12309
3.01504
3.27403
2.99562
2.0116
1.46208
1.40157
1.40002
1.40001
1.40001
1.40001
1.40001
1.40001
1.40001
1.05287
1.65029
2.40681
3.10743
3.09483
2.5816
1.68765
1.4146
1.40021
1.40001
1.40001
1.40001
1.40001
1.40001
1.40001
0.908938
1.24991
1.89759
2.68064
3.05574
2.94901
2.16137
1.5094
1.40354
1.40004
1.40001
1.40001
1.40001
1.40001
1.40001
0.893694
1.09757
1.52934
2.21405
2.86781
2.94686
2.59995
1.77144
1.42574
1.40044
1.40001
1.40001
1.40001
1.40001
1.40001
0.909035
1.08652
1.23964
1.77156
2.50135
2.89357
2.82104
2.19479
1.53876
1.40547
1.40007
1.40001
1.40001
1.40001
1.40001
0.890964
1.06339
1.13256
1.44139
2.07313
2.69387
2.81177
2.54482
1.80604
1.43395
1.40069
1.40001
1.40001
1.40001
1.40001
0.812786
0.97856
1.08371
1.31894
1.73099
2.35937
2.7456
2.69986
2.17202
1.55245
1.40664
1.40009
1.40001
1.40001
1.40001
0.729555
0.860427
1.01982
1.24408
1.47565
2.0054
2.57087
2.6931
2.47283
1.79729
1.43683
1.40085
1.40001
1.40001
1.40001
0.683258
0.783037
0.962219
1.18362
1.33387
1.69998
2.26426
2.63446
2.59747
2.12792
1.54633
1.4065
1.40009
1.40001
1.40001
0.668776
0.754588
0.921399
1.09928
1.22798
1.49528
1.9425
2.4671
2.58715
2.39103
1.77672
1.43683
1.40089
1.40001
1.40001
0.669683
0.728604
0.864948
0.991613
1.1191
1.36365
1.70239
2.21524
2.53082
2.48916
2.06365
1.53488
1.40592
1.40008
1.40001
0.657132
0.714916
0.812244
0.889734
1.03163
1.28726
1.50259
1.92029
2.38122
2.47093
2.28327
1.72539
1.43097
1.40068
1.40001
0.635753
0.689806
0.780774
0.840769
0.981294
1.19488
1.33045
1.63213
2.14013
2.40943
2.35548
1.95309
1.50037
1.40396
1.40005
0.616947
0.671996
0.744121
0.799528
0.914858
1.07109
1.21692
1.48982
1.88609
2.27524
2.32348
2.12606
1.63516
1.41837
1.40034
0.659418
0.640801
0.705793
0.75263
0.838299
0.929282
1.11192
1.3732
1.64645
2.08181
2.25596
2.1809
1.79857
1.45679
1.40175
0.838435
0.645703
0.674633
0.717411
0.804561
0.874419
1.01011
1.22389
1.40532
1.85301
2.14932
2.14985
1.92236
1.53042
1.407
1.00378
0.718572
0.636839
0.682682
0.772062
0.840929
0.918282
1.11697
1.29788
1.63513
2.00304
2.08272
1.96752
1.61527
1.41977
1.03383
0.869071
0.660163
0.674147
0.720183
0.794169
0.838593
1.00778
1.20865
1.47267
1.8606
2.00593
1.95041
1.68615
1.44242
1.10318
1.03729
0.821899
0.684364
0.707899
0.757675
0.820042
0.940904
1.09908
1.31352
1.6579
1.86705
1.86919
1.69717
1.46538
1.21717
1.02483
0.913206
0.864434
0.815711
0.758578
0.708253
0.664634
0.611694
0.59629
0.598872
0.602596
0.610652
0.606649
0.696223
0.951521
1.06972
1.10428
1.09881
1.13654
0.934138
0.838188
0.789785
0.749572
0.707781
0.660648
0.628602
0.606976
0.585307
0.569083
0.568137
0.579042
0.607902
0.75361
1.00094
1.13143
1.10581
1.11902
1.12896
1.15074
0.706353
0.683623
0.685216
0.659935
0.613385
0.578691
0.55749
0.547633
0.541408
0.538294
0.548334
0.607102
0.833934
1.08142
1.15049
1.13019
1.11567
1.14028
1.15613
1.15861
0.546019
0.566104
0.56826
0.553381
0.517745
0.513071
0.509588
0.50426
0.506492
0.530679
0.654296
0.93165
1.16766
1.17559
1.14597
1.12963
1.13765