/*--------------------------------*- C++ -*----------------------------------*\
  =========                 |
  \\      /  F ield         | OpenFOAM: The Open Source CFD Toolbox
   \\    /   O peration     | Website:  https://openfoam.org
    \\  /    A nd           | Version:  7
     \\/     M anipulation  |
\*---------------------------------------------------------------------------*/
FoamFile
{
    version     2.0;
    format      ascii;
    class       volScalarField;
    location    "2.7";
    object      T;
}
// * * * * * * * * * * * * * * * * * * * * * * * * * * * * * * * * * * * * * //

dimensions      [0 0 0 1 0 0 0];

internalField   nonuniform List<scalar> 
3700
(
100.566
100.741
100.791
100.79
100.787
100.846
100.969
101.082
101.1
101.094
101.086
101.071
101.07
101.098
101.142
101.167
101.17
101.163
101.137
101.051
100.213
100.194
100.268
100.297
100.263
100.345
100.528
100.606
100.557
100.48
100.429
100.408
100.434
100.49
100.572
100.663
100.716
100.713
100.663
100.476
100.246
100.179
100.142
100.108
100.063
100.025
99.9797
99.9528
99.9379
99.9299
99.917
99.9276
99.9509
99.9816
100.009
100.025
100.034
100.038
100.036
100.023
100.298
100.197
100.118
100.056
100.039
100.041
100.039
100.061
100.061
100.049
100.008
99.9926
99.9749
99.9813
100.011
100.035
100.051
100.072
100.086
100.095
100.318
100.192
100.032
99.9655
99.9689
100.001
100.04
100.095
100.118
100.112
100.112
100.109
100.089
100.066
100.043
100.037
100.047
100.081
100.11
100.145
100.305
100.136
99.9449
99.8975
99.9103
99.9339
99.9845
100.075
100.12
100.134
100.151
100.153
100.162
100.159
100.15
100.134
100.122
100.115
100.123
100.179
100.204
100.075
99.9101
99.8759
99.8971
99.9187
99.9656
100.041
100.073
100.115
100.153
100.164
100.189
100.2
100.207
100.214
100.213
100.211
100.21
100.236
100.1
100.013
99.8995
99.8774
99.9125
99.9432
100.01
100.054
100.064
100.097
100.132
100.153
100.189
100.214
100.235
100.258
100.273
100.283
100.288
100.324
100.005
99.9323
99.8936
99.9035
99.9575
100.053
100.127
100.151
100.145
100.161
100.166
100.181
100.196
100.221
100.251
100.285
100.316
100.34
100.354
100.394
99.8799
99.8287
99.8694
99.8932
99.9603
100.108
100.195
100.21
100.233
100.268
100.278
100.291
100.306
100.316
100.323
100.335
100.36
100.39
100.42
100.455
99.7538
99.7221
99.8353
99.8739
99.9434
100.133
100.221
100.228
100.271
100.324
100.347
100.366
100.386
100.394
100.406
100.419
100.437
100.455
100.498
100.495
99.6509
99.6613
99.835
99.8681
99.9656
100.201
100.24
100.254
100.307
100.356
100.392
100.419
100.444
100.455
100.474
100.494
100.518
100.54
100.577
100.569
99.5812
99.6332
99.861
99.901
100.083
100.323
100.326
100.384
100.438
100.462
100.482
100.495
100.508
100.518
100.538
100.566
100.597
100.624
100.659
100.655
99.524
99.6107
99.8722
99.9714
100.237
100.404
100.437
100.488
100.532
100.562
100.575
100.588
100.599
100.61
100.628
100.652
100.68
100.709
100.727
100.736
99.4851
99.6506
99.929
100.146
100.37
100.454
100.51
100.558
100.598
100.629
100.645
100.662
100.68
100.703
100.729
100.752
100.771
100.785
100.781
100.776
99.46
99.7934
100.03
100.292
100.478
100.533
100.592
100.639
100.684
100.705
100.721
100.742
100.766
100.792
100.812
100.823
100.822
100.816
100.792
100.749
99.4041
99.8995
100.206
100.42
100.591
100.69
100.735
100.769
100.793
100.807
100.819
100.835
100.852
100.855
100.854
100.843
100.791
100.679
100.52
100.283
99.5091
100.129
100.454
100.659
100.762
100.812
100.842
100.865
100.875
100.879
100.881
100.883
100.881
100.857
100.77
100.62
100.357
100.101
100.006
99.9978
100.12
100.524
100.736
100.833
100.889
100.909
100.923
100.922
100.916
100.906
100.892
100.838
100.725
100.469
100.146
100.01
99.9967
99.9985
99.9992
99.9998
100.695
100.835
100.91
100.948
100.963
100.957
100.954
100.928
100.843
100.76
100.57
100.228
100.029
99.9957
99.9978
99.9989
99.9998
100
100
100
100.996
100.994
100.99
100.988
100.983
100.957
100.877
100.436
99.8549
100
100
100
100
100
100
100
100
100
100
100
100.994
100.992
100.986
100.973
100.955
100.866
100.495
100.014
100
100
100
100
100
100
100
100
100
100
100
100
100.991
100.992
100.987
100.965
100.912
100.628
100.04
99.9993
100
100
100
100
100
100
100
100
100
100
100
100
100.986
100.992
100.987
100.954
100.79
100.226
99.9965
100
100
100
100
100
100
100
100
100
100
100
100
100
100.98
100.99
100.985
100.921
100.569
99.9921
100
100
100
100
100
100
100
100
100
100
100
100
100
100
100.976
100.987
100.981
100.838
100.285
100
100
100
100
100
100
100
100
100
100
100
100
100
100
100
100.974
100.982
100.971
100.702
99.9925
100
100
100
100
100
100
100
100
100
100
100
100
100
100
100
100.983
100.974
100.913
100.467
100
100
100
100
100
100
100
100
100
100
100
100
100
100
100
100
101.004
100.971
100.817
100.121
100
100
100
100
100
100
100
100
100
100
100
100
100
100
100
100
101.015
100.939
100.68
99.9965
100
100
100
100
100
100
100
100
100
100
100
100
100
100
100
100
101.025
100.907
100.503
100
100
100
100
100
100
100
100
100
100
100
100
100
100
100
100
100
101.029
100.856
100.329
100
100
100
100
100
100
100
100
100
100
100
100
100
100
100
100
100
101.032
100.804
100.122
100
100
100
100
100
100
100
100
100
100
100
100
100
100
100
100
100
101.023
100.74
100.011
100
100
100
100
100
100
100
100
100
100
100
100
100
100
100
100
100
101.009
100.658
100
100
100
100
100
100
100
100
100
100
100
100
100
100
100
100
100
100
100.982
100.553
100
100
100
100
100
100
100
100
100
100
100
100
100
100
100
100
100
100
100.953
100.434
100
100
100
100
100
100
100
100
100
100
100
100
100
100
100
100
100
100
100.919
100.249
100
100
100
100
100
100
100
100
100
100
100
100
100
100
100
100
100
100
100.865
100.006
100
100
100
100
100
100
100
100
100
100
100
100
100
100
100
100
100
100
100.805
100
100
100
100
100
100
100
100
100
100
100
100
100
100
100
100
100
100
100
100.805
100
100
100
100
100
100
100
100
100
100
100
100
100
100
100
100
100
100
100
100.865
100.006
100
100
100
100
100
100
100
100
100
100
100
100
100
100
100
100
100
100
100.919
100.25
100
100
100
100
100
100
100
100
100
100
100
100
100
100
100
100
100
100
100.953
100.433
100
100
100
100
100
100
100
100
100
100
100
100
100
100
100
100
100
100
100.982
100.554
100
100
100
100
100
100
100
100
100
100
100
100
100
100
100
100
100
100
101.009
100.658
100
100
100
100
100
100
100
100
100
100
100
100
100
100
100
100
100
100
101.023
100.74
100.011
100
100
100
100
100
100
100
100
100
100
100
100
100
100
100
100
100
101.032
100.804
100.123
100
100
100
100
100
100
100
100
100
100
100
100
100
100
100
100
100
101.029
100.856
100.329
100
100
100
100
100
100
100
100
100
100
100
100
100
100
100
100
100
101.025
100.907
100.503
100
100
100
100
100
100
100
100
100
100
100
100
100
100
100
100
100
101.015
100.939
100.68
99.9965
100
100
100
100
100
100
100
100
100
100
100
100
100
100
100
100
101.004
100.971
100.817
100.122
100
100
100
100
100
100
100
100
100
100
100
100
100
100
100
100
100.983
100.974
100.913
100.468
100
100
100
100
100
100
100
100
100
100
100
100
100
100
100
100
100.974
100.982
100.971
100.701
99.9925
100
100
100
100
100
100
100
100
100
100
100
100
100
100
100
100.976
100.987
100.981
100.838
100.285
100
100
100
100
100
100
100
100
100
100
100
100
100
100
100
100.98
100.99
100.985
100.921
100.57
99.9921
100
100
100
100
100
100
100
100
100
100
100
100
100
100
100.986
100.992
100.987
100.955
100.791
100.227
99.9965
100
100
100
100
100
100
100
100
100
100
100
100
100
100.991
100.992
100.987
100.965
100.913
100.627
100.039
99.9993
100
100
100
100
100
100
100
100
100
100
100
100
100.994
100.992
100.986
100.973
100.955
100.866
100.494
100.013
100
100
100
100
100
100
100
100
100
100
100
100
100.996
100.994
100.99
100.988
100.982
100.956
100.877
100.437
99.8543
100
100
100
100
100
100
100
100
100
100
100
100.695
100.835
100.911
100.948
100.963
100.957
100.954
100.928
100.842
100.759
100.569
100.228
100.029
99.9957
99.9978
99.9989
99.9998
100
100
100
100.122
100.526
100.735
100.832
100.889
100.91
100.924
100.922
100.916
100.906
100.892
100.838
100.725
100.469
100.146
100.01
99.9967
99.9985
99.9992
99.9998
99.5098
100.113
100.456
100.66
100.764
100.813
100.843
100.866
100.875
100.879
100.881
100.883
100.881
100.857
100.77
100.62
100.357
100.101
100.006
99.9978
99.4558
99.8726
100.197
100.418
100.585
100.691
100.736
100.77
100.793
100.807
100.819
100.835
100.851
100.855
100.854
100.843
100.791
100.679
100.52
100.283
99.4839
99.7126
99.9919
100.282
100.471
100.528
100.592
100.64
100.684
100.705
100.721
100.742
100.766
100.792
100.812
100.823
100.822
100.816
100.792
100.749
99.5359
99.6212
99.9054
100.146
100.37
100.451
100.507
100.558
100.598
100.629
100.644
100.662
100.68
100.703
100.729
100.752
100.771
100.785
100.781
100.776
99.648
99.6505
99.8975
99.9863
100.24
100.404
100.436
100.486
100.531
100.562
100.575
100.589
100.599
100.61
100.628
100.652
100.68
100.709
100.727
100.736
99.7349
99.6919
99.8528
99.9117
100.1
100.325
100.328
100.384
100.437
100.461
100.481
100.495
100.508
100.518
100.538
100.566
100.597
100.624
100.659
100.655
99.8089
99.7088
99.7761
99.8683
99.9957
100.21
100.241
100.252
100.302
100.35
100.389
100.417
100.443
100.455
100.474
100.494
100.517
100.54
100.577
100.568
99.8881
99.7591
99.7752
99.8737
99.9662
100.13
100.216
100.219
100.265
100.32
100.345
100.365
100.385
100.393
100.405
100.418
100.436
100.455
100.498
100.495
99.9775
99.8462
99.8332
99.8992
99.9734
100.1
100.187
100.202
100.228
100.266
100.277
100.29
100.304
100.315
100.322
100.335
100.36
100.39
100.42
100.455
100.07
99.942
99.8791
99.9052
99.9624
100.045
100.12
100.144
100.141
100.16
100.167
100.18
100.193
100.218
100.25
100.284
100.316
100.34
100.354
100.394
100.152
100.022
99.8922
99.8792
99.9112
99.9367
100.003
100.046
100.058
100.09
100.128
100.15
100.188
100.213
100.235
100.258
100.273
100.283
100.289
100.325
100.246
100.083
99.9054
99.8785
99.8888
99.907
99.9559
100.029
100.064
100.104
100.15
100.163
100.19
100.202
100.209
100.215
100.214
100.212
100.212
100.238
100.316
100.141
99.9471
99.8977
99.9016
99.9208
99.9728
100.058
100.112
100.133
100.152
100.155
100.166
100.163
100.153
100.137
100.125
100.117
100.125
100.18
100.319
100.193
100.038
99.9625
99.9596
99.9849
100.031
100.09
100.119
100.118
100.12
100.116
100.095
100.07
100.046
100.037
100.047
100.081
100.108
100.143
100.29
100.193
100.123
100.056
100.04
100.042
100.039
100.066
100.073
100.063
100.022
99.9998
99.973
99.9747
100.003
100.03
100.048
100.069
100.082
100.09
100.219
100.166
100.144
100.111
100.068
100.03
99.9926
99.9704
99.9519
99.9402
99.9197
99.9227
99.9399
99.9676
99.9967
100.016
100.029
100.033
100.03
100.02
100.201
100.208
100.239
100.307
100.432
100.475
100.45
100.504
100.671
100.715
100.693
100.647
100.585
100.493
100.351
100.238
100.244
100.292
100.391
100.497
100.554
100.781
100.766
100.783
100.858
100.905
100.939
101.019
101.119
101.144
101.14
101.126
101.108
101.091
101.048
100.993
100.996
101.039
101.084
101.092
101.015
101.017
101.005
100.987
100.958
100.939
100.923
100.905
100.882
100.868
100.858
100.85
100.839
100.815
100.789
100.776
100.77
100.759
100.726
100.533
100.504
100.615
100.7
100.738
100.768
100.789
100.798
100.807
100.811
100.808
100.802
100.791
100.778
100.757
100.74
100.738
100.744
100.742
100.717
100.544
100.023
100.049
100.172
100.293
100.425
100.506
100.565
100.61
100.658
100.679
100.677
100.668
100.655
100.643
100.639
100.644
100.666
100.694
100.687
100.558
100.078
100.096
100.107
100.095
100.111
100.188
100.332
100.424
100.504
100.557
100.56
100.55
100.537
100.533
100.534
100.543
100.568
100.617
100.63
100.553
100.135
100.137
100.14
100.143
100.127
100.119
100.135
100.215
100.361
100.469
100.48
100.48
100.472
100.462
100.463
100.473
100.495
100.541
100.565
100.526
100.187
100.184
100.186
100.177
100.159
100.154
100.153
100.154
100.188
100.307
100.407
100.449
100.445
100.432
100.422
100.427
100.446
100.485
100.505
100.481
100.233
100.232
100.23
100.217
100.2
100.2
100.196
100.184
100.181
100.187
100.252
100.36
100.422
100.42
100.405
100.401
100.413
100.446
100.457
100.436
100.294
100.277
100.276
100.265
100.246
100.235
100.222
100.206
100.191
100.18
100.184
100.211
100.309
100.384
100.388
100.385
100.393
100.415
100.423
100.401
100.363
100.332
100.317
100.302
100.285
100.268
100.252
100.233
100.209
100.191
100.182
100.186
100.193
100.258
100.336
100.369
100.376
100.392
100.392
100.37
100.434
100.39
100.357
100.339
100.318
100.299
100.28
100.255
100.218
100.198
100.191
100.186
100.184
100.177
100.213
100.306
100.348
100.366
100.36
100.338
100.537
100.458
100.385
100.341
100.329
100.332
100.324
100.297
100.258
100.228
100.212
100.204
100.19
100.172
100.158
100.174
100.246
100.299
100.306
100.288
100.617
100.548
100.486
100.415
100.368
100.357
100.345
100.32
100.283
100.252
100.23
100.209
100.194
100.174
100.157
100.14
100.133
100.16
100.224
100.216
100.608
100.586
100.541
100.485
100.43
100.366
100.334
100.319
100.304
100.286
100.264
100.234
100.206
100.185
100.162
100.137
100.116
100.091
100.093
100.11
100.488
100.547
100.541
100.515
100.476
100.421
100.366
100.337
100.319
100.301
100.274
100.239
100.203
100.179
100.156
100.128
100.102
100.078
100.063
100.02
100.25
100.378
100.446
100.483
100.474
100.45
100.409
100.363
100.32
100.289
100.263
100.235
100.211
100.189
100.161
100.129
100.105
100.078
100.046
99.9957
100.043
100.146
100.254
100.336
100.388
100.415
100.405
100.38
100.343
100.302
100.267
100.241
100.223
100.198
100.163
100.122
100.093
100.065
100.036
99.9837
100.002
100.015
100.066
100.155
100.233
100.29
100.329
100.348
100.34
100.316
100.28
100.247
100.214
100.179
100.154
100.128
100.094
100.054
100.023
99.9752
100
100
100.003
100.025
100.077
100.149
100.208
100.249
100.28
100.291
100.282
100.261
100.227
100.187
100.16
100.135
100.1
100.068
100.034
99.98
100
100
100
100.001
100.006
100.03
100.081
100.139
100.187
100.217
100.243
100.243
100.234
100.212
100.179
100.142
100.097
100.068
100.04
99.9913
100
100
100
100
100
100.001
100.008
100.033
100.078
100.129
100.17
100.193
100.207
100.204
100.192
100.17
100.138
100.1
100.065
100.02
100
100
100
100
100
100
100
100.001
100.008
100.031
100.074
100.119
100.151
100.172
100.171
100.166
100.153
100.133
100.109
100.07
100
100
100
100
100
100
100
100
100
100.001
100.008
100.029
100.065
100.103
100.128
100.14
100.138
100.129
100.116
100.092
100
100
100
100
100
100
100
100
100
100
100
100.001
100.007
100.022
100.049
100.078
100.097
100.104
100.101
100.088
100
100
100
100
100
100
100
100
100
100
100
100
100
100.001
100.004
100.013
100.028
100.044
100.057
100.058
100
100
100
100
100
100
100
100
100
100
100
100
100
100
100
100
100.002
100.004
100.009
100.014
100.596
100.653
100.609
100.415
100.142
100.017
100.001
100
100
100
100
100
100
100
100
100.671
100.662
100.517
100.217
100.022
100
100
100
100
100
100
100
100
100
100
100.704
100.635
100.373
100.074
100.002
100
100
100
100
100
100
100
100
100
100
100.72
100.518
100.167
100.009
100
100
100
100
100
100
100
100
100
100
100
100.651
100.284
100.024
100
100
100
100
100
100
100
100
100
100
100
100
100.398
100.038
100
100
100
100
100
100
100
100
100
100
100
100
100
100.044
100
100
100
100
100
100
100
100
100
100
100
100
100
100
99.9995
100
100
100
100
100
100
100
100
100
100
100
100
100
100
100
100
100
100
100
100
100
100
100
100
100
100
100
100
100
100
100
100
100
100
100
100
100
100
100
100
100
100
100
100
100
100
100
100
100
100
100
100
100
100
100
100
100
100
100
100
100
100
100
100
100
100
100
100
100
100
100
100
100
100
100
100
100
100
100
100
100
100
100
100
100
100
100
100
100
100
100
100
100
100
100
100
100
100
100
100
100
100
100
100
100
100
100
100
100
100
100
100
100
100
100
100
100
100
100
100
100
100
100
100
100
100
100
100
100
100
100
100
100
100
100
100
100
100
100
100
100
100
100
100
100
100
100
100
100
100
100
100
100
100
100
100
100
100
100
100
100
100
100
100
100
100
100
100
100
100
100
100
100
100
100
100
100
100
100
100
100
100
100
100
100
100
100
100
100
100
100
100
100
100
100
100
100
100
100
100
100
100
100
100
100
100
100
100
100
100
100
100
100
100
100
100
100
100
100
100
100
100
100
100
100
100
100
100
100
100
100
100
100
100
100
100
100
100
100
100
100
100
100
100
100
100
100
100
100
100
100
100
100
100
100
100
100
100
100
100
100
100
100
100
100
100
100
100
100
100
100
100
100
100
100
100
100
100
100
100
100
100
100
100
100
100
100
100
100
100
100
100
100
100
100
100
100
100
100
100
100
100
100
100
100
100
100
100
100
100
100
100
100
100
100
100
100
100
100
100
100
100
100
100
100
100
100
100
100
100
100
100
100
100
100
100
100
100
100
100
100
100
100
100
100
100
100
100
100
100
100
100
100
100
100
100
100
100
100
100
100
100
100
100
100
100
100
100
100
100
100
100
100
100
100
100
100
100
100
100
100
100
100
100
100
100
100
100
100
100
100
100
100
100
100
100
100
100
100
100
100
100
100
100
100
100
100
100
100
100
100
100
100
100
100
100
100
100
100
100
100
100
100
100
100
100
100
100
100
100
100
100
100
100
100
100
100
100
100
100
100
100
100
100
100
100
100
100
100
100
100
100
100
100
100
100
100
100
100
100
100
100
100
100
100
100
100
100
100
100
100
100
100
100
100
100
100
100
100
100
100
100
100
100
100
100
100
100
100
100
100
100
100
100
100
100
100
100
100
100
100
100
100
100
100
100
100
100
100
100
100
100
100
100
100
100
100
100
100
100
100
100
100
100
100
100
100
100
100
100
100
100
100
100
100
100
100
100
100
100
100
100
100
100
100
100
100
100
100
100
100
100
100
100
100
100
100
100
100
100
100
100
100
100
100
100
100
100
100
100
100
100
100
100
100
100
100
100
100
100
100
100
100
100
100
100
100
100
100
100
100
100
100
100
100
100
100
100
100
100
100
100
100
100
100
100
100
100
100
100
100
100
100
100
100
100
100
100
100
100
100
100
100
100
100
100
100
100
100
100
100
100
100
100
100
100
100
100
100
100
100
100
100
100
100
100
100
100
100
100
100
100
100
100
100
100
100
100
100
100
100
100
100
100
100
100
100
100
100
100
100
100
100
100
100
100
100
100
100
100
100
100
100
100
100
100
100
100
100
100
100
100
100
100
100
100
100
100
100
100
100
100
100
100
100
100
100
100
100
100
100
100
100
100
100
100
100
100
100
100
100
100
100
100
100
100
100
100
100
100
100
100
100
100
100
100
100
100
100
100
100
100
100
100
100
100
100
100
100
100
100
100
100
100
100
100
100
100
100
100
100
100
100
100
100
100
100
100
100
100
100
100
100
100
100
100
100
100
100
100
100
100
100
100
100
100
100
100
100
100
100
100
100
100
100
100
100
100
100
100
100
100
100
100
100
100
100
100
100
100
100
100
100
100
100
100
100
100
100
100
100
100
100
100
100
100
100
100
100
100
100
100
100
100
100
100
100
100
100
100
100
100
100
100
100
100
100
100
100
100
100
100
100
100
100
100
100
100
100
100
100
100
100
100
100
100
100
100
100
100
100
100
100
100
99.9995
100
100
100
100
100
100
100
100
100
100
100
100
100
100
100.044
100
100
100
100
100
100
100
100
100
100
100
100
100
100
100.398
100.038
100
100
100
100
100
100
100
100
100
100
100
100
100
100.651
100.284
100.024
100
100
100
100
100
100
100
100
100
100
100
100
100.72
100.518
100.167
100.009
100
100
100
100
100
100
100
100
100
100
100
100.704
100.635
100.373
100.074
100.002
100
100
100
100
100
100
100
100
100
100
100.671
100.662
100.517
100.217
100.022
100
100
100
100
100
100
100
100
100
100
100.596
100.653
100.609
100.415
100.142
100.017
100.001
100
100
100
100
100
100
100
100
100.536
100.617
100.608
100.488
100.25
100.043
100.002
100
100
100
100
100
100
100
100
100.458
100.548
100.586
100.547
100.378
100.146
100.015
100
100
100
100
100
100
100
100
100.385
100.486
100.541
100.541
100.446
100.254
100.066
100.003
100
100
100
100
100
100
100
100.341
100.415
100.485
100.515
100.483
100.336
100.155
100.025
100.001
100
100
100
100
100
100
100.328
100.369
100.43
100.476
100.474
100.388
100.233
100.077
100.006
100
100
100
100
100
100
100.332
100.357
100.366
100.421
100.45
100.415
100.29
100.149
100.03
100.001
100
100
100
100
100
100.324
100.345
100.334
100.366
100.409
100.405
100.329
100.208
100.081
100.008
100
100
100
100
100
100.297
100.319
100.319
100.337
100.363
100.38
100.348
100.249
100.139
100.033
100.001
100
100
100
100
100.259
100.283
100.304
100.319
100.32
100.343
100.34
100.28
100.187
100.078
100.008
100
100
100
100
100.229
100.252
100.286
100.301
100.289
100.302
100.316
100.291
100.217
100.129
100.031
100.001
100
100
100
100.212
100.23
100.264
100.274
100.263
100.267
100.28
100.282
100.243
100.17
100.074
100.008
100
100
100
100.204
100.209
100.235
100.239
100.235
100.241
100.247
100.261
100.243
100.193
100.119
100.029
100.001
100
100
100.19
100.194
100.206
100.203
100.211
100.223
100.214
100.227
100.234
100.207
100.151
100.065
100.007
100
100
100.172
100.174
100.185
100.179
100.189
100.198
100.179
100.187
100.212
100.204
100.172
100.103
100.022
100.001
100
100.158
100.157
100.162
100.156
100.162
100.163
100.153
100.16
100.179
100.192
100.171
100.128
100.049
100.004
100
100.173
100.14
100.137
100.128
100.128
100.122
100.128
100.135
100.142
100.17
100.166
100.14
100.078
100.013
100
100.246
100.133
100.116
100.102
100.104
100.093
100.095
100.1
100.097
100.138
100.153
100.138
100.097
100.028
100.002
100.301
100.161
100.091
100.078
100.078
100.064
100.055
100.068
100.068
100.1
100.133
100.129
100.104
100.044
100.004
100.307
100.224
100.094
100.063
100.046
100.036
100.023
100.034
100.04
100.065
100.109
100.116
100.101
100.057
100.009
100.288
100.215
100.11
100.02
99.996
99.9835
99.9747
99.9802
99.9915
100.019
100.07
100.092
100.088
100.058
100.014
100.434
100.391
100.357
100.338
100.318
100.299
100.28
100.255
100.219
100.198
100.191
100.186
100.183
100.176
100.213
100.305
100.348
100.365
100.36
100.338
100.362
100.332
100.317
100.302
100.285
100.269
100.253
100.233
100.209
100.191
100.182
100.186
100.193
100.257
100.336
100.369
100.376
100.391
100.392
100.37
100.294
100.277
100.277
100.265
100.247
100.235
100.222
100.206
100.192
100.18
100.184
100.21
100.308
100.385
100.389
100.386
100.392
100.414
100.423
100.402
100.232
100.233
100.229
100.216
100.199
100.2
100.196
100.185
100.181
100.187
100.251
100.359
100.422
100.42
100.405
100.401
100.412
100.445
100.457
100.437
100.186
100.182
100.19
100.18
100.161
100.155
100.153
100.154
100.188
100.305
100.406
100.449
100.445
100.432
100.422
100.426
100.445
100.484
100.504
100.481
100.135
100.137
100.137
100.14
100.124
100.118
100.135
100.216
100.362
100.468
100.479
100.479
100.471
100.462
100.463
100.473
100.494
100.54
100.565
100.525
100.077
100.095
100.107
100.095
100.108
100.185
100.331
100.426
100.505
100.556
100.559
100.549
100.537
100.534
100.535
100.545
100.569
100.618
100.63
100.553
100.025
100.061
100.181
100.288
100.416
100.504
100.565
100.613
100.659
100.68
100.679
100.671
100.66
100.649
100.644
100.649
100.67
100.697
100.688
100.557
100.627
100.645
100.705
100.732
100.761
100.786
100.8
100.811
100.813
100.81
100.804
100.795
100.784
100.766
100.748
100.743
100.748
100.745
100.718
100.543
101.068
101.029
101.004
100.985
100.955
100.939
100.925
100.911
100.888
100.873
100.862
100.853
100.844
100.822
100.797
100.782
100.773
100.76
100.726
100.533
)
;

boundaryField
{
    inlet
    {
        type            fixedValue;
        value           uniform 100;
    }
    outlet
    {
        type            inletOutlet;
        inletValue      uniform 100;
        value           nonuniform List<scalar> 
50
(
100.288
100.216
100.11
100.019
99.9955
99.9836
99.9751
99.9798
99.9912
100.02
100.07
100.092
100.088
100.058
100.014
100.532
100.543
100.557
100.553
100.525
100.48
100.436
100.4
100.37
100.338
100.338
100.37
100.402
100.437
100.481
100.525
100.552
100.556
100.542
100.532
100.288
100.215
100.11
100.02
99.9958
99.9834
99.9745
99.98
99.9914
100.019
100.07
100.092
100.088
100.058
100.014
)
;
    }
    airfoil
    {
        type            zeroGradient;
    }
    top
    {
        type            symmetryPlane;
    }
    bottom
    {
        type            symmetryPlane;
    }
    defaultFaces
    {
        type            empty;
    }
}


// ************************************************************************* //
