/*--------------------------------*- C++ -*----------------------------------*\
  =========                 |
  \\      /  F ield         | OpenFOAM: The Open Source CFD Toolbox
   \\    /   O peration     | Website:  https://openfoam.org
    \\  /    A nd           | Version:  7
     \\/     M anipulation  |
\*---------------------------------------------------------------------------*/
FoamFile
{
    version     2.0;
    format      ascii;
    class       volVectorField;
    location    "2.7";
    object      U;
}
// * * * * * * * * * * * * * * * * * * * * * * * * * * * * * * * * * * * * * //

dimensions      [0 1 -1 0 0 0 0];

internalField   nonuniform List<vector> 
3700
(
(1.41265 -0.642532 0)
(1.2773 -0.686144 0)
(1.21417 -0.457501 0)
(1.27421 -0.461118 0)
(1.41704 -0.467329 0)
(1.43582 -0.35311 0)
(1.45948 -0.211543 0)
(1.54212 -0.143449 0)
(1.60926 -0.205566 0)
(1.63134 -0.245694 0)
(1.59339 -0.283173 0)
(1.56707 -0.331866 0)
(1.55666 -0.334793 0)
(1.54621 -0.288457 0)
(1.54443 -0.194147 0)
(1.59792 -0.0571668 0)
(1.73038 0.0237666 0)
(1.81078 0.0369647 0)
(1.86365 0.0254379 0)
(1.9534 -0.113534 0)
(1.51796 -1.52024 0)
(1.53572 -1.66721 0)
(1.61597 -1.66293 0)
(1.73641 -1.70397 0)
(1.81512 -1.80443 0)
(1.78372 -1.6761 0)
(1.73814 -1.39323 0)
(1.78915 -1.17174 0)
(1.86994 -1.2368 0)
(1.93211 -1.38313 0)
(1.92058 -1.46749 0)
(1.92023 -1.50294 0)
(1.91056 -1.46728 0)
(1.8923 -1.40831 0)
(1.88727 -1.20781 0)
(1.94401 -1.02726 0)
(2.085 -0.852346 0)
(2.2047 -0.763023 0)
(2.31672 -0.767864 0)
(2.5732 -1.00357 0)
(1.52858 -1.55183 0)
(1.69111 -1.73656 0)
(1.83183 -2.00141 0)
(1.87774 -2.18583 0)
(1.90533 -2.25131 0)
(1.92333 -2.26909 0)
(1.95332 -2.20515 0)
(1.9901 -2.14382 0)
(1.99158 -2.12449 0)
(2.11095 -2.10267 0)
(2.22786 -2.05219 0)
(2.28694 -2.04589 0)
(2.35086 -1.97183 0)
(2.33593 -1.95589 0)
(2.35287 -1.86814 0)
(2.38521 -1.83386 0)
(2.44233 -1.76352 0)
(2.50392 -1.66579 0)
(2.59445 -1.61765 0)
(2.7 -1.50957 0)
(1.57363 -1.55278 0)
(1.78877 -1.72274 0)
(1.9686 -2.17994 0)
(1.97106 -2.31125 0)
(1.98581 -2.3228 0)
(1.98153 -2.32339 0)
(2.06948 -2.1839 0)
(2.03042 -2.08427 0)
(1.98297 -2.04872 0)
(2.13571 -1.94835 0)
(2.31485 -1.78055 0)
(2.47258 -1.73071 0)
(2.60272 -1.62222 0)
(2.6244 -1.65689 0)
(2.62206 -1.64235 0)
(2.56743 -1.66391 0)
(2.53048 -1.63709 0)
(2.54305 -1.503 0)
(2.58285 -1.49015 0)
(2.669 -1.2851 0)
(1.6819 -1.59639 0)
(2.03919 -1.73158 0)
(2.07791 -2.2149 0)
(2.09008 -2.3098 0)
(2.20636 -2.2433 0)
(2.21542 -2.30585 0)
(2.23855 -2.10173 0)
(2.107 -2.08119 0)
(2.04755 -2.06415 0)
(2.12261 -1.94814 0)
(2.23364 -1.81454 0)
(2.42681 -1.70877 0)
(2.51637 -1.59009 0)
(2.66715 -1.45088 0)
(2.73736 -1.26717 0)
(2.75722 -1.19649 0)
(2.71847 -1.2317 0)
(2.71484 -1.17916 0)
(2.64261 -1.29481 0)
(2.63838 -1.20496 0)
(1.84597 -1.66566 0)
(2.09913 -1.76896 0)
(2.01354 -2.2794 0)
(2.05491 -2.35278 0)
(2.21206 -2.24139 0)
(2.24309 -2.22981 0)
(2.36239 -1.94319 0)
(2.30784 -1.94312 0)
(2.29623 -1.98906 0)
(2.32893 -1.87288 0)
(2.34775 -1.76605 0)
(2.43225 -1.67441 0)
(2.49024 -1.52545 0)
(2.59453 -1.43934 0)
(2.65448 -1.30742 0)
(2.72434 -1.11241 0)
(2.81386 -0.96856 0)
(2.84008 -0.797581 0)
(2.77888 -0.8007 0)
(2.71401 -0.866111 0)
(1.92523 -1.73207 0)
(1.97665 -1.88815 0)
(1.84176 -2.31618 0)
(1.97834 -2.35912 0)
(2.10558 -2.22026 0)
(2.22587 -2.13899 0)
(2.35679 -1.88339 0)
(2.39409 -1.82692 0)
(2.50757 -1.7738 0)
(2.61524 -1.61429 0)
(2.54983 -1.65118 0)
(2.58929 -1.52159 0)
(2.57642 -1.40172 0)
(2.60109 -1.32392 0)
(2.63241 -1.18727 0)
(2.6674 -1.06267 0)
(2.75077 -0.970065 0)
(2.7987 -0.77274 0)
(2.82167 -0.559867 0)
(2.7778 -0.470999 0)
(1.85785 -1.77617 0)
(1.78987 -2.01068 0)
(1.68486 -2.32954 0)
(1.77551 -2.23624 0)
(1.92447 -2.11098 0)
(2.11133 -1.78396 0)
(2.20737 -1.75414 0)
(2.34837 -1.64634 0)
(2.56359 -1.55708 0)
(2.69177 -1.32816 0)
(2.71644 -1.35797 0)
(2.74836 -1.15985 0)
(2.70827 -1.14553 0)
(2.70626 -1.06603 0)
(2.70237 -0.967498 0)
(2.69209 -0.858613 0)
(2.70193 -0.80271 0)
(2.75572 -0.73497 0)
(2.748 -0.529515 0)
(2.74556 -0.347723 0)
(1.68604 -1.71568 0)
(1.57444 -1.93979 0)
(1.5358 -2.22729 0)
(1.72758 -2.17113 0)
(1.875 -2.01534 0)
(2.00741 -1.74796 0)
(2.05733 -1.72164 0)
(2.17609 -1.6166 0)
(2.34768 -1.49888 0)
(2.49582 -1.2709 0)
(2.6281 -1.0927 0)
(2.69436 -0.851541 0)
(2.71499 -0.723792 0)
(2.74267 -0.621481 0)
(2.75751 -0.54475 0)
(2.7425 -0.510656 0)
(2.72313 -0.447939 0)
(2.72383 -0.501456 0)
(2.70288 -0.405825 0)
(2.67017 -0.212913 0)
(1.52648 -1.49371 0)
(1.43483 -1.65919 0)
(1.4051 -2.03019 0)
(1.7466 -2.00571 0)
(1.93191 -1.82354 0)
(2.02614 -1.67507 0)
(2.07103 -1.67425 0)
(2.21902 -1.53065 0)
(2.30514 -1.37457 0)
(2.38035 -1.29859 0)
(2.49856 -1.10704 0)
(2.59544 -0.904659 0)
(2.65572 -0.666877 0)
(2.73849 -0.514482 0)
(2.71789 -0.261161 0)
(2.71383 -0.181133 0)
(2.69845 -0.0639708 0)
(2.67221 -0.13146 0)
(2.64974 -0.158097 0)
(2.61804 -0.0551834 0)
(1.36883 -1.26695 0)
(1.38054 -1.39901 0)
(1.57403 -1.87431 0)
(1.79549 -2.01145 0)
(2.03395 -1.67338 0)
(2.10965 -1.57893 0)
(2.23858 -1.53495 0)
(2.42345 -1.28847 0)
(2.49122 -1.13501 0)
(2.47706 -1.13849 0)
(2.52947 -0.911486 0)
(2.57479 -0.759416 0)
(2.60138 -0.575585 0)
(2.67467 -0.469478 0)
(2.65083 -0.228161 0)
(2.67283 -0.101957 0)
(2.63281 0.113789 0)
(2.59346 0.174746 0)
(2.53821 0.199001 0)
(2.57893 0.0854079 0)
(1.24924 -1.08939 0)
(1.38551 -1.24021 0)
(1.76007 -1.82075 0)
(1.82921 -2.04189 0)
(2.09854 -1.61867 0)
(2.26058 -1.56318 0)
(2.44954 -1.40061 0)
(2.60333 -0.876902 0)
(2.6994 -0.603362 0)
(2.68637 -0.590189 0)
(2.67026 -0.400927 0)
(2.6581 -0.283429 0)
(2.638 -0.179946 0)
(2.63816 -0.114035 0)
(2.59752 0.00150463 0)
(2.58828 0.0411642 0)
(2.55328 0.154468 0)
(2.50436 0.291572 0)
(2.43496 0.405913 0)
(2.44879 0.357583 0)
(1.09474 -0.982921 0)
(1.3469 -1.179 0)
(1.92973 -1.78846 0)
(2.03208 -2.0619 0)
(2.59195 -1.22816 0)
(2.59352 -1.4418 0)
(2.75966 -1.10599 0)
(2.73581 -0.57045 0)
(2.68352 -0.545565 0)
(2.64906 -0.225083 0)
(2.65556 -0.0777954 0)
(2.5997 0.12553 0)
(2.57578 0.231182 0)
(2.5331 0.335725 0)
(2.49558 0.385276 0)
(2.46035 0.392625 0)
(2.4309 0.390638 0)
(2.39993 0.428098 0)
(2.31739 0.558606 0)
(2.30747 0.549536 0)
(0.897152 -0.876512 0)
(1.35487 -1.15508 0)
(2.14153 -1.73295 0)
(2.49755 -1.95554 0)
(2.6481 -1.02415 0)
(2.44395 -1.20653 0)
(2.49294 -0.877824 0)
(2.52616 -0.565833 0)
(2.50797 -0.406015 0)
(2.52619 -0.207461 0)
(2.54085 0.0012566 0)
(2.48368 0.234793 0)
(2.46402 0.378813 0)
(2.39181 0.539601 0)
(2.33836 0.633229 0)
(2.28904 0.675197 0)
(2.22943 0.726181 0)
(2.22733 0.701525 0)
(2.18933 0.743552 0)
(2.14548 0.775492 0)
(0.718208 -0.726081 0)
(1.51465 -1.35092 0)
(2.45319 -1.46622 0)
(2.23459 -1.38419 0)
(2.35537 -1.01841 0)
(2.42218 -0.865177 0)
(2.47022 -0.392218 0)
(2.49323 -0.215876 0)
(2.44304 0.0685419 0)
(2.45769 0.181231 0)
(2.41079 0.361052 0)
(2.33887 0.514276 0)
(2.2947 0.608242 0)
(2.2331 0.704013 0)
(2.18093 0.767523 0)
(2.12943 0.815203 0)
(2.06436 0.890772 0)
(2.04414 0.918584 0)
(2.03285 0.941047 0)
(2.06143 0.955507 0)
(0.900589 -0.669784 0)
(1.645 -1.62364 0)
(2.07123 -1.53341 0)
(2.18476 -0.84024 0)
(2.30803 -0.720571 0)
(2.42326 -0.130353 0)
(2.44375 0.191319 0)
(2.38477 0.415389 0)
(2.33345 0.509539 0)
(2.29498 0.65389 0)
(2.20313 0.788567 0)
(2.11865 0.883837 0)
(2.06257 0.9307 0)
(2.01679 0.9684 0)
(1.99111 0.960615 0)
(1.96175 0.976917 0)
(1.95276 1.00916 0)
(1.96758 0.997742 0)
(1.99151 0.99891 0)
(2.06698 0.983551 0)
(1.0896 -0.501022 0)
(1.85905 -0.879293 0)
(2.1598 -0.945044 0)
(2.286 0.185662 0)
(2.35103 0.184604 0)
(2.32915 0.375189 0)
(2.29898 0.506589 0)
(2.19949 0.686376 0)
(2.13737 0.777926 0)
(2.09184 0.901358 0)
(1.97526 1.00829 0)
(1.91293 1.06548 0)
(1.87626 1.0875 0)
(1.86426 1.0916 0)
(1.87048 1.05501 0)
(1.89761 1.04533 0)
(1.96133 1.01803 0)
(2.16176 0.90011 0)
(2.37698 0.792471 0)
(2.77303 0.448449 0)
(1.15542 -0.040816 0)
(1.93058 -0.237314 0)
(2.21173 0.497339 0)
(2.25883 0.461438 0)
(2.17241 0.669786 0)
(2.14708 0.756748 0)
(2.0311 0.906899 0)
(1.96738 0.959494 0)
(1.90809 1.03035 0)
(1.85563 1.12097 0)
(1.78904 1.15454 0)
(1.79132 1.14973 0)
(1.80881 1.1293 0)
(1.85044 1.08542 0)
(2.0422 0.947655 0)
(2.25892 0.825508 0)
(2.66259 0.501508 0)
(3.03575 0.0907999 0)
(3.05635 -0.0246632 0)
(3.00421 -0.0048289 0)
(0.999155 0.0329111 0)
(1.90372 0.821592 0)
(2.12174 0.787518 0)
(1.98789 0.96816 0)
(1.94569 0.98219 0)
(1.87873 1.06739 0)
(1.79698 1.12392 0)
(1.75954 1.14552 0)
(1.75646 1.16299 0)
(1.73404 1.20469 0)
(1.71919 1.19402 0)
(1.86792 1.06519 0)
(2.10018 0.882335 0)
(2.50604 0.574687 0)
(2.98957 0.133268 0)
(3.07325 -0.0296411 0)
(3.00805 -0.00762608 0)
(3.00293 -0.00384533 0)
(3.00124 -0.00221079 0)
(3.00008 -0.000482916 0)
(1.17011 0.761527 0)
(1.83307 1.14446 0)
(1.83358 1.15718 0)
(1.73428 1.19908 0)
(1.71308 1.19774 0)
(1.66656 1.24197 0)
(1.65553 1.21601 0)
(1.72546 1.16829 0)
(1.75984 1.23339 0)
(1.79618 1.14167 0)
(2.28382 0.733256 0)
(2.86629 0.202546 0)
(3.09747 -0.0295562 0)
(3.02046 -0.0124059 0)
(3.00455 -0.00542342 0)
(3.00184 -0.00299866 0)
(3.00006 -0.000587536 0)
(2.99998 -2.24356e-05 0)
(2.99999 1.45519e-05 0)
(3 5.98709e-06 0)
(1.57892 1.25641 0)
(1.58277 1.26397 0)
(1.58765 1.27167 0)
(1.5972 1.26843 0)
(1.61413 1.25661 0)
(1.60686 1.26526 0)
(1.90095 1.17819 0)
(2.99757 0.369808 0)
(3.31987 -0.583391 0)
(3 4.72505e-11 0)
(3 1.20559e-11 0)
(3 5.88406e-16 0)
(3 5.70822e-12 0)
(3 -5.30762e-12 0)
(3 1.39799e-14 0)
(3 1.38236e-14 0)
(3 7.13676e-15 0)
(3 2.37736e-15 0)
(3 3.58216e-15 0)
(3 -2.5526e-15 0)
(1.58288 1.25211 0)
(1.59501 1.25881 0)
(1.60055 1.27308 0)
(1.60146 1.28411 0)
(1.65309 1.26627 0)
(1.76661 1.19988 0)
(2.28635 0.73198 0)
(2.99912 0.0120211 0)
(3 4.03093e-08 0)
(3 6.68544e-11 0)
(3 8.84117e-14 0)
(3 4.42228e-15 0)
(3 -3.82816e-15 0)
(3 1.02333e-14 0)
(3 3.96664e-15 0)
(3 5.66513e-15 0)
(3 5.26164e-15 0)
(3 2.15826e-15 0)
(3 1.88762e-16 0)
(3 -9.38795e-16 0)
(1.58862 1.24975 0)
(1.60471 1.2558 0)
(1.61485 1.25929 0)
(1.59685 1.29029 0)
(1.68499 1.22282 0)
(2.16807 0.800493 0)
(2.99155 -0.000454846 0)
(3.00036 -0.000708445 0)
(3 5.7825e-07 0)
(3 6.36358e-11 0)
(3 -1.4335e-13 0)
(3 3.07934e-15 0)
(3 2.88676e-15 0)
(3 4.94557e-15 0)
(3 4.93217e-15 0)
(3 4.38667e-15 0)
(3 4.30222e-15 0)
(3 3.27331e-15 0)
(3 2.0771e-15 0)
(3 -6.99402e-16 0)
(1.58748 1.25559 0)
(1.60815 1.25939 0)
(1.62568 1.25536 0)
(1.62383 1.27402 0)
(1.90423 1.05062 0)
(2.77074 0.200742 0)
(3.00462 -0.00163911 0)
(2.99991 7.76669e-05 0)
(3 -7.56698e-07 0)
(3 7.9038e-10 0)
(3 2.17393e-14 0)
(3 8.80414e-16 0)
(3 2.9319e-15 0)
(3 4.78721e-15 0)
(3 4.19872e-15 0)
(3 3.76724e-15 0)
(3 3.90333e-15 0)
(3 2.76829e-15 0)
(3 2.16823e-15 0)
(3 5.10152e-16 0)
(1.58651 1.27047 0)
(1.59937 1.26985 0)
(1.63276 1.2578 0)
(1.67075 1.23495 0)
(2.33303 0.645282 0)
(3.02067 -0.0178269 0)
(2.99974 0.000164751 0)
(3 -4.2747e-06 0)
(3 8.37883e-08 0)
(3 -8.52607e-10 0)
(3 7.90186e-15 0)
(3 1.43354e-15 0)
(3 2.05913e-15 0)
(3 4.42712e-15 0)
(3 4.09863e-15 0)
(3 3.21823e-15 0)
(3 3.44239e-15 0)
(3 3.60383e-15 0)
(3 2.43775e-15 0)
(3 1.08882e-15 0)
(1.58759 1.28807 0)
(1.58673 1.28701 0)
(1.63895 1.25682 0)
(1.75805 1.15895 0)
(2.66532 0.280392 0)
(3 -5.77556e-10 0)
(3 1.39447e-08 0)
(3 -1.26073e-08 0)
(3 5.47306e-10 0)
(3 3.53692e-12 0)
(3 -4.80114e-14 0)
(3 5.91022e-16 0)
(3 1.06494e-15 0)
(3 3.9064e-15 0)
(3 3.5078e-15 0)
(3 2.77399e-15 0)
(3 2.96421e-15 0)
(3 3.70372e-15 0)
(3 2.84414e-15 0)
(3 1.03112e-15 0)
(1.58871 1.3012 0)
(1.55607 1.29982 0)
(1.67878 1.22717 0)
(2.19945 0.81959 0)
(3.02345 -0.0228976 0)
(3 -1.3182e-12 0)
(3 -1.87795e-11 0)
(3 2.52217e-11 0)
(3 -3.69632e-12 0)
(3 -3.01077e-15 0)
(3 1.81379e-15 0)
(3 5.45528e-16 0)
(3 5.01086e-16 0)
(3 2.08641e-15 0)
(3 3.15499e-15 0)
(3 2.91201e-15 0)
(3 3.05613e-15 0)
(3 4.03573e-15 0)
(3 2.95212e-15 0)
(3 8.3353e-16 0)
(1.58988 1.32815 0)
(1.49962 1.3281 0)
(1.7295 1.1949 0)
(2.38985 0.557706 0)
(3 -8.35954e-13 0)
(3 6.97523e-15 0)
(3 2.6797e-15 0)
(3 -2.57679e-14 0)
(3 1.69118e-14 0)
(3 5.46476e-16 0)
(3 2.64146e-16 0)
(3 7.08535e-16 0)
(3 4.77916e-16 0)
(3 7.13414e-16 0)
(3 1.66774e-15 0)
(3 2.19231e-15 0)
(3 2.84373e-15 0)
(3 2.99816e-15 0)
(3 2.80629e-15 0)
(3 1.18838e-15 0)
(1.59096 1.30394 0)
(1.47576 1.34027 0)
(2.01307 1.02621 0)
(2.90181 0.102862 0)
(3 -8.26257e-13 0)
(3 1.12229e-15 0)
(3 6.86703e-16 0)
(3 1.49507e-16 0)
(3 -2.74903e-16 0)
(3 1.44639e-15 0)
(3 9.47963e-16 0)
(3 -1.32241e-16 0)
(3 -8.09923e-16 0)
(3 -2.50229e-16 0)
(3 9.30066e-16 0)
(3 1.03515e-15 0)
(3 1.69961e-15 0)
(3 2.25564e-15 0)
(3 2.54264e-15 0)
(3 1.9112e-15 0)
(1.60564 1.29538 0)
(1.48078 1.39668 0)
(2.12998 0.850477 0)
(3.01076 -0.00869174 0)
(3 1.24868e-11 0)
(3 -5.61402e-15 0)
(3 1.58862e-15 0)
(3 1.61284e-15 0)
(3 1.54324e-15 0)
(3 1.50657e-15 0)
(3 1.17273e-15 0)
(3 4.88048e-16 0)
(3 -9.80505e-17 0)
(3 -5.70823e-16 0)
(3 -5.46624e-16 0)
(3 -5.51708e-16 0)
(3 -1.5234e-16 0)
(3 3.59905e-16 0)
(3 1.13501e-15 0)
(3 2.64713e-15 0)
(1.62113 1.28009 0)
(1.57924 1.31223 0)
(2.43634 0.531027 0)
(3 3.39277e-15 0)
(3 -2.20003e-14 0)
(3 2.20081e-15 0)
(3 1.37795e-15 0)
(3 1.89361e-15 0)
(3 2.7489e-15 0)
(3 2.44261e-15 0)
(3 1.72288e-15 0)
(3 1.27397e-15 0)
(3 1.01182e-15 0)
(3 -4.63624e-16 0)
(3 -1.14164e-15 0)
(3 -1.81329e-15 0)
(3 -1.65821e-15 0)
(3 -1.41554e-15 0)
(3 -5.61538e-16 0)
(3 1.54423e-16 0)
(1.63438 1.26128 0)
(1.62082 1.25591 0)
(2.63543 0.310722 0)
(3 1.18196e-15 0)
(3 2.14223e-15 0)
(3 1.55879e-15 0)
(3 2.3163e-15 0)
(3 2.42164e-15 0)
(3 3.25435e-15 0)
(3 2.91022e-15 0)
(3 2.15731e-15 0)
(3 1.78968e-15 0)
(3 2.07e-15 0)
(3 1.05233e-15 0)
(3 -6.01093e-16 0)
(3 -1.25621e-15 0)
(3 -1.63387e-15 0)
(3 -1.93862e-15 0)
(3 -1.56023e-15 0)
(3 -1.66992e-15 0)
(1.64909 1.2449 0)
(1.82474 1.10376 0)
(2.86563 0.100834 0)
(3 1.24078e-18 0)
(3 1.79406e-15 0)
(3 1.90582e-15 0)
(3 2.34296e-15 0)
(3 2.61954e-15 0)
(3 3.05659e-15 0)
(3 3.98658e-15 0)
(3 3.74479e-15 0)
(3 4.12399e-15 0)
(3 4.71538e-15 0)
(3 3.44664e-15 0)
(3 2.52458e-15 0)
(3 1.57945e-15 0)
(3 -1.28852e-15 0)
(3 -1.84725e-15 0)
(3 -1.32359e-15 0)
(3 -7.21691e-16 0)
(1.66377 1.20446 0)
(1.8838 0.977851 0)
(2.982 0.0116981 0)
(3 -8.14237e-17 0)
(3 4.1051e-16 0)
(3 8.93016e-16 0)
(3 1.73983e-15 0)
(3 2.15938e-15 0)
(3 2.78543e-15 0)
(3 3.51851e-15 0)
(3 3.67882e-15 0)
(3 3.79208e-15 0)
(3 3.46207e-15 0)
(3 3.03909e-15 0)
(3 2.1759e-15 0)
(3 1.17866e-15 0)
(3 2.72891e-16 0)
(3 -2.69342e-16 0)
(3 -2.51193e-16 0)
(3 -3.3154e-16 0)
(1.72795 1.16985 0)
(2.07227 0.813745 0)
(3 -3.49423e-15 0)
(3 -3.04451e-15 0)
(3 -2.13153e-15 0)
(3 -1.62198e-15 0)
(3 -9.38942e-16 0)
(3 4.35947e-16 0)
(3 1.39741e-15 0)
(3 2.46857e-15 0)
(3 2.57486e-15 0)
(3 2.9658e-15 0)
(3 3.24471e-15 0)
(3 2.94123e-15 0)
(3 2.1804e-15 0)
(3 7.27001e-16 0)
(3 2.16599e-16 0)
(3 -2.06564e-16 0)
(3 -1.88701e-16 0)
(3 -6.15266e-16 0)
(1.7759 1.09379 0)
(2.24754 0.641754 0)
(3 -4.6907e-15 0)
(3 -4.46697e-15 0)
(3 -3.23105e-15 0)
(3 -1.51911e-15 0)
(3 -4.47395e-17 0)
(3 5.84946e-16 0)
(3 1.5585e-15 0)
(3 2.41837e-15 0)
(3 2.46555e-15 0)
(3 2.33125e-15 0)
(3 2.29332e-15 0)
(3 2.43318e-15 0)
(3 2.60384e-15 0)
(3 2.26532e-15 0)
(3 1.35962e-15 0)
(3 -3.23744e-16 0)
(3 -1.39992e-16 0)
(3 -3.47236e-16 0)
(1.81713 1.00496 0)
(2.44845 0.444431 0)
(3 -4.6347e-15 0)
(3 -4.11003e-15 0)
(3 -3.69018e-15 0)
(3 -3.18178e-15 0)
(3 -2.4779e-15 0)
(3 -1.30548e-15 0)
(3 -8.46444e-16 0)
(3 -8.32244e-17 0)
(3 5.30443e-16 0)
(3 1.2854e-15 0)
(3 1.31614e-15 0)
(3 1.3609e-15 0)
(3 1.56067e-15 0)
(3 1.40478e-15 0)
(3 1.25873e-15 0)
(3 7.14289e-16 0)
(3 8.01772e-17 0)
(3 -2.30724e-16 0)
(1.91701 0.875715 0)
(2.69218 0.219602 0)
(3 -4.03186e-15 0)
(3 -2.59494e-15 0)
(3 -1.59635e-15 0)
(3 -4.12558e-16 0)
(3 -3.56403e-17 0)
(3 -3.6089e-16 0)
(3 -4.09826e-16 0)
(3 -1.87792e-16 0)
(3 2.42737e-16 0)
(3 1.37635e-15 0)
(3 1.41825e-15 0)
(3 1.20252e-15 0)
(3 1.47009e-15 0)
(3 1.73774e-15 0)
(3 1.70563e-15 0)
(3 1.37535e-15 0)
(3 1.00214e-15 0)
(3 5.82774e-16 0)
(2.10354 0.673362 0)
(2.98955 6.47439e-05 0)
(3 -4.0082e-15 0)
(3 -4.73365e-15 0)
(3 -4.72098e-15 0)
(3 -4.42701e-15 0)
(3 -3.16825e-15 0)
(3 -1.83386e-15 0)
(3 -9.15752e-16 0)
(3 -2.02619e-16 0)
(3 -1.10529e-16 0)
(3 -7.401e-17 0)
(3 -2.99988e-16 0)
(3 -4.66969e-16 0)
(3 -6.27014e-16 0)
(3 -5.15185e-16 0)
(3 -6.45722e-16 0)
(3 -8.73686e-16 0)
(3 -9.4494e-16 0)
(3 -1.01997e-15 0)
(1.99422 0.369287 0)
(2.99991 -1.10837e-05 0)
(3 -5.23459e-15 0)
(3 -6.28249e-15 0)
(3 -5.25272e-15 0)
(3 -4.6358e-15 0)
(3 -3.54693e-15 0)
(3 -1.82623e-15 0)
(3 -1.13668e-15 0)
(3 -1.25979e-15 0)
(3 -1.93381e-15 0)
(3 -2.23511e-15 0)
(3 -1.8073e-15 0)
(3 -1.70139e-15 0)
(3 -1.64598e-15 0)
(3 -9.85931e-16 0)
(3 -6.34581e-16 0)
(3 -5.65148e-17 0)
(3 2.38833e-16 0)
(3 2.54174e-16 0)
(1.99428 -0.369155 0)
(2.99991 1.13944e-05 0)
(3 -4.81087e-15 0)
(3 -4.50916e-15 0)
(3 -4.52507e-15 0)
(3 -3.80631e-15 0)
(3 -4.22885e-15 0)
(3 -4.51099e-15 0)
(3 -4.69244e-15 0)
(3 -4.65484e-15 0)
(3 -3.95465e-15 0)
(3 -3.08946e-15 0)
(3 -2.30885e-15 0)
(3 -1.47066e-15 0)
(3 -7.72432e-16 0)
(3 -1.99194e-16 0)
(3 -6.31972e-17 0)
(3 8.39752e-16 0)
(3 1.28856e-15 0)
(3 1.25503e-15 0)
(2.10414 -0.675201 0)
(2.98949 -5.53653e-05 0)
(3 -1.67619e-15 0)
(3 -2.18164e-15 0)
(3 -2.55565e-15 0)
(3 -3.17703e-15 0)
(3 -3.41992e-15 0)
(3 -3.41774e-15 0)
(3 -4.08736e-15 0)
(3 -4.33295e-15 0)
(3 -4.31891e-15 0)
(3 -3.63988e-15 0)
(3 -2.856e-15 0)
(3 -1.7893e-15 0)
(3 -1.23595e-15 0)
(3 -1.27347e-15 0)
(3 -8.52893e-16 0)
(3 -6.26504e-16 0)
(3 -8.62437e-16 0)
(3 -7.93093e-16 0)
(1.91565 -0.875025 0)
(2.69182 -0.219555 0)
(3 -1.23341e-15 0)
(3 -9.64536e-16 0)
(3 -1.02877e-15 0)
(3 -1.1047e-15 0)
(3 -1.63063e-15 0)
(3 -2.54463e-15 0)
(3 -3.76468e-15 0)
(3 -4.33057e-15 0)
(3 -4.10301e-15 0)
(3 -3.39404e-15 0)
(3 -2.46473e-15 0)
(3 -1.68398e-15 0)
(3 -1.4327e-15 0)
(3 -8.72443e-16 0)
(3 -6.87612e-16 0)
(3 -9.3518e-16 0)
(3 -8.16738e-16 0)
(3 1.97445e-16 0)
(1.81936 -1.00477 0)
(2.44955 -0.444366 0)
(3 6.45655e-16 0)
(3 1.74384e-15 0)
(3 1.47995e-15 0)
(3 1.72277e-15 0)
(3 1.34804e-15 0)
(3 8.21665e-16 0)
(3 2.18162e-16 0)
(3 3.71443e-16 0)
(3 5.00067e-16 0)
(3 7.06648e-16 0)
(3 9.89287e-16 0)
(3 1.00876e-15 0)
(3 8.57021e-16 0)
(3 1.31829e-15 0)
(3 2.14483e-15 0)
(3 2.93013e-15 0)
(3 2.97458e-15 0)
(3 2.91424e-15 0)
(1.77301 -1.09344 0)
(2.24676 -0.641295 0)
(3 -2.23166e-16 0)
(3 -3.03603e-16 0)
(3 1.57335e-16 0)
(3 7.98469e-16 0)
(3 1.4019e-15 0)
(3 1.57887e-15 0)
(3 2.13174e-15 0)
(3 2.21229e-15 0)
(3 2.33373e-15 0)
(3 2.11579e-15 0)
(3 2.96143e-15 0)
(3 3.79754e-15 0)
(3 4.45022e-15 0)
(3 4.50152e-15 0)
(3 3.75639e-15 0)
(3 3.20549e-15 0)
(3 2.90831e-15 0)
(3 2.82418e-15 0)
(1.72865 -1.17043 0)
(2.07274 -0.813783 0)
(3 -3.12355e-16 0)
(3 -4.42094e-16 0)
(3 1.27644e-15 0)
(3 1.57723e-15 0)
(3 1.71253e-15 0)
(3 1.66488e-15 0)
(3 1.88654e-15 0)
(3 1.86626e-15 0)
(3 1.14871e-15 0)
(3 1.36327e-15 0)
(3 2.24101e-15 0)
(3 3.68549e-15 0)
(3 3.82472e-15 0)
(3 3.16873e-15 0)
(3 2.07164e-15 0)
(3 2.23071e-15 0)
(3 2.49086e-15 0)
(3 2.42471e-15 0)
(1.66434 -1.20455 0)
(1.88386 -0.977927 0)
(2.98177 -0.0117772 0)
(3 7.1169e-17 0)
(3 6.89889e-16 0)
(3 1.26491e-15 0)
(3 1.04021e-15 0)
(3 1.57386e-15 0)
(3 1.9244e-15 0)
(3 1.40951e-15 0)
(3 3.15029e-16 0)
(3 4.55291e-16 0)
(3 1.44954e-15 0)
(3 1.94387e-15 0)
(3 2.42095e-15 0)
(3 1.59925e-15 0)
(3 1.00419e-15 0)
(3 8.39263e-16 0)
(3 5.60848e-16 0)
(3 6.59591e-16 0)
(1.64928 -1.2447 0)
(1.824 -1.10382 0)
(2.86537 -0.100922 0)
(3 1.3247e-15 0)
(3 9.36905e-16 0)
(3 1.03763e-15 0)
(3 9.16629e-16 0)
(3 7.95135e-16 0)
(3 4.35525e-16 0)
(3 -3.54201e-16 0)
(3 -3.91596e-16 0)
(3 6.89265e-16 0)
(3 2.11081e-15 0)
(3 1.72629e-15 0)
(3 1.56917e-15 0)
(3 8.57772e-16 0)
(3 7.86894e-16 0)
(3 7.32702e-16 0)
(3 7.60546e-16 0)
(3 5.89375e-16 0)
(1.6345 -1.26113 0)
(1.6214 -1.25564 0)
(2.6357 -0.310579 0)
(3 1.2187e-15 0)
(3 3.81629e-16 0)
(3 1.11963e-15 0)
(3 9.37648e-16 0)
(3 8.27483e-16 0)
(3 4.87102e-16 0)
(3 -1.92117e-16 0)
(3 -3.33737e-16 0)
(3 2.05352e-15 0)
(3 2.73163e-15 0)
(3 2.04816e-15 0)
(3 1.47938e-15 0)
(3 1.04117e-15 0)
(3 1.14375e-15 0)
(3 4.76021e-16 0)
(3 3.50289e-16 0)
(3 -1.11626e-16 0)
(1.62128 -1.28036 0)
(1.57979 -1.31187 0)
(2.43633 -0.530836 0)
(3 6.60885e-16 0)
(3 2.09767e-14 0)
(3 9.65713e-16 0)
(3 1.17569e-15 0)
(3 1.2939e-15 0)
(3 1.66987e-15 0)
(3 8.02129e-16 0)
(3 7.20927e-16 0)
(3 1.97964e-15 0)
(3 1.95396e-15 0)
(3 1.78235e-15 0)
(3 1.28572e-15 0)
(3 9.28585e-16 0)
(3 9.77417e-16 0)
(3 2.31534e-16 0)
(3 -1.99312e-16 0)
(3 -5.89853e-16 0)
(1.60575 -1.29557 0)
(1.48118 -1.39678 0)
(2.12886 -0.851089 0)
(3.01078 0.00870628 0)
(3 -1.25024e-11 0)
(3 9.14646e-15 0)
(3 1.22915e-15 0)
(3 1.5985e-15 0)
(3 2.79133e-15 0)
(3 1.38849e-15 0)
(3 4.87184e-16 0)
(3 1.15171e-15 0)
(3 1.57851e-15 0)
(3 1.70391e-15 0)
(3 1.36628e-15 0)
(3 4.35191e-16 0)
(3 -2.92719e-16 0)
(3 -2.83842e-16 0)
(3 -6.56241e-16 0)
(3 -9.29663e-16 0)
(1.59093 -1.304 0)
(1.47585 -1.33995 0)
(2.01306 -1.02662 0)
(2.90163 -0.103215 0)
(3 8.28946e-13 0)
(3 -2.76475e-15 0)
(3 1.19507e-15 0)
(3 1.6621e-15 0)
(3 2.52653e-15 0)
(3 8.03755e-16 0)
(3 -5.32969e-16 0)
(3 -2.42252e-16 0)
(3 9.02536e-16 0)
(3 4.35504e-16 0)
(3 1.30115e-16 0)
(3 3.27328e-16 0)
(3 2.88894e-16 0)
(3 -2.63334e-16 0)
(3 -7.02661e-16 0)
(3 -1.01563e-15 0)
(1.58973 -1.32805 0)
(1.49958 -1.32818 0)
(1.72914 -1.19569 0)
(2.38894 -0.559214 0)
(3 8.40226e-13 0)
(3 -3.36437e-15 0)
(3 5.72942e-15 0)
(3 1.69018e-14 0)
(3 -1.26983e-14 0)
(3 3.15026e-16 0)
(3 -1.84928e-16 0)
(3 -1.97067e-16 0)
(3 2.66663e-16 0)
(3 1.62924e-16 0)
(3 3.82428e-16 0)
(3 3.62032e-16 0)
(3 1.27936e-15 0)
(3 1.84295e-17 0)
(3 -1.09791e-15 0)
(3 -1.22252e-15 0)
(1.58843 -1.30084 0)
(1.55595 -1.29959 0)
(1.67919 -1.22734 0)
(2.20049 -0.819492 0)
(3.0234 0.0228883 0)
(3 1.33171e-12 0)
(3 1.8814e-11 0)
(3 -2.52792e-11 0)
(3 3.69719e-12 0)
(3 4.96358e-15 0)
(3 -8.04741e-16 0)
(3 1.29457e-16 0)
(3 2.83061e-16 0)
(3 -3.46561e-16 0)
(3 -3.76655e-16 0)
(3 1.06412e-15 0)
(3 1.52941e-15 0)
(3 4.83938e-16 0)
(3 -4.7935e-16 0)
(3 6.1016e-17 0)
(1.58748 -1.28788 0)
(1.58677 -1.28685 0)
(1.63909 -1.25622 0)
(1.75927 -1.15772 0)
(2.66543 -0.280005 0)
(3 5.78428e-10 0)
(3 -1.39567e-08 0)
(3 1.26163e-08 0)
(3 -5.47355e-10 0)
(3 -3.52658e-12 0)
(3 4.75154e-14 0)
(3 -2.56359e-16 0)
(3 -5.87111e-16 0)
(3 -9.31655e-16 0)
(3 -9.86216e-16 0)
(3 1.75615e-16 0)
(3 1.60144e-15 0)
(3 9.71276e-16 0)
(3 -3.25114e-16 0)
(3 -1.11735e-16 0)
(1.58636 -1.27065 0)
(1.59922 -1.27039 0)
(1.63282 -1.25826 0)
(1.67008 -1.23586 0)
(2.33184 -0.646581 0)
(3.02076 0.0179799 0)
(2.99974 -0.000163065 0)
(3 4.26769e-06 0)
(3 -8.38537e-08 0)
(3 8.5219e-10 0)
(3 -6.52119e-15 0)
(3 -3.07463e-16 0)
(3 -4.54043e-16 0)
(3 -5.85076e-16 0)
(3 -1.55253e-15 0)
(3 -6.28328e-16 0)
(3 5.50587e-16 0)
(3 1.21753e-15 0)
(3 4.30167e-16 0)
(3 -8.17637e-17 0)
(1.58712 -1.25565 0)
(1.60777 -1.25951 0)
(1.62551 -1.25588 0)
(1.6228 -1.27524 0)
(1.90388 -1.05159 0)
(2.76925 -0.20259 0)
(3.00462 0.00160103 0)
(2.99992 -7.65461e-05 0)
(3 7.58807e-07 0)
(3 -7.89053e-10 0)
(3 -1.89951e-14 0)
(3 9.76815e-16 0)
(3 2.67766e-16 0)
(3 -1.83033e-16 0)
(3 -2.01642e-15 0)
(3 -7.57356e-16 0)
(3 2.34132e-16 0)
(3 7.85139e-16 0)
(3 4.96175e-16 0)
(3 4.39323e-16 0)
(1.58817 -1.24967 0)
(1.60434 -1.25574 0)
(1.61444 -1.25948 0)
(1.59663 -1.29048 0)
(1.68663 -1.22246 0)
(2.16811 -0.801158 0)
(2.99178 0.000540536 0)
(3.00034 0.000679497 0)
(3 -5.84251e-07 0)
(3 -6.35351e-11 0)
(3 1.61816e-13 0)
(3 -2.71508e-16 0)
(3 1.0886e-15 0)
(3 1.54586e-16 0)
(3 -2.3626e-15 0)
(3 -4.89694e-16 0)
(3 3.60756e-17 0)
(3 5.1926e-17 0)
(3 5.69849e-16 0)
(3 -5.72498e-16 0)
(1.58304 -1.25199 0)
(1.59485 -1.25873 0)
(1.60038 -1.27306 0)
(1.60151 -1.2842 0)
(1.65411 -1.26652 0)
(1.77139 -1.19803 0)
(2.28838 -0.731374 0)
(2.99943 -0.0115066 0)
(3 -3.99704e-08 0)
(3 -6.85497e-11 0)
(3 -8.24282e-14 0)
(3 1.64354e-15 0)
(3 7.11411e-15 0)
(3 -3.19376e-15 0)
(3 -7.83576e-16 0)
(3 -9.87311e-16 0)
(3 5.81329e-16 0)
(3 6.21592e-16 0)
(3 -3.43403e-17 0)
(3 -1.30713e-15 0)
(1.57908 -1.25631 0)
(1.58281 -1.26381 0)
(1.5877 -1.27151 0)
(1.59721 -1.26842 0)
(1.61377 -1.25658 0)
(1.60638 -1.26491 0)
(1.89927 -1.17916 0)
(2.99741 -0.371343 0)
(3.3208 0.586293 0)
(3 -4.66735e-11 0)
(3 -1.308e-11 0)
(3 -5.05328e-14 0)
(3 -3.37381e-12 0)
(3 3.19553e-12 0)
(3 -6.28827e-15 0)
(3 -6.03891e-15 0)
(3 -1.57595e-15 0)
(3 1.12306e-15 0)
(3 -8.07526e-16 0)
(3 -1.00718e-15 0)
(1.16809 -0.764606 0)
(1.8332 -1.14409 0)
(1.83294 -1.15658 0)
(1.73479 -1.1968 0)
(1.71442 -1.19613 0)
(1.66603 -1.24048 0)
(1.65576 -1.21549 0)
(1.72588 -1.16765 0)
(1.76024 -1.23321 0)
(1.79691 -1.14107 0)
(2.28401 -0.732737 0)
(2.86582 -0.202753 0)
(3.09737 0.0294213 0)
(3.0205 0.01241 0)
(3.00454 0.0054206 0)
(3.00184 0.00299768 0)
(3.00006 0.000587218 0)
(2.99998 2.2479e-05 0)
(2.99999 -1.45458e-05 0)
(3 -5.98326e-06 0)
(1.00321 -0.0332533 0)
(1.91054 -0.814986 0)
(2.12449 -0.793964 0)
(1.98641 -0.977672 0)
(1.9462 -0.985481 0)
(1.87624 -1.06956 0)
(1.79584 -1.12446 0)
(1.7596 -1.14512 0)
(1.75674 -1.1625 0)
(1.73451 -1.20419 0)
(1.71906 -1.19361 0)
(1.86748 -1.06504 0)
(2.10005 -0.882423 0)
(2.50598 -0.575081 0)
(2.9896 -0.13352 0)
(3.07332 0.0296512 0)
(3.00806 0.00763132 0)
(3.00293 0.00384721 0)
(3.00124 0.00221121 0)
(3.00008 0.000483082 0)
(1.10049 0.0234887 0)
(1.91393 0.150886 0)
(2.20989 -0.480418 0)
(2.25977 -0.451431 0)
(2.17253 -0.665114 0)
(2.14921 -0.751405 0)
(2.03074 -0.906063 0)
(1.96682 -0.960481 0)
(1.9069 -1.03044 0)
(1.85614 -1.12067 0)
(1.789 -1.1548 0)
(1.79118 -1.14949 0)
(1.80853 -1.12889 0)
(1.85038 -1.08513 0)
(2.04212 -0.947541 0)
(2.25869 -0.825592 0)
(2.66234 -0.501671 0)
(3.03569 -0.0908792 0)
(3.05634 0.0246345 0)
(3.00421 0.00482571 0)
(1.17432 0.668812 0)
(1.71878 1.14587 0)
(2.14831 0.927306 0)
(2.29311 -0.183292 0)
(2.35144 -0.220304 0)
(2.33293 -0.379342 0)
(2.29858 -0.508777 0)
(2.2021 -0.68222 0)
(2.13765 -0.776588 0)
(2.09197 -0.901475 0)
(1.97584 -1.00892 0)
(1.91266 -1.0658 0)
(1.87599 -1.08743 0)
(1.86414 -1.09136 0)
(1.8704 -1.05495 0)
(1.89751 -1.04531 0)
(1.96126 -1.01805 0)
(2.16158 -0.900283 0)
(2.37687 -0.79263 0)
(2.77308 -0.448447 0)
(1.26909 1.12942 0)
(1.5822 1.85088 0)
(2.10422 1.45376 0)
(2.21753 0.787774 0)
(2.31709 0.735696 0)
(2.41597 0.0970317 0)
(2.44864 -0.189271 0)
(2.38768 -0.418187 0)
(2.33393 -0.513978 0)
(2.29587 -0.656201 0)
(2.20339 -0.790751 0)
(2.11833 -0.885533 0)
(2.06215 -0.931724 0)
(2.01642 -0.968836 0)
(1.99087 -0.960694 0)
(1.96154 -0.976859 0)
(1.95259 -1.00918 0)
(1.96768 -0.997782 0)
(1.99166 -0.998951 0)
(2.06711 -0.983564 0)
(1.1126 1.09255 0)
(1.74318 1.89301 0)
(2.5303 1.30025 0)
(2.1613 1.45949 0)
(2.34674 1.01121 0)
(2.41731 0.862803 0)
(2.46854 0.371861 0)
(2.49513 0.210432 0)
(2.44473 -0.0679574 0)
(2.45874 -0.18225 0)
(2.41169 -0.361751 0)
(2.33886 -0.514761 0)
(2.29423 -0.608358 0)
(2.23317 -0.70295 0)
(2.18134 -0.765684 0)
(2.12946 -0.813943 0)
(2.06417 -0.890333 0)
(2.04432 -0.918387 0)
(2.03315 -0.940952 0)
(2.06161 -0.955496 0)
(1.11268 1.09316 0)
(1.61685 1.42833 0)
(2.46579 1.70672 0)
(2.36206 2.05227 0)
(2.59899 1.00409 0)
(2.41499 1.21453 0)
(2.47432 0.875718 0)
(2.51758 0.573343 0)
(2.50492 0.408706 0)
(2.52571 0.212704 0)
(2.54121 0.00383926 0)
(2.48309 -0.231592 0)
(2.46408 -0.375876 0)
(2.39216 -0.537225 0)
(2.33847 -0.632165 0)
(2.28832 -0.67574 0)
(2.22882 -0.726844 0)
(2.22734 -0.701969 0)
(2.18963 -0.744006 0)
(2.14561 -0.775931 0)
(1.24521 1.09906 0)
(1.51717 1.29 0)
(1.96384 1.81918 0)
(2.09365 2.12964 0)
(2.53355 1.30388 0)
(2.56808 1.42339 0)
(2.73889 1.09635 0)
(2.72745 0.585363 0)
(2.68144 0.548424 0)
(2.65081 0.22907 0)
(2.65789 0.0789585 0)
(2.60051 -0.126515 0)
(2.57622 -0.233266 0)
(2.53318 -0.338387 0)
(2.49534 -0.388777 0)
(2.46005 -0.395206 0)
(2.43119 -0.391467 0)
(2.4005 -0.428492 0)
(2.31793 -0.558863 0)
(2.30786 -0.549602 0)
(1.2837 1.16882 0)
(1.46378 1.26653 0)
(1.80211 1.75108 0)
(1.86898 1.96125 0)
(2.02324 1.73493 0)
(2.28719 1.50841 0)
(2.4716 1.36835 0)
(2.61914 0.845937 0)
(2.70813 0.595861 0)
(2.69453 0.58195 0)
(2.67547 0.393026 0)
(2.66136 0.276987 0)
(2.64058 0.175494 0)
(2.63995 0.111296 0)
(2.59876 -0.00227162 0)
(2.58918 -0.040229 0)
(2.55377 -0.153536 0)
(2.50436 -0.291812 0)
(2.43476 -0.406061 0)
(2.44853 -0.357122 0)
(1.3279 1.32646 0)
(1.39983 1.42799 0)
(1.7089 1.7612 0)
(1.85781 1.92541 0)
(1.95882 1.80438 0)
(2.10676 1.52823 0)
(2.23473 1.54442 0)
(2.42773 1.27522 0)
(2.49757 1.13751 0)
(2.48189 1.14279 0)
(2.53377 0.909958 0)
(2.57785 0.759251 0)
(2.60375 0.576181 0)
(2.6763 0.470565 0)
(2.65161 0.229896 0)
(2.67266 0.10259 0)
(2.63169 -0.114372 0)
(2.59188 -0.174452 0)
(2.53737 -0.197721 0)
(2.57829 -0.0841091 0)
(1.4579 1.54683 0)
(1.41361 1.69431 0)
(1.48778 1.94817 0)
(1.80866 1.91009 0)
(1.87641 1.92388 0)
(2.03504 1.63482 0)
(2.05109 1.6894 0)
(2.21477 1.54493 0)
(2.30443 1.38159 0)
(2.37842 1.30264 0)
(2.49722 1.11077 0)
(2.5951 0.908276 0)
(2.65658 0.672834 0)
(2.7395 0.520332 0)
(2.71816 0.266775 0)
(2.71302 0.185969 0)
(2.69721 0.0672267 0)
(2.67133 0.135295 0)
(2.649 0.159065 0)
(2.61755 0.0542342 0)
(1.64615 1.72633 0)
(1.56223 1.94939 0)
(1.5427 2.18694 0)
(1.7261 2.10514 0)
(1.84062 2.02886 0)
(2.0018 1.71389 0)
(2.02861 1.7371 0)
(2.16823 1.62799 0)
(2.3381 1.50778 0)
(2.49016 1.28746 0)
(2.62899 1.11148 0)
(2.69315 0.857368 0)
(2.71422 0.725953 0)
(2.74201 0.622269 0)
(2.75746 0.545897 0)
(2.74234 0.509909 0)
(2.72304 0.447128 0)
(2.72438 0.500553 0)
(2.70339 0.402563 0)
(2.67069 0.211825 0)
(1.83203 1.75195 0)
(1.8072 1.96074 0)
(1.68603 2.29904 0)
(1.76686 2.19298 0)
(1.9069 2.11431 0)
(2.09487 1.75491 0)
(2.17604 1.7792 0)
(2.336 1.67336 0)
(2.55954 1.58398 0)
(2.67334 1.32188 0)
(2.70283 1.34747 0)
(2.7503 1.15789 0)
(2.7181 1.14198 0)
(2.71516 1.06616 0)
(2.70815 0.967538 0)
(2.69538 0.858222 0)
(2.70403 0.80454 0)
(2.7558 0.734536 0)
(2.7493 0.528804 0)
(2.74613 0.349359 0)
(1.88921 1.7004 0)
(2.00796 1.83741 0)
(1.83773 2.28782 0)
(1.92816 2.34698 0)
(2.08656 2.20032 0)
(2.22154 2.10378 0)
(2.35095 1.89487 0)
(2.39873 1.84142 0)
(2.49459 1.78987 0)
(2.62277 1.60433 0)
(2.56335 1.6398 0)
(2.60463 1.51438 0)
(2.59093 1.39973 0)
(2.61158 1.32361 0)
(2.63757 1.18903 0)
(2.67 1.06651 0)
(2.75232 0.972284 0)