/*--------------------------------*- C++ -*----------------------------------*\
  =========                 |
  \\      /  F ield         | OpenFOAM: The Open Source CFD Toolbox
   \\    /   O peration     | Website:  https://openfoam.org
    \\  /    A nd           | Version:  7
     \\/     M anipulation  |
\*---------------------------------------------------------------------------*/
FoamFile
{
    version     2.0;
    format      ascii;
    class       volVectorField;
    location    "0.5";
    object      U;
}
// * * * * * * * * * * * * * * * * * * * * * * * * * * * * * * * * * * * * * //

dimensions      [0 1 -1 0 0 0 0];

internalField   nonuniform List<vector> 
3700
(
(0.50398 -0.121794 0)
(0.481941 -0.198529 0)
(0.556475 -0.106884 0)
(0.645091 -0.112897 0)
(0.739415 -0.116948 0)
(0.821038 -0.140006 0)
(0.885451 -0.172228 0)
(0.938979 -0.166885 0)
(1.01784 -0.136963 0)
(1.10562 -0.125762 0)
(1.20367 -0.133817 0)
(1.30873 -0.146929 0)
(1.39707 -0.194349 0)
(1.47319 -0.229029 0)
(1.51891 -0.271873 0)
(1.55824 -0.281615 0)
(1.58978 -0.273517 0)
(1.58153 -0.234686 0)
(1.55855 -0.178187 0)
(1.5715 -0.105479 0)
(1.07838 -0.44157 0)
(0.966895 -0.556302 0)
(0.974843 -0.380077 0)
(1.07662 -0.358279 0)
(1.23415 -0.377665 0)
(1.45601 -0.448948 0)
(1.68235 -0.571682 0)
(1.84751 -0.649854 0)
(1.99345 -0.730947 0)
(2.03069 -0.813392 0)
(2.04479 -0.922035 0)
(2.12325 -1.00705 0)
(2.14834 -1.16089 0)
(2.14701 -1.31043 0)
(2.15741 -1.46104 0)
(2.17697 -1.45524 0)
(2.21178 -1.48859 0)
(2.25076 -1.38629 0)
(2.25871 -1.18782 0)
(2.32896 -0.925446 0)
(1.32069 -1.21706 0)
(1.35252 -1.51112 0)
(1.63825 -1.68367 0)
(1.9053 -1.84693 0)
(1.96939 -2.04384 0)
(2.09161 -2.33541 0)
(2.0982 -2.25913 0)
(2.07974 -2.22455 0)
(2.17885 -2.15516 0)
(2.27703 -2.11548 0)
(2.36693 -2.07847 0)
(2.44281 -2.04851 0)
(2.48811 -2.03705 0)
(2.52261 -2.00028 0)
(2.48341 -2.02258 0)
(2.50931 -1.92579 0)
(2.52092 -1.95526 0)
(2.5652 -1.80138 0)
(2.59947 -1.73452 0)
(2.71617 -1.63728 0)
(1.1925 -1.19278 0)
(1.39142 -1.51143 0)
(1.65923 -1.98289 0)
(1.84989 -2.33764 0)
(1.95286 -2.43463 0)
(2.02668 -2.39391 0)
(2.08403 -2.25006 0)
(2.04494 -2.30747 0)
(2.19819 -2.22683 0)
(2.33468 -2.07954 0)
(2.47216 -1.97376 0)
(2.61444 -1.93422 0)
(2.75627 -1.78595 0)
(2.86429 -1.65647 0)
(2.83588 -1.65706 0)
(2.84 -1.64105 0)
(2.7511 -1.771 0)
(2.72331 -1.65131 0)
(2.69909 -1.5945 0)
(2.70316 -1.46931 0)
(1.16835 -1.21721 0)
(1.47573 -1.55623 0)
(1.78874 -1.98109 0)
(2.06446 -2.22159 0)
(2.27059 -2.36609 0)
(2.31861 -2.43054 0)
(2.37244 -2.24395 0)
(2.29917 -2.28098 0)
(2.37971 -2.2446 0)
(2.46843 -2.04671 0)
(2.54104 -1.9423 0)
(2.60553 -1.87901 0)
(2.66513 -1.82625 0)
(2.73786 -1.68183 0)
(2.80495 -1.44868 0)
(2.93344 -1.30394 0)
(2.93883 -1.20512 0)
(2.92863 -1.20232 0)
(2.89611 -1.19258 0)
(2.8297 -1.18832 0)
(1.22787 -1.25004 0)
(1.57187 -1.54056 0)
(1.95046 -1.96247 0)
(2.20446 -2.19965 0)
(2.46264 -2.2178 0)
(2.52359 -2.30104 0)
(2.60204 -2.06382 0)
(2.52748 -2.13811 0)
(2.6061 -2.07918 0)
(2.65911 -1.98982 0)
(2.69924 -1.8958 0)
(2.76925 -1.76534 0)
(2.78953 -1.68884 0)
(2.7771 -1.60358 0)
(2.76235 -1.47098 0)
(2.84747 -1.40406 0)
(2.85962 -1.15616 0)
(2.94185 -1.03586 0)
(2.94903 -0.866968 0)
(2.93949 -0.726156 0)
(1.39122 -1.3091 0)
(1.76932 -1.53295 0)
(2.15862 -1.9982 0)
(2.27498 -2.24287 0)
(2.49145 -2.20172 0)
(2.54965 -2.28777 0)
(2.66858 -1.96371 0)
(2.7124 -1.99675 0)
(2.76181 -1.80877 0)
(2.816 -1.76834 0)
(2.91665 -1.66799 0)
(2.98598 -1.51629 0)
(3.01417 -1.42297 0)
(2.99426 -1.37597 0)
(2.9437 -1.26615 0)
(2.88753 -1.27011 0)
(2.85126 -1.10223 0)
(2.88625 -1.01072 0)
(2.88569 -0.847755 0)
(2.90281 -0.592163 0)
(1.51567 -1.34625 0)
(1.82618 -1.58688 0)
(2.10683 -2.05624 0)
(2.16431 -2.32976 0)
(2.32834 -2.20992 0)
(2.28698 -2.31036 0)
(2.54523 -1.80697 0)
(2.55546 -1.8429 0)
(2.73787 -1.51712 0)
(2.806 -1.52568 0)
(2.90774 -1.29035 0)
(3.01473 -1.09364 0)
(3.11095 -0.951532 0)
(3.17593 -0.849163 0)
(3.16878 -0.805253 0)
(3.08699 -0.834838 0)
(2.97939 -0.833881 0)
(2.92248 -0.783909 0)
(2.89105 -0.691526 0)
(2.8559 -0.449082 0)
(1.63506 -1.43077 0)
(1.80274 -1.62206 0)
(1.95702 -2.0269 0)
(1.88426 -2.15515 0)
(2.00218 -2.06142 0)
(1.97492 -2.13784 0)
(2.25685 -1.74535 0)
(2.29605 -1.78367 0)
(2.50408 -1.48344 0)
(2.5976 -1.46011 0)
(2.72831 -1.26475 0)
(2.84984 -1.05986 0)
(2.98533 -0.866569 0)
(3.03588 -0.551461 0)
(3.09928 -0.335081 0)
(3.09932 -0.229535 0)
(3.05136 -0.293975 0)
(2.98365 -0.360374 0)
(2.93204 -0.38071 0)
(2.86925 -0.256265 0)
(1.70728 -1.50005 0)
(1.65796 -1.68532 0)
(1.69849 -1.95861 0)
(1.76399 -2.06027 0)
(1.9458 -1.92279 0)
(2.01031 -1.98228 0)
(2.22898 -1.68517 0)
(2.31006 -1.62816 0)
(2.4369 -1.49597 0)
(2.54909 -1.30638 0)
(2.6555 -1.18301 0)
(2.73815 -0.985779 0)
(2.82507 -0.872056 0)
(2.88208 -0.661947 0)
(2.94977 -0.456086 0)
(2.97575 -0.209843 0)
(2.95938 0.0278948 0)
(2.92216 0.0472486 0)
(2.86748 0.122129 0)
(2.84807 0.0864997 0)
(1.60293 -1.47618 0)
(1.50287 -1.61617 0)
(1.4394 -1.8507 0)
(1.72861 -1.89489 0)
(2.02149 -1.75963 0)
(2.21197 -1.75463 0)
(2.34947 -1.69415 0)
(2.54324 -1.26289 0)
(2.56789 -1.36363 0)
(2.67201 -0.946114 0)
(2.75368 -0.88317 0)
(2.79432 -0.6559 0)
(2.81706 -0.583657 0)
(2.81644 -0.44335 0)
(2.82349 -0.349323 0)
(2.84004 -0.217784 0)
(2.81977 -0.0101072 0)
(2.80075 0.150721 0)
(2.74884 0.300058 0)
(2.74902 0.310615 0)
(1.59567 -1.52381 0)
(1.55214 -1.548 0)
(1.38602 -1.69231 0)
(1.72189 -1.82039 0)
(2.06928 -1.71313 0)
(2.35351 -1.54183 0)
(2.68308 -1.42094 0)
(2.71362 -0.797245 0)
(2.7769 -0.793223 0)
(2.79356 -0.463091 0)
(2.84911 -0.363623 0)
(2.82703 -0.12252 0)
(2.82168 -0.0553485 0)
(2.79495 0.0378451 0)
(2.76049 0.0859089 0)
(2.74193 0.0874826 0)
(2.69661 0.179036 0)
(2.68156 0.248221 0)
(2.62499 0.418941 0)
(2.60518 0.410967 0)
(1.68311 -1.57764 0)
(1.76471 -1.53895 0)
(1.6374 -1.40999 0)
(1.80357 -1.77781 0)
(2.44549 -1.58583 0)
(2.76987 -1.3372 0)
(2.84185 -0.620224 0)
(2.69669 -0.791288 0)
(2.72663 -0.554674 0)
(2.73713 -0.349357 0)
(2.77011 -0.161634 0)
(2.72887 0.0865514 0)
(2.70798 0.245669 0)
(2.67801 0.364177 0)
(2.61796 0.485427 0)
(2.59104 0.499601 0)
(2.53617 0.570707 0)
(2.53665 0.573753 0)
(2.4933 0.646569 0)
(2.4514 0.737366 0)
(1.66004 -1.59485 0)
(1.83005 -1.59306 0)
(1.87739 -1.21889 0)
(2.20643 -1.52808 0)
(2.38947 -1.40521 0)
(2.55618 -1.14952 0)
(2.61979 -0.644241 0)
(2.56248 -0.576251 0)
(2.60681 -0.386714 0)
(2.61902 -0.140868 0)
(2.62194 0.0538083 0)
(2.57495 0.252531 0)
(2.54842 0.382145 0)
(2.52232 0.491855 0)
(2.45209 0.636884 0)
(2.42394 0.710133 0)
(2.34448 0.815977 0)
(2.35406 0.852314 0)
(2.32895 0.902222 0)
(2.38425 0.921256 0)
(1.5182 -1.52761 0)
(1.74746 -1.82903 0)
(2.41175 -0.802361 0)
(2.29834 -1.31736 0)
(2.31579 -1.10606 0)
(2.43673 -0.796626 0)
(2.48265 -0.480335 0)
(2.51159 -0.155635 0)
(2.54489 0.0565439 0)
(2.51046 0.282531 0)
(2.4687 0.454184 0)
(2.39801 0.610754 0)
(2.34808 0.703076 0)
(2.32225 0.745366 0)
(2.26392 0.830578 0)
(2.2589 0.872242 0)
(2.19814 0.946712 0)
(2.2504 0.975012 0)
(2.26605 0.973107 0)
(2.33893 0.960528 0)
(1.19848 -1.44799 0)
(1.45695 -1.88284 0)
(2.21454 -0.880735 0)
(2.16257 -1.1259 0)
(2.40576 -0.413207 0)
(2.48743 -0.0666891 0)
(2.45595 0.162553 0)
(2.42905 0.29461 0)
(2.41858 0.474317 0)
(2.32951 0.677131 0)
(2.25869 0.815682 0)
(2.18843 0.920863 0)
(2.13731 0.9783 0)
(2.12235 0.994498 0)
(2.09396 1.03122 0)
(2.14488 1.00647 0)
(2.16149 1.00606 0)
(2.23213 0.98372 0)
(2.43765 0.858096 0)
(2.70808 0.649935 0)
(0.93048 -0.912528 0)
(1.33069 -1.37996 0)
(2.09788 -0.729456 0)
(2.34044 -0.0818732 0)
(2.4052 0.151463 0)
(2.39935 0.37391 0)
(2.28859 0.638347 0)
(2.23695 0.721521 0)
(2.2017 0.828401 0)
(2.10104 0.969826 0)
(2.03763 1.05578 0)
(2.00356 1.10285 0)
(1.991 1.11124 0)
(2.03067 1.08676 0)
(2.06455 1.06312 0)
(2.17102 0.999327 0)
(2.39746 0.846011 0)
(2.73849 0.544663 0)
(3.01856 0.154386 0)
(3.0226 0.00837429 0)
(0.923325 0.125151 0)
(2.00982 0.483592 0)
(2.29921 0.386816 0)
(2.25207 0.614264 0)
(2.23654 0.694551 0)
(2.15484 0.817565 0)
(2.07564 0.898029 0)
(2.02367 0.983288 0)
(1.95493 1.09046 0)
(1.90091 1.17434 0)
(1.89462 1.17695 0)
(1.92055 1.16493 0)
(1.97442 1.11982 0)
(2.14589 0.979341 0)
(2.3962 0.794599 0)
(2.81119 0.395132 0)
(3.04282 0.0513141 0)
(3.0116 -0.00402991 0)
(2.99953 -0.00106685 0)
(3 -0.000626177 0)
(0.96661 0.109271 0)
(1.96567 0.686403 0)
(2.10424 0.837626 0)
(2.02138 0.951023 0)
(2.0054 0.980217 0)
(1.89039 1.11343 0)
(1.82891 1.1464 0)
(1.81914 1.18287 0)
(1.82784 1.19937 0)
(1.81117 1.24178 0)
(1.87469 1.17426 0)
(2.09798 0.977779 0)
(2.45526 0.67308 0)
(2.92689 0.213947 0)
(3.04961 -0.00122715 0)
(3.00419 -0.00426239 0)
(3.00094 -0.00197877 0)
(2.99999 -0.00098835 0)
(2.99994 -0.000180597 0)
(3 -9.33029e-07 0)
(1.18145 0.768563 0)
(1.84785 1.16371 0)
(1.848 1.17332 0)
(1.76989 1.20667 0)
(1.73398 1.22546 0)
(1.70172 1.2683 0)
(1.71825 1.22098 0)
(1.78785 1.19584 0)
(1.83642 1.23795 0)
(2.00575 1.04604 0)
(2.62235 0.476839 0)
(3.05013 0.0496156 0)
(3.04207 -0.0164682 0)
(3.00064 -0.00233797 0)
(3.00029 -0.00143647 0)
(2.99999 -0.000281307 0)
(3 -6.66096e-06 0)
(3 4.4515e-06 0)
(3 1.76003e-06 0)
(3 3.40239e-07 0)
(1.59689 1.26573 0)
(1.60371 1.27142 0)
(1.61013 1.27725 0)
(1.62383 1.28086 0)
(1.6492 1.27378 0)
(1.63831 1.28277 0)
(2.10205 1.1013 0)
(3.19217 0.0607594 0)
(3.08569 -0.133763 0)
(3.00001 -3.0574e-05 0)
(2.99999 5.27815e-05 0)
(3 -1.07899e-08 0)
(3 4.28253e-09 0)
(3 2.5499e-09 0)
(3 -2.5954e-09 0)
(3 1.4594e-11 0)
(3 5.58392e-12 0)
(3 4.22365e-12 0)
(3 -9.63304e-13 0)
(3 3.87413e-13 0)
(1.59137 1.25932 0)
(1.60538 1.26596 0)
(1.61397 1.27702 0)
(1.61825 1.27915 0)
(1.6683 1.25426 0)
(1.71134 1.28549 0)
(2.22778 0.826023 0)
(2.97599 0.0575195 0)
(3 -8.91455e-07 0)
(3 1.1431e-08 0)
(3 -3.36408e-10 0)
(3 2.64324e-11 0)
(3 -1.69867e-12 0)
(3 -5.39704e-13 0)
(3 6.05081e-15 0)
(3 2.11917e-15 0)
(3 1.03792e-15 0)
(3 -4.00051e-16 0)
(3 6.93815e-16 0)
(3 3.7997e-17 0)
(1.59171 1.25451 0)
(1.61046 1.26092 0)
(1.61861 1.26784 0)
(1.60496 1.29139 0)
(1.78397 1.21275 0)
(2.4071 0.78165 0)
(3.02047 -0.0177055 0)
(3.00053 0.000349421 0)
(3 7.82573e-07 0)
(3 -6.66016e-09 0)
(3 6.47115e-12 0)
(3 -2.6824e-13 0)
(3 -2.90569e-15 0)
(3 8.13058e-16 0)
(3 4.20908e-16 0)
(3 5.91548e-16 0)
(3 1.73244e-16 0)
(3 6.33655e-16 0)
(3 -8.38e-16 0)
(3 -1.67726e-17 0)
(1.58967 1.25762 0)
(1.61029 1.26216 0)
(1.63132 1.26196 0)
(1.61256 1.29661 0)
(1.8104 1.12358 0)
(2.69239 0.26793 0)
(2.99977 0.00390649 0)
(3.00002 -4.23754e-05 0)
(3 -8.6723e-08 0)
(3 1.44732e-09 0)
(3 -1.34606e-13 0)
(3 -8.84665e-16 0)
(3 4.67259e-16 0)
(3 8.81743e-18 0)
(3 3.02774e-16 0)
(3 3.56002e-16 0)
(3 -1.32316e-15 0)
(3 1.15454e-16 0)
(3 -2.66246e-15 0)
(3 9.56232e-17 0)
(1.58622 1.26968 0)
(1.60068 1.27249 0)
(1.63439 1.25788 0)
(1.72447 1.22153 0)
(2.41285 0.632635 0)
(3.01963 -0.0220579 0)
(2.99971 -0.000203465 0)
(3 5.32577e-07 0)
(3 3.02263e-09 0)
(3 -8.14376e-11 0)
(3 2.86361e-15 0)
(3 1.64905e-15 0)
(3 6.91687e-16 0)
(3 1.89707e-16 0)
(3 1.46178e-16 0)
(3 -1.25505e-16 0)
(3 -1.12061e-15 0)
(3 -2.76582e-16 0)
(3 -2.19241e-15 0)
(3 -2.61855e-16 0)
(1.58449 1.28518 0)
(1.58475 1.28479 0)
(1.6404 1.2587 0)
(1.75675 1.17279 0)
(2.66514 0.287018 0)
(3 -9.91103e-11 0)
(3 4.14208e-11 0)
(3 5.36141e-13 0)
(3 -1.14014e-13 0)
(3 2.0535e-15 0)
(3 1.25038e-15 0)
(3 1.02425e-15 0)
(3 9.06469e-16 0)
(3 3.26597e-16 0)
(3 2.91983e-16 0)
(3 2.6413e-16 0)
(3 -8.0747e-16 0)
(3 -7.13832e-16 0)
(3 -1.24564e-15 0)
(3 -6.43356e-17 0)
(1.58539 1.29824 0)
(1.55474 1.30063 0)
(1.67912 1.23376 0)
(2.20501 0.830296 0)
(3.02342 -0.0237646 0)
(3 4.29511e-10 0)
(3 -2.76304e-12 0)
(3 5.41185e-15 0)
(3 8.73805e-16 0)
(3 -4.61262e-17 0)
(3 9.93784e-17 0)
(3 2.92736e-17 0)
(3 6.22005e-16 0)
(3 4.35039e-16 0)
(3 4.48534e-16 0)
(3 9.93045e-16 0)
(3 -6.60867e-16 0)
(3 -9.4769e-16 0)
(3 -9.55764e-17 0)
(3 -8.04741e-17 0)
(1.59018 1.32794 0)
(1.50186 1.32625 0)
(1.72218 1.19681 0)
(2.37076 0.572882 0)
(3 2.30418e-12 0)
(3 -1.50643e-12 0)
(3 2.13089e-14 0)
(3 -5.9567e-16 0)
(3 2.86452e-16 0)
(3 -3.09674e-17 0)
(3 -1.53087e-15 0)
(3 -5.14772e-16 0)
(3 -3.0867e-16 0)
(3 3.75836e-16 0)
(3 3.40097e-16 0)
(3 3.89685e-16 0)
(3 -4.25471e-16 0)
(3 -5.59817e-16 0)
(3 2.29396e-16 0)
(3 3.95826e-16 0)
(1.59049 1.3042 0)
(1.47701 1.33457 0)
(2.00942 1.0258 0)
(2.89837 0.105603 0)
(3 -2.27049e-10 0)
(3 1.52476e-12 0)
(3 -8.23875e-15 0)
(3 1.96759e-16 0)
(3 -2.75774e-17 0)
(3 -5.7411e-17 0)
(3 -8.77009e-16 0)
(3 -1.63836e-15 0)
(3 -1.70327e-16 0)
(3 8.45516e-16 0)
(3 8.68355e-16 0)
(3 1.77517e-16 0)
(3 -4.64021e-16 0)
(3 2.48973e-16 0)
(3 4.28856e-16 0)
(3 4.32271e-16 0)
(1.60555 1.29505 0)
(1.4816 1.39407 0)
(2.12277 0.847144 0)
(3.01098 -0.00865723 0)
(3 2.15707e-10 0)
(3 -7.97927e-13 0)
(3 4.20767e-15 0)
(3 3.20202e-16 0)
(3 3.33222e-16 0)
(3 6.75993e-16 0)
(3 1.5423e-16 0)
(3 -4.08879e-16 0)
(3 -1.95305e-16 0)
(3 1.13866e-15 0)
(3 1.40561e-15 0)
(3 1.82992e-16 0)
(3 -6.51383e-16 0)
(3 4.62991e-16 0)
(3 5.78351e-17 0)
(3 -4.39806e-17 0)
(1.62195 1.27895 0)
(1.57925 1.3067 0)
(2.43967 0.518513 0)
(3 1.19582e-13 0)
(3 -2.05851e-13 0)
(3 4.09842e-15 0)
(3 7.90527e-16 0)
(3 4.97863e-16 0)
(3 8.22156e-17 0)
(3 4.45332e-16 0)
(3 3.94185e-16 0)
(3 -7.65478e-16 0)
(3 -4.59332e-17 0)
(3 9.52968e-16 0)
(3 1.31395e-15 0)
(3 4.33357e-16 0)
(3 -3.66327e-16 0)
(3 -4.8572e-16 0)
(3 5.6601e-17 0)
(3 1.64193e-16 0)
(1.6365 1.26416 0)
(1.63064 1.2479 0)
(2.64639 0.295295 0)
(3 -2.84796e-13 0)
(3 2.68962e-15 0)
(3 -2.71281e-17 0)
(3 8.56819e-17 0)
(3 -7.35708e-16 0)
(3 -1.93958e-15 0)
(3 -1.31045e-15 0)
(3 -1.03154e-15 0)
(3 -6.02639e-16 0)
(3 2.36386e-16 0)
(3 8.38146e-16 0)
(3 4.99285e-16 0)
(3 1.05163e-16 0)
(3 -8.02125e-16 0)
(3 -8.38325e-16 0)
(3 -3.99263e-16 0)
(3 -1.32106e-16 0)
(1.65327 1.24776 0)
(1.83563 1.10109 0)
(2.87611 0.0933933 0)
(3 -7.27604e-16 0)
(3 -4.99829e-16 0)
(3 -1.05638e-15 0)
(3 -1.30947e-15 0)
(3 -1.92564e-15 0)
(3 -2.34407e-15 0)
(3 -1.68744e-15 0)
(3 -1.04743e-15 0)
(3 -3.21474e-16 0)
(3 3.24153e-16 0)
(3 1.17027e-15 0)
(3 1.32685e-15 0)
(3 1.03103e-15 0)
(3 1.10837e-16 0)
(3 7.32385e-17 0)
(3 3.83136e-16 0)
(3 5.65986e-16 0)
(1.6769 1.19749 0)
(1.89282 0.983599 0)
(2.99391 0.0049614 0)
(3 -4.84674e-16 0)
(3 -5.57168e-16 0)
(3 -9.54929e-16 0)
(3 -9.56804e-16 0)
(3 -1.54033e-15 0)
(3 -1.33242e-15 0)
(3 -1.48246e-15 0)
(3 -1.49133e-15 0)
(3 -1.3207e-15 0)
(3 -2.74172e-16 0)
(3 4.21054e-17 0)
(3 7.6768e-16 0)
(3 9.20022e-16 0)
(3 3.86013e-16 0)
(3 3.70707e-16 0)
(3 4.96312e-16 0)
(3 6.66607e-16 0)
(1.71378 1.15859 0)
(2.05381 0.8293 0)
(3 -4.61721e-17 0)
(3 9.33203e-16 0)
(3 9.62057e-16 0)
(3 6.37021e-16 0)
(3 6.47927e-17 0)
(3 -2.8157e-16 0)
(3 -5.01306e-16 0)
(3 -8.64909e-16 0)
(3 -1.02516e-15 0)
(3 -9.63061e-16 0)
(3 -6.92906e-16 0)
(3 -8.40932e-16 0)
(3 -1.01652e-15 0)
(3 -5.82101e-16 0)
(3 -4.43608e-16 0)
(3 -8.99422e-16 0)
(3 -7.94315e-16 0)
(3 -4.75565e-16 0)
(1.72687 1.10482 0)
(2.19837 0.664699 0)
(3 2.90036e-15 0)
(3 1.95226e-15 0)
(3 1.13839e-15 0)
(3 -6.25896e-17 0)
(3 -1.22663e-15 0)
(3 -1.73569e-15 0)
(3 -1.56688e-15 0)
(3 -1.54049e-15 0)
(3 -1.27674e-15 0)
(3 -1.41875e-15 0)
(3 -1.41499e-15 0)
(3 -4.10226e-16 0)
(3 -8.8186e-16 0)
(3 -7.31987e-16 0)
(3 -3.20699e-16 0)
(3 -6.51444e-16 0)
(3 -6.05357e-16 0)
(3 -5.11784e-16 0)
(1.82914 1.01546 0)
(2.43298 0.458033 0)
(3 7.4828e-16 0)
(3 1.10912e-15 0)
(3 6.42225e-16 0)
(3 1.30608e-16 0)
(3 -3.28702e-16 0)
(3 -1.39711e-15 0)
(3 -1.91281e-15 0)
(3 -1.78898e-15 0)
(3 -1.27773e-15 0)
(3 -1.01883e-15 0)
(3 -9.75187e-16 0)
(3 -1.15358e-15 0)
(3 -1.3406e-15 0)
(3 -1.35054e-15 0)
(3 -1.24154e-15 0)
(3 -1.3084e-15 0)
(3 -1.28063e-15 0)
(3 -1.05055e-15 0)
(1.92793 0.874837 0)
(2.70054 0.213143 0)
(3 2.14542e-15 0)
(3 3.11222e-15 0)
(3 3.61082e-15 0)
(3 3.6817e-15 0)
(3 3.30864e-15 0)
(3 2.78655e-15 0)
(3 1.99507e-15 0)
(3 1.29042e-15 0)
(3 9.42228e-16 0)
(3 6.63027e-16 0)
(3 9.92449e-16 0)
(3 9.22645e-16 0)
(3 3.68088e-16 0)
(3 3.73777e-16 0)
(3 4.06917e-16 0)
(3 2.39178e-16 0)
(3 -1.59223e-16 0)
(3 -6.27667e-16 0)
(2.13653 0.679734 0)
(2.9904 9.7097e-05 0)
(3 2.92864e-15 0)
(3 2.16327e-15 0)
(3 2.59444e-15 0)
(3 2.30978e-15 0)
(3 2.34553e-15 0)
(3 2.06936e-15 0)
(3 1.93057e-15 0)
(3 1.57777e-15 0)
(3 1.26206e-15 0)
(3 1.07688e-15 0)
(3 8.64116e-16 0)
(3 1.0666e-15 0)
(3 8.99015e-16 0)
(3 8.49036e-16 0)
(3 9.21961e-16 0)
(3 8.24602e-16 0)
(3 8.87216e-16 0)
(3 8.92744e-16 0)
(2.00603 0.365154 0)
(2.99993 -1.28707e-05 0)
(3 2.77733e-15 0)
(3 2.24376e-15 0)
(3 1.80129e-15 0)
(3 1.0011e-15 0)
(3 5.24491e-16 0)
(3 3.06725e-16 0)
(3 4.8109e-17 0)
(3 1.04618e-17 0)
(3 -6.39265e-18 0)
(3 -5.6307e-17 0)
(3 -2.49194e-16 0)
(3 3.16783e-17 0)
(3 3.76575e-16 0)
(3 6.91058e-16 0)
(3 8.28706e-16 0)
(3 8.41047e-16 0)
(3 1.01705e-15 0)
(3 1.34827e-15 0)
(2.00603 -0.365154 0)
(2.99993 1.28707e-05 0)
(3 1.61054e-16 0)
(3 -4.69738e-16 0)
(3 -8.3633e-16 0)
(3 -7.70187e-16 0)
(3 -6.02944e-16 0)
(3 -9.51909e-16 0)
(3 -9.29312e-16 0)
(3 -1.00694e-15 0)
(3 -1.17242e-15 0)
(3 -1.1432e-15 0)
(3 -8.39173e-16 0)
(3 -8.7881e-16 0)
(3 -3.7003e-16 0)
(3 -1.43565e-16 0)
(3 -2.11355e-16 0)
(3 -1.92609e-16 0)
(3 -2.37196e-16 0)
(3 -4.978e-16 0)
(2.13653 -0.679734 0)
(2.9904 -9.7097e-05 0)
(3 4.95862e-17 0)
(3 -1.55981e-16 0)
(3 -1.30247e-15 0)
(3 -1.87553e-15 0)
(3 -2.02276e-15 0)
(3 -1.43782e-15 0)
(3 -1.07503e-15 0)
(3 -9.66263e-16 0)
(3 -1.05445e-15 0)
(3 -7.22023e-16 0)
(3 -3.65175e-16 0)
(3 -6.17319e-16 0)
(3 -3.57159e-16 0)
(3 -2.48595e-16 0)
(3 -3.57378e-16 0)
(3 -5.76337e-17 0)
(3 -2.45903e-16 0)
(3 -4.88517e-16 0)
(1.92793 -0.874837 0)
(2.70054 -0.213143 0)
(3 4.33357e-16 0)
(3 -2.38894e-16 0)
(3 -2.31624e-15 0)
(3 -1.88187e-15 0)
(3 -1.69194e-15 0)
(3 -1.45046e-15 0)
(3 -7.69855e-16 0)
(3 -5.79286e-16 0)
(3 1.28357e-16 0)
(3 6.49248e-16 0)
(3 1.03492e-15 0)
(3 1.85551e-15 0)
(3 1.58866e-15 0)
(3 8.42966e-16 0)
(3 4.01996e-16 0)
(3 3.07716e-16 0)
(3 5.74307e-16 0)
(3 7.97311e-16 0)
(1.82914 -1.01546 0)
(2.43298 -0.458033 0)
(3 -2.17522e-15 0)
(3 -4.00015e-15 0)
(3 -3.35068e-15 0)
(3 -2.53692e-15 0)
(3 -2.00852e-15 0)
(3 -1.29867e-15 0)
(3 -4.04303e-16 0)
(3 5.87625e-16 0)
(3 9.72885e-16 0)
(3 2.09022e-15 0)
(3 2.29303e-15 0)
(3 2.21164e-15 0)
(3 1.81656e-15 0)
(3 1.8128e-15 0)
(3 1.82701e-15 0)
(3 1.18326e-15 0)
(3 5.14996e-16 0)
(3 3.21209e-16 0)
(1.72687 -1.10482 0)
(2.19837 -0.664699 0)
(3 -3.36582e-15 0)
(3 -2.92009e-15 0)
(3 -2.7767e-15 0)
(3 -1.8884e-15 0)
(3 -1.25117e-15 0)
(3 -4.05909e-16 0)
(3 2.71713e-16 0)
(3 1.67234e-15 0)
(3 2.3523e-15 0)
(3 2.40011e-15 0)
(3 2.14046e-15 0)
(3 1.6217e-15 0)
(3 1.00266e-15 0)
(3 2.81072e-16 0)
(3 9.03367e-17 0)
(3 -1.20398e-17 0)
(3 -4.77908e-16 0)
(3 -3.27872e-16 0)
(1.71378 -1.15859 0)
(2.05381 -0.8293 0)
(3 -2.33932e-15 0)
(3 -2.57414e-15 0)
(3 -1.74089e-15 0)
(3 -1.40007e-15 0)
(3 -1.32542e-15 0)
(3 -1.17178e-15 0)
(3 -8.61871e-16 0)
(3 2.31276e-16 0)
(3 1.93554e-15 0)
(3 9.83085e-16 0)
(3 3.21461e-16 0)
(3 -7.51264e-16 0)
(3 -9.46197e-16 0)
(3 -9.33693e-16 0)
(3 -8.0886e-16 0)
(3 -6.01902e-16 0)
(3 -5.66107e-16 0)
(3 -5.36671e-16 0)
(1.6769 -1.19749 0)
(1.89282 -0.983599 0)
(2.99391 -0.0049614 0)
(3 -2.85921e-15 0)
(3 -2.81303e-15 0)
(3 -2.29054e-15 0)
(3 -1.87675e-15 0)
(3 -1.15046e-15 0)
(3 -4.29786e-16 0)
(3 3.19884e-16 0)
(3 1.14407e-15 0)
(3 1.41761e-16 0)
(3 -8.77186e-16 0)
(3 -1.40484e-15 0)
(3 -1.36996e-15 0)
(3 -1.19577e-15 0)
(3 -6.6158e-16 0)
(3 -6.00199e-16 0)
(3 -4.66127e-16 0)
(3 -7.30617e-16 0)
(1.65327 -1.24776 0)
(1.83563 -1.10109 0)
(2.87611 -0.0933933 0)
(3 -1.33991e-15 0)
(3 -1.64609e-15 0)
(3 -1.47821e-15 0)
(3 -1.2719e-15 0)
(3 -6.63835e-16 0)
(3 2.92929e-16 0)
(3 9.61766e-16 0)
(3 9.99624e-16 0)
(3 -1.8536e-16 0)
(3 -8.32612e-16 0)
(3 -8.94762e-16 0)
(3 -4.786e-16 0)
(3 -7.04368e-16 0)
(3 -7.22032e-16 0)
(3 -3.48432e-16 0)
(3 -1.29285e-15 0)
(3 -1.3909e-15 0)
(1.6365 -1.26416 0)
(1.63064 -1.2479 0)
(2.64639 -0.295295 0)
(3 2.84231e-13 0)
(3 -1.85105e-15 0)
(3 4.37609e-16 0)
(3 -5.44929e-16 0)
(3 -4.13888e-16 0)
(3 2.81297e-16 0)
(3 8.42512e-16 0)
(3 1.33849e-15 0)
(3 -1.15076e-16 0)
(3 -3.87441e-16 0)
(3 -3.77858e-16 0)
(3 -1.40745e-16 0)
(3 -4.2774e-16 0)
(3 -5.2786e-16 0)
(3 -1.87676e-15 0)
(3 -1.49412e-15 0)
(3 -1.27949e-15 0)
(1.62195 -1.27895 0)
(1.57925 -1.3067 0)
(2.43967 -0.518513 0)
(3 -1.19801e-13 0)
(3 2.11711e-13 0)
(3 -2.74499e-15 0)
(3 6.59911e-16 0)
(3 -4.19434e-16 0)
(3 5.34913e-16 0)
(3 9.34611e-16 0)
(3 5.85608e-16 0)
(3 4.76835e-17 0)
(3 -4.30713e-17 0)
(3 -2.15661e-17 0)
(3 -1.03993e-15 0)
(3 -1.68641e-15 0)
(3 -1.8689e-15 0)
(3 -2.15469e-15 0)
(3 -2.08798e-15 0)
(3 -1.67159e-15 0)
(1.60555 -1.29505 0)
(1.4816 -1.39407 0)
(2.12277 -0.847144 0)
(3.01098 0.00865723 0)
(3 -2.15876e-10 0)
(3 7.98504e-13 0)
(3 -3.80553e-15 0)
(3 6.51776e-16 0)
(3 7.25595e-16 0)
(3 8.20412e-16 0)
(3 7.61277e-16 0)
(3 2.44679e-16 0)
(3 3.82142e-17 0)
(3 -2.95493e-16 0)
(3 -1.1018e-15 0)
(3 -1.89705e-15 0)
(3 -2.09025e-15 0)
(3 -1.06862e-15 0)
(3 -8.60844e-17 0)
(3 7.42648e-17 0)
(1.59049 -1.3042 0)
(1.47701 -1.33457 0)
(2.00942 -1.0258 0)
(2.89837 -0.105603 0)
(3 2.27227e-10 0)
(3 -1.52561e-12 0)
(3 7.9639e-15 0)
(3 -3.21551e-16 0)
(3 -8.9447e-17 0)
(3 -1.22152e-16 0)
(3 3.56107e-16 0)
(3 1.68092e-16 0)
(3 -2.6177e-16 0)
(3 -4.45505e-16 0)
(3 -1.02756e-15 0)
(3 -1.417e-15 0)
(3 -8.28672e-16 0)
(3 -6.94167e-16 0)
(3 4.97543e-16 0)
(3 6.58378e-16 0)
(1.59018 -1.32794 0)
(1.50186 -1.32625 0)
(1.72218 -1.19681 0)
(2.37076 -0.572882 0)
(3 -2.30684e-12 0)
(3 1.5053e-12 0)
(3 -2.18104e-14 0)
(3 4.15743e-17 0)
(3 -6.04004e-16 0)
(3 -4.63054e-16 0)
(3 5.60305e-17 0)
(3 2.64455e-17 0)
(3 -6.61515e-16 0)
(3 -4.17774e-16 0)
(3 -3.67247e-16 0)
(3 -9.30041e-18 0)
(3 2.15533e-16 0)
(3 9.11787e-16 0)
(3 1.10314e-15 0)
(3 1.45196e-15 0)
(1.58539 -1.29824 0)
(1.55474 -1.30063 0)
(1.67912 -1.23376 0)
(2.20501 -0.830296 0)
(3.02342 0.0237646 0)
(3 -4.29508e-10 0)
(3 2.76308e-12 0)
(3 -4.63537e-15 0)
(3 -5.12518e-16 0)
(3 -9.66674e-17 0)
(3 -3.23851e-16 0)
(3 -2.39487e-16 0)
(3 -7.98564e-16 0)
(3 -1.13749e-16 0)
(3 -1.47338e-17 0)
(3 6.64598e-16 0)
(3 4.16971e-16 0)
(3 1.35878e-15 0)
(3 1.27513e-15 0)
(3 2.0343e-15 0)
(1.58449 -1.28518 0)
(1.58475 -1.28479 0)
(1.6404 -1.2587 0)
(1.75675 -1.17279 0)
(2.66514 -0.287018 0)
(3 9.91082e-11 0)
(3 -4.14253e-11 0)
(3 -5.32111e-13 0)
(3 1.15249e-13 0)
(3 -7.94001e-16 0)
(3 -5.79377e-16 0)
(3 -4.11862e-16 0)
(3 -3.63329e-16 0)
(3 3.2228e-16 0)
(3 1.82285e-16 0)
(3 4.51334e-16 0)
(3 7.81573e-16 0)
(3 1.32888e-15 0)
(3 1.50547e-15 0)
(3 1.54527e-15 0)
(1.58622 -1.26968 0)
(1.60068 -1.27249 0)
(1.63439 -1.25788 0)
(1.72447 -1.22153 0)
(2.41285 -0.632635 0)
(3.01963 0.0220579 0)
(2.99971 0.000203465 0)
(3 -5.32577e-07 0)
(3 -3.02263e-09 0)
(3 8.14393e-11 0)
(3 -3.63164e-16 0)
(3 7.99837e-16 0)
(3 7.1603e-16 0)
(3 1.96253e-16 0)
(3 -5.25931e-16 0)
(3 4.66546e-16 0)
(3 8.10878e-16 0)
(3 1.44328e-15 0)
(3 2.02469e-15 0)
(3 1.41616e-15 0)
(1.58967 -1.25762 0)
(1.61029 -1.26216 0)
(1.63132 -1.26196 0)
(1.61256 -1.29661 0)
(1.8104 -1.12358 0)
(2.69239 -0.26793 0)
(2.99977 -0.00390649 0)
(3.00002 4.23754e-05 0)
(3 8.6723e-08 0)
(3 -1.44732e-09 0)
(3 1.37167e-13 0)
(3 2.96457e-15 0)
(3 6.35099e-16 0)
(3 6.4313e-17 0)
(3 -2.56523e-16 0)
(3 2.94498e-16 0)
(3 8.24701e-16 0)
(3 1.13451e-15 0)
(3 1.23526e-15 0)
(3 1.48475e-15 0)
(1.59171 -1.25451 0)
(1.61046 -1.26092 0)
(1.61861 -1.26784 0)
(1.60496 -1.29139 0)
(1.78397 -1.21275 0)
(2.4071 -0.78165 0)
(3.02047 0.0177055 0)
(3.00053 -0.000349421 0)
(3 -7.82573e-07 0)
(3 6.66017e-09 0)
(3 -6.46908e-12 0)
(3 2.69273e-13 0)
(3 3.47726e-15 0)
(3 -3.7109e-16 0)
(3 -4.14648e-16 0)
(3 3.84135e-16 0)
(3 1.40891e-16 0)
(3 4.26472e-16 0)
(3 1.75971e-15 0)
(3 1.28681e-15 0)
(1.59137 -1.25932 0)
(1.60538 -1.26596 0)
(1.61397 -1.27702 0)
(1.61825 -1.27915 0)
(1.6683 -1.25426 0)
(1.71134 -1.28549 0)
(2.22778 -0.826023 0)
(2.97599 -0.0575195 0)
(3 8.91455e-07 0)
(3 -1.1431e-08 0)
(3 3.36409e-10 0)
(3 -2.64317e-11 0)
(3 1.69913e-12 0)
(3 5.41765e-13 0)
(3 -3.97361e-15 0)
(3 -2.3629e-15 0)
(3 -5.38408e-16 0)
(3 2.48726e-16 0)
(3 -6.38543e-16 0)
(3 7.09466e-16 0)
(1.59689 -1.26573 0)
(1.60371 -1.27142 0)
(1.61013 -1.27725 0)
(1.62383 -1.28086 0)
(1.6492 -1.27378 0)
(1.63831 -1.28277 0)
(2.10205 -1.1013 0)
(3.19217 -0.0607594 0)
(3.08569 0.133763 0)
(3.00001 3.0574e-05 0)
(2.99999 -5.27815e-05 0)
(3 1.079e-08 0)
(3 -4.28259e-09 0)
(3 -2.5499e-09 0)
(3 2.5954e-09 0)
(3 -1.45935e-11 0)
(3 -5.58312e-12 0)
(3 -4.2173e-12 0)
(3 9.64288e-13 0)
(3 -3.93677e-13 0)
(1.18145 -0.768563 0)
(1.84785 -1.16371 0)
(1.848 -1.17332 0)
(1.76989 -1.20667 0)
(1.73398 -1.22546 0)
(1.70172 -1.2683 0)
(1.71825 -1.22098 0)
(1.78785 -1.19584 0)
(1.83642 -1.23795 0)
(2.00575 -1.04604 0)
(2.62235 -0.476839 0)
(3.05013 -0.0496155 0)
(3.04207 0.0164682 0)
(3.00064 0.00233797 0)
(3.00029 0.00143647 0)
(2.99999 0.000281307 0)
(3 6.66095e-06 0)
(3 -4.45151e-06 0)
(3 -1.76003e-06 0)
(3 -3.4024e-07 0)
(0.96661 -0.109271 0)
(1.96567 -0.686402 0)
(2.10424 -0.837626 0)
(2.02138 -0.951022 0)
(2.0054 -0.980218 0)
(1.89039 -1.11343 0)
(1.82891 -1.1464 0)
(1.81914 -1.18287 0)
(1.82784 -1.19937 0)
(1.81117 -1.24178 0)
(1.87469 -1.17426 0)
(2.09798 -0.977779 0)
(2.45526 -0.67308 0)
(2.92689 -0.213947 0)
(3.04961 0.00122725 0)
(3.00419 0.00426239 0)
(3.00094 0.00197877 0)
(2.99999 0.000988351 0)
(2.99994 0.000180598 0)
(3 9.33054e-07 0)
(0.923325 -0.125151 0)
(2.00982 -0.483594 0)
(2.29921 -0.386813 0)
(2.25207 -0.61427 0)
(2.23654 -0.694541 0)
(2.15483 -0.817577 0)
(2.07565 -0.898015 0)
(2.02366 -0.983296 0)
(1.95493 -1.09047 0)
(1.90091 -1.17434 0)
(1.89463 -1.17695 0)
(1.92055 -1.16493 0)
(1.97442 -1.11982 0)
(2.14589 -0.979341 0)
(2.3962 -0.794599 0)
(2.81119 -0.395132 0)
(3.04282 -0.051314 0)
(3.0116 0.00402991 0)
(2.99953 0.00106685 0)
(3 0.000626177 0)
(0.930481 0.912528 0)
(1.33069 1.37996 0)
(2.09788 0.729457 0)
(2.34044 0.0818744 0)
(2.4052 -0.151472 0)
(2.39936 -0.37389 0)
(2.28856 -0.638387 0)
(2.23699 -0.721474 0)
(2.20164 -0.828427 0)
(2.10106 -0.969813 0)
(2.03764 -1.05578 0)
(2.00356 -1.10286 0)
(1.991 -1.11124 0)
(2.03067 -1.08676 0)
(2.06455 -1.06312 0)
(2.17102 -0.999327 0)
(2.39746 -0.846011 0)
(2.73849 -0.544663 0)
(3.01857 -0.154385 0)
(3.0226 -0.00837425 0)
(1.19848 1.44799 0)
(1.45695 1.88284 0)
(2.21454 0.880736 0)
(2.16257 1.12591 0)
(2.40575 0.413195 0)
(2.48744 0.0667049 0)
(2.45595 -0.16257 0)
(2.42906 -0.294601 0)
(2.41857 -0.474313 0)
(2.3295 -0.677131 0)
(2.25867 -0.815702 0)
(2.18846 -0.920825 0)
(2.13729 -0.978347 0)
(2.12237 -0.994476 0)
(2.09396 -1.03121 0)
(2.14488 -1.00647 0)
(2.16149 -1.00606 0)
(2.23213 -0.98372 0)
(2.43765 -0.858096 0)
(2.70808 -0.649935 0)
(1.5182 1.52761 0)
(1.74746 1.82903 0)
(2.41175 0.802361 0)
(2.29834 1.31736 0)
(2.31578 1.10606 0)
(2.43673 0.796613 0)
(2.48266 0.480373 0)
(2.51156 0.155541 0)
(2.54496 -0.0564225 0)
(2.51038 -0.282652 0)
(2.46877 -0.454073 0)
(2.39794 -0.610875 0)
(2.34816 -0.702912 0)
(2.32217 -0.745493 0)
(2.26394 -0.830538 0)
(2.25893 -0.872209 0)
(2.19813 -0.946738 0)
(2.25039 -0.975012 0)
(2.26605 -0.973107 0)
(2.33893 -0.960527 0)
(1.66004 1.59485 0)
(1.83005 1.59306 0)
(1.87739 1.21889 0)
(2.20643 1.52807 0)
(2.38946 1.40522 0)
(2.55617 1.14951 0)
(2.6198 0.644248 0)
(2.56248 0.576271 0)
(2.60681 0.386668 0)
(2.61906 0.140986 0)
(2.62186 -0.0539695 0)
(2.57503 -0.252325 0)
(2.54829 -0.382396 0)
(2.52246 -0.491631 0)
(2.45207 -0.636922 0)
(2.42378 -0.710354 0)
(2.34458 -0.815755 0)
(2.35408 -0.852311 0)
(2.32894 -0.902285 0)
(2.38424 -0.921266 0)
(1.68311 1.57764 0)
(1.76471 1.53895 0)
(1.6374 1.40999 0)
(1.80357 1.77781 0)
(2.44549 1.58583 0)
(2.76986 1.33721 0)
(2.84186 0.620203 0)
(2.69671 0.7914 0)
(2.72659 0.554511 0)
(2.73717 0.349474 0)
(2.77007 0.161605 0)
(2.72887 -0.0866262 0)
(2.70799 -0.245578 0)
(2.67804 -0.364159 0)
(2.61785 -0.485722 0)
(2.59138 -0.498943 0)
(2.53596 -0.571275 0)
(2.53656 -0.573818 0)
(2.49341 -0.646299 0)
(2.4514 -0.737326 0)
(1.59567 1.52381 0)
(1.55214 1.548 0)
(1.38602 1.69231 0)
(1.72189 1.82039 0)
(2.06928 1.71313 0)
(2.3535 1.54184 0)
(2.68307 1.4209 0)
(2.71363 0.797285 0)
(2.7769 0.793235 0)
(2.79357 0.462974 0)
(2.84918 0.363856 0)
(2.827 0.122248 0)
(2.82176 0.0557323 0)
(2.79483 -0.0384333 0)
(2.76067 -0.0851212 0)
(2.74161 -0.0882777 0)
(2.69683 -0.17854 0)
(2.68163 -0.248038 0)
(2.62489 -0.41947 0)
(2.60516 -0.410943 0)
(1.60293 1.47618 0)
(1.50287 1.61617 0)
(1.4394 1.85069 0)
(1.72861 1.89489 0)
(2.02149 1.75963 0)
(2.21196 1.75462 0)
(2.34945 1.69414 0)
(2.54325 1.2629 0)
(2.56791 1.3637 0)
(2.67203 0.94599 0)
(2.75367 0.883151 0)
(2.79435 0.65612 0)
(2.81698 0.583265 0)
(2.81653 0.443854 0)
(2.82339 0.348912 0)
(2.84 0.217939 0)
(2.81987 0.0102201 0)
(2.80077 -0.150855 0)
(2.74885 -0.300122 0)
(2.74904 -0.310543 0)
(1.70728 1.50005 0)
(1.65796 1.68532 0)
(1.69849 1.95861 0)
(1.76399 2.06027 0)
(1.9458 1.92278 0)
(2.01031 1.98228 0)
(2.22898 1.68516 0)
(2.31007 1.62816 0)
(2.43692 1.49599 0)
(2.54911 1.30637 0)
(2.6555 1.18293 0)
(2.73818 0.985867 0)
(2.82493 0.871859 0)
(2.88231 0.662327 0)
(2.94941 0.455533 0)
(2.97593 0.210424 0)
(2.95941 -0.0282277 0)
(2.92219 -0.0473299 0)
(2.8675 -0.122061 0)
(2.84805 -0.0865376 0)
(1.63506 1.43077 0)
(1.80274 1.62206 0)
(1.95702 2.0269 0)
(1.88426 2.15515 0)
(2.00218 2.06142 0)
(1.97493 2.13783 0)
(2.25686 1.74534 0)
(2.29605 1.78369 0)
(2.50409 1.48343 0)
(2.59761 1.46014 0)
(2.7283 1.26483 0)
(2.8498 1.05953 0)
(2.98539 0.866894 0)
(3.03597 0.551188 0)
(3.09911 0.335445 0)
(3.0993 0.229226 0)
(3.0513 0.293911 0)
(2.98371 0.360812 0)
(2.93204 0.380672 0)
(2.86927 0.256122 0)
(1.51566 1.34625 0)
(1.82618 1.58688 0)
(2.10683 2.05624 0)
(2.16431 2.32976 0)
(2.32834 2.20992 0)
(2.28699 2.31036 0)
(2.54524 1.80697 0)
(2.55547 1.84291 0)
(2.73787 1.51711 0)
(2.80607 1.52578 0)
(2.90771 1.29023 0)
(3.01467 1.0938 0)
(3.11096 0.95123 0)
(3.17602 0.849186 0)
(3.16861 0.805677 0)
(3.08707 0.834294 0)
(2.97938 0.834133 0)
(2.92246 0.783918 0)
(2.891 0.691193 0)
(2.85597 0.449294 0)
(1.39122 1.3091 0)
(1.76932 1.53294 0)
(2.15862 1.9982 0)
(2.27498 2.24287 0)
(2.49146 2.20172 0)
(2.54966 2.28777 0)
(2.66858 1.96372 0)
(2.7124 1.99675 0)
(2.76182 1.80877 0)
(2.81598 1.76842 0)
(2.91673 1.66775 0)
(2.9858 1.51677 0)