# Force coefficients
# liftDir     : (0.000000e+00 1.000000e+00 0.000000e+00)
# dragDir     : (1.000000e+00 0.000000e+00 0.000000e+00)
# pitchAxis   : (0.000000e+00 0.000000e+00 1.000000e+00)
# magUInf     : 1.000000e+00
# lRef        : 1.000000e+00
# Aref        : 1.000000e-01
# CofR        : (0.000000e+00 0.000000e+00 0.000000e+00)
# Time        	Cm            	Cd            	Cl            	Cl(f)         	Cl(r)         
0.0002        	0.000000e+00	0.000000e+00	0.000000e+00	0.000000e+00	0.000000e+00
0.0004        	0.000000e+00	0.000000e+00	0.000000e+00	0.000000e+00	0.000000e+00
0.0006        	0.000000e+00	0.000000e+00	0.000000e+00	0.000000e+00	0.000000e+00
0.0008        	0.000000e+00	0.000000e+00	0.000000e+00	0.000000e+00	0.000000e+00
0.001         	0.000000e+00	0.000000e+00	0.000000e+00	0.000000e+00	0.000000e+00
0.0012        	0.000000e+00	0.000000e+00	0.000000e+00	0.000000e+00	0.000000e+00
