/*--------------------------------*- C++ -*----------------------------------*\
  =========                 |
  \\      /  F ield         | OpenFOAM: The Open Source CFD Toolbox
   \\    /   O peration     | Website:  https://openfoam.org
    \\  /    A nd           | Version:  7
     \\/     M anipulation  |
\*---------------------------------------------------------------------------*/
FoamFile
{
    version     2.0;
    format      ascii;
    class       volScalarField;
    location    "7";
    object      p;
}
// * * * * * * * * * * * * * * * * * * * * * * * * * * * * * * * * * * * * * //

dimensions      [1 -1 -2 0 0 0 0];

internalField   nonuniform List<scalar> 
3700
(
0.102306
0.182852
0.235876
0.284832
0.310584
0.353377
0.406234
0.43206
0.438014
0.438054
0.450983
0.460679
0.478999
0.480791
0.473837
0.496226
0.506642
0.51524
0.52951
0.523907
0.066042
0.0832231
0.110458
0.129526
0.119877
0.129319
0.144131
0.145623
0.128967
0.107203
0.117604
0.140033
0.165517
0.177265
0.183617
0.195193
0.209399
0.226572
0.232237
0.213081
0.066053
0.0747681
0.0794656
0.0744128
0.0625713
0.0527651
0.0483954
0.0487102
0.0521658
0.0567982
0.0651818
0.0731853
0.0833111
0.0958034
0.107091
0.115295
0.120334
0.121773
0.121955
0.122813
0.0725337
0.0761408
0.0716787
0.0652633
0.0572338
0.0562523
0.0534062
0.0562635
0.0632827
0.0736982
0.0757376
0.0820874
0.0915604
0.105667
0.121504
0.139045
0.157256
0.169442
0.177177
0.178503
0.0757246
0.0728409
0.0669442
0.0618441
0.0598271
0.0673722
0.0689088
0.0772664
0.0935393
0.110711
0.105665
0.111282
0.10864
0.113006
0.125373
0.146752
0.171881
0.197903
0.221507
0.242452
0.0875394
0.0698468
0.0612262
0.0559071
0.0552701
0.0675791
0.0752788
0.0898084
0.112653
0.129856
0.146412
0.162623
0.161868
0.166705
0.165184
0.169681
0.184977
0.22021
0.257959
0.315704
0.0916854
0.064134
0.0512589
0.0492711
0.0499873
0.0619955
0.0731435
0.0936918
0.119995
0.144159
0.173451
0.193257
0.217168
0.23817
0.24844
0.256093
0.265962
0.279515
0.308485
0.391447
0.0856836
0.0521146
0.0442799
0.0467947
0.051182
0.0615453
0.0722127
0.0930729
0.118773
0.1482
0.186728
0.215324
0.258183
0.293247
0.327247
0.359709
0.387364
0.412021
0.436569
0.526211
0.0738955
0.0456381
0.0449925
0.0509725
0.0675526
0.0801537
0.0989823
0.128873
0.146046
0.164012
0.195551
0.233641
0.290775
0.34245
0.396535
0.455523
0.511043
0.568913
0.607231
0.725763
0.0649666
0.0425245
0.0480124
0.0602638
0.0795641
0.103488
0.142666
0.185763
0.219708
0.256138
0.287515
0.326418
0.372013
0.427221
0.486535
0.563226
0.655753
0.748615
0.839383
0.962306
0.0576964
0.0368909
0.0435597
0.0590837
0.0769336
0.109907
0.169282
0.217361
0.27909
0.360689
0.424317
0.490396
0.556573
0.623875
0.680189
0.751767
0.851903
0.96385
1.16567
1.15174
0.0450022
0.027441
0.0298342
0.046061
0.0618275
0.105072
0.173049
0.220877
0.303644
0.431834
0.540004
0.650111
0.76202
0.860373
0.961834
1.07359
1.19064
1.31173
1.53667
1.50829
0.0306267
0.0195886
0.0216139
0.0401341
0.0572093
0.103329
0.167796
0.243001
0.381129
0.541307
0.706869
0.861369
1.01819
1.15541
1.32428
1.50353
1.67771
1.83801
2.08736
2.07363
0.020531
0.0146114
0.0186671
0.0385964
0.0621766
0.191504
0.336283
0.528082
0.762064
0.971608
1.15392
1.31174
1.47448
1.63503
1.85051
2.09733
2.34574
2.59449
2.79333
2.99536
0.014668
0.0122514
0.016418
0.0514327
0.163334
0.434834
0.675447
0.946756
1.25859
1.55712
1.77649
1.97977
2.19179
2.41978
2.71115
2.99747
3.2779
3.51178
3.64987
3.7734
0.0116185
0.0115748
0.0379291
0.164076
0.440859
0.75072
1.09171
1.48371
1.92096
2.29789
2.57358
2.84475
3.12141
3.42592
3.75431
3.97855
4.10781
4.14049
4.0453
3.91332
0.00745094
0.0234714
0.156718
0.432983
0.931681
1.43584
1.94926
2.51873
3.14368
3.54446
3.76373
3.99204
4.19818
4.37114
4.47434
4.40086
4.18443
3.65214
2.79492
1.89231
0.027001
0.14759
0.532361
1.20432
2.05281
2.86815
3.56417
4.26677
4.78654
4.85102
4.74901
4.73391
4.69264
4.53025
4.02592
3.07095
2.09497
1.33372
1.01851
0.99288
0.313615
0.884499
1.96867
3.1859
4.24692
4.86704
5.4094
5.88054
5.75008
5.30634
4.86893
4.32163
3.39907
2.32665
1.42467
1.02885
0.989354
0.994913
0.997311
0.999438
2.3089
3.62837
4.87052
5.71705
6.27103
6.43858
6.57556
6.23012
4.53602
3.20527
2.36997
1.56715
1.08378
0.987604
0.993084
0.996401
0.999182
0.999973
1.00002
1.00001
6.94127
6.89512
6.83643
6.9318
7.0698
6.78461
5.98107
2.23504
0.666643
1
1
1
1
1
1
1
1
1
1
1
6.9137
6.86619
6.75109
6.70893
6.8423
5.77793
2.66626
1.02229
1
1
1
1
1
1
1
1
1
1
1
1
6.81362
6.85433
6.81698
6.65072
6.23835
3.46493
1.06198
0.998678
1
1
1
1
1
1
1
1
1
1
1
1
6.65797
6.81843
6.83203
6.66977
4.71446
1.42567
0.992986
1.00013
0.999999
1
1
1
1
1
1
1
1
1
1
1
6.51468
6.75156
6.78673
6.14945
2.62769
0.976475
1.00035
0.999994
1
1
1
1
1
1
1
1
1
1
1
1
6.44654
6.72433
6.70039
4.91391
1.4789
1
1
1
1
1
1
1
1
1
1
1
1
1
1
1
6.41659
6.78225
6.71294
3.58988
0.983092
1
1
1
1
1
1
1
1
1
1
1
1
1
1
1
6.53493
6.71263
6.08484
2.00713
0.99997
1
1
1
1
1
1
1
1
1
1
1
1
1
1
1
6.95582
6.59745
4.85202
1.22633
1
1
1
1
1
1
1
1
1
1
1
1
1
1
1
1
7.28112
6.40831
3.44116
0.987603
1
1
1
1
1
1
1
1
1
1
1
1
1
1
1
1
7.45733
5.99249
2.2814
1
1
1
1
1
1
1
1
1
1
1
1
1
1
1
1
1
7.51669
5.35715
1.59905
1
1
1
1
1
1
1
1
1
1
1
1
1
1
1
1
1
7.54858
4.74563
1.16088
1
1
1
1
1
1
1
1
1
1
1
1
1
1
1
1
1
7.34298
4.02444
1.01076
1
1
1
1
1
1
1
1
1
1
1
1
1
1
1
1
1
7.16011
3.27931
1
1
1
1
1
1
1
1
1
1
1
1
1
1
1
1
1
1
7.0559
2.48416
1
1
1
1
1
1
1
1
1
1
1
1
1
1
1
1
1
1
6.62236
1.84354
1
1
1
1
1
1
1
1
1
1
1
1
1
1
1
1
1
1
6.3079
1.36005
1
1
1
1
1
1
1
1
1
1
1
1
1
1
1
1
1
1
5.75675
1.0057
1
1
1
1
1
1
1
1
1
1
1
1
1
1
1
1
1
1
4.63894
1.0001
1
1
1
1
1
1
1
1
1
1
1
1
1
1
1
1
1
1
4.63424
1.00009
1
1
1
1
1
1
1
1
1
1
1
1
1
1
1
1
1
1
5.75308
1.006
1
1
1
1
1
1
1
1
1
1
1
1
1
1
1
1
1
1
6.32069
1.36775
1
1
1
1
1
1
1
1
1
1
1
1
1
1
1
1
1
1
6.60996
1.85155
1
1
1
1
1
1
1
1
1
1
1
1
1
1
1
1
1
1
7.04119
2.47527
1
1
1
1
1
1
1
1
1
1
1
1
1
1
1
1
1
1
7.17441
3.26255
1
1
1
1
1
1
1
1
1
1
1
1
1
1
1
1
1
1
7.34249
4.03162
1.0151
1
1
1
1
1
1
1
1
1
1
1
1
1
1
1
1
1
7.54356
4.75402
1.16551
1
1
1
1
1
1
1
1
1
1
1
1
1
1
1
1
1
7.51318
5.36303
1.60089
1
1
1
1
1
1
1
1
1
1
1
1
1
1
1
1
1
7.45377
5.97916
2.28634
1
1
1
1
1
1
1
1
1
1
1
1
1
1
1
1
1
7.28687
6.4181
3.42895
0.987684
1
1
1
1
1
1
1
1
1
1
1
1
1
1
1
1
6.95852
6.59785
4.85468
1.22706
1
1
1
1
1
1
1
1
1
1
1
1
1
1
1
1
6.52272
6.68331
6.05571
2.01005
0.999984
1
1
1
1
1
1
1
1
1
1
1
1
1
1
1
6.42622
6.79962
6.73634
3.57982
0.977041
1
1
1
1
1
1
1
1
1
1
1
1
1
1
1
6.45886
6.74509
6.72243
4.92263
1.4926
1
1
1
1
1
1
1
1
1
1
1
1
1
1
1
6.52381
6.74889
6.77928
6.11688
2.63648
0.976529
1.00035
0.999994
1
1
1
1
1
1
1
1
1
1
1
1
6.65491
6.80148
6.82321
6.67607
4.71025
1.41136
0.993262
1.00013
0.999999
1
1
1
1
1
1
1
1
1
1
1
6.81268
6.85291
6.82491
6.67141
6.23915
3.44889
1.05694
0.998729
1
1
1
1
1
1
1
1
1
1
1
1
6.9299
6.86857
6.76176
6.72053
6.80756
5.77274
2.6857
1.02613
1
1
1
1
1
1
1
1
1
1
1
1
6.9377
6.89186
6.83781
6.9296
7.06472
6.78341
5.98496
2.25226
0.665146
1
1
1
1
1
1
1
1
1
1
1
2.30709
3.62463
4.87081
5.71925
6.27299
6.43632
6.57379
6.22777
4.5322
3.20222
2.36768
1.5648
1.0827
0.987526
0.993019
0.996391
0.999189
0.999974
1.00002
1.00001
0.31345
0.876624
1.94641
3.1657
4.24971
4.88136
5.41694
5.87593
5.74498
5.30478
4.87122
4.3261
3.40224
2.32843
1.42569
1.02918
0.989382
0.994922
0.997313
0.999437
0.028375
0.158006
0.540521
1.20075
2.04496
2.86492
3.56541
4.26565
4.79117
4.85572
4.76089
4.73232
4.68955
4.52857
4.02478
3.06955
2.09409
1.33358
1.01855
0.992879
0.00660764
0.0237374
0.16098
0.423911
0.921506
1.43058
1.94787
2.51824
3.14275
3.54555
3.76865
3.99358
4.19683
4.36629
4.47178
4.39934
4.18397
3.65273
2.79618
1.89316
0.00962343
0.0130435
0.0381418
0.174651
0.444217
0.748039
1.08517
1.47949
1.92001
2.3018
2.57808
2.84694
3.12045
3.42314
3.75187
3.97749
4.10822
4.1415
4.04658
3.91461
0.0158295
0.0136027
0.0158711
0.0588663
0.174114
0.439845
0.677387
0.946995
1.25885
1.55533
1.77588
1.98034
2.19252
2.42018
2.71039
2.99574
3.27694
3.51273
3.65142
3.77432
0.0212563
0.0155608
0.0170288
0.0360005
0.0668877
0.197911
0.343101
0.528859
0.759047
0.967219
1.15154
1.31044
1.47382
1.63451
1.84909
2.09481
2.34398
2.59433
2.79456
2.99641
0.0298115
0.0193169
0.0197256
0.0375474
0.059734
0.10341
0.167544
0.243779
0.38268
0.544949
0.70981
0.863231
1.01883
1.15528
1.3234
1.50232
1.67753
1.8391
2.0893
2.07577
0.0431147
0.0265149
0.0288088
0.0434322
0.0633968
0.104134
0.171411
0.223
0.307189
0.434819
0.542429
0.652117
0.76305
0.860739
0.961599
1.07323
1.19067
1.31276
1.5376
1.5088
0.0569575
0.0372098
0.0442098
0.0571951
0.0762402
0.108789
0.168671
0.217142
0.278781
0.360004
0.424222
0.490547
0.556369
0.622951
0.678606
0.750289
0.850981
0.963354
1.16599
1.15119
0.0666002
0.0443163
0.0488342
0.0601724
0.0783408
0.102582
0.14251
0.183223
0.217156
0.253539
0.285316
0.323602
0.36866
0.423739
0.483558
0.561586
0.655553
0.748622
0.839282
0.962776
0.0759925
0.0472881
0.0449236
0.0514437
0.0670446
0.0786065
0.0974125
0.126199
0.144904
0.161429
0.192252
0.23084
0.288445
0.340822
0.395832
0.455794
0.51178
0.569756
0.607472
0.726662
0.0871048
0.0517059
0.0433437
0.0463606
0.0511831
0.0607076
0.0713639
0.0908354
0.116291
0.146138
0.185117
0.214421
0.257826
0.293344
0.327816
0.360411
0.387953
0.412424
0.436928
0.525877
0.0948174
0.0622628
0.0480523
0.0479781
0.0497959
0.0610942
0.0724926
0.0925183
0.118493
0.14352
0.17331
0.193503
0.217754
0.239006
0.248998
0.256102
0.265866
0.279388
0.308504
0.390775
0.0953044
0.0714496
0.0593824
0.0553538
0.0552092
0.0669446
0.0756332
0.0908817
0.112423
0.130447
0.147333
0.163337
0.162591
0.167252
0.165676
0.170131
0.185316
0.220232
0.257762
0.314945
0.0844991
0.0754998
0.0677507
0.0621076
0.0607431
0.0674569
0.070647
0.0791231
0.0942116
0.111682
0.106769
0.1122
0.108866
0.113131
0.125708
0.146993
0.171849
0.197527
0.220905
0.241767
0.0792949
0.0787077
0.0726618
0.0649853
0.0579071
0.057597
0.0550024
0.057291
0.064117
0.0744752
0.0763442
0.0824491
0.0916118
0.10561
0.121511
0.138906
0.156785
0.169024
0.176643
0.178045
0.0726743
0.0766066
0.079861
0.0739702
0.0616445
0.0521439
0.0491629
0.0494923
0.0527628
0.0569789
0.0650037
0.0729312
0.0829766
0.0954159
0.106684
0.114847
0.119782
0.121207
0.121359
0.122702
0.0686681
0.0820177
0.0986587
0.120078
0.141091
0.135739
0.122944
0.127993
0.148999
0.164302
0.1695
0.154015
0.157782
0.176753
0.205117
0.228348
0.220545
0.196242
0.189759
0.189005
0.10017
0.188748
0.224164
0.26836
0.326126
0.368433
0.402158
0.43053
0.456741
0.471436
0.479719
0.465696
0.47795
0.484533
0.48576
0.496182
0.493196
0.483645
0.499731
0.519252
0.564244
0.639804
0.719087
0.812172
0.811832
0.832331
0.845458
0.880471
0.900538
0.909008
0.912836
0.91948
0.935623
0.960784
0.96396
0.951647
0.94293
0.945788
0.956826
0.962914
0.292061
0.429516
0.56591
0.689522
0.753172
0.817613
0.841202
0.874709
0.897627
0.916996
0.930781
0.936243
0.939401
0.95204
0.95936
0.958805
0.959195
0.959831
0.962759
0.962341
0.135266
0.166115
0.247648
0.341768
0.526699
0.689739
0.76439
0.839211
0.887289
0.915353
0.929132
0.934755
0.936756
0.940675
0.946636
0.956928
0.966914
0.969331
0.967728
0.9626
0.186633
0.213206
0.22791
0.241949
0.263744
0.344116
0.544916
0.724611
0.818218
0.882658
0.930276
0.932254
0.93211
0.929523
0.93575
0.950398
0.964886
0.969252
0.966552
0.961922
0.238347
0.254081
0.271312
0.296372
0.308523
0.295705
0.315249
0.399901
0.589967
0.770904
0.886063
0.92134
0.929164
0.922632
0.924268
0.943433
0.962592
0.962654
0.959128
0.959976
0.314739
0.317698
0.330409
0.342954
0.344646
0.333674
0.335235
0.331461
0.354907
0.475938
0.696942
0.869479
0.923881
0.929895
0.920367
0.938373
0.958657
0.956256
0.953065
0.960948
0.405975
0.402336
0.377471
0.377203
0.390876
0.384869
0.376341
0.37512
0.36333
0.366405
0.448198
0.654477
0.871859
0.933674
0.923114
0.933777
0.939106
0.934706
0.944865
0.963399
0.52625
0.504493
0.439474
0.421933
0.431492
0.431936
0.423214
0.417589
0.407523
0.383814
0.384359
0.438762
0.632459
0.871339
0.924178
0.941954
0.929306
0.930014
0.950961
0.966908
0.685881
0.621915
0.522718
0.459942
0.472361
0.485902
0.47935
0.467483
0.448274
0.422803
0.400765
0.403482
0.443734
0.630218
0.855618
0.936657
0.917009
0.926972
0.962762
0.967872
0.871505
0.777108
0.644456
0.543084
0.528376
0.536631
0.529293
0.506605
0.48828
0.454736
0.43318
0.421541
0.427177
0.462858
0.630135
0.85333
0.887687
0.936108
0.972671
0.963272
1.23129
0.998312
0.845059
0.658866
0.593601
0.58301
0.586669
0.582185
0.565033
0.530739
0.492035
0.470026
0.4597
0.465485
0.487226
0.576493
0.74779
0.888788
0.936743
0.951259
2.0279
1.46157
1.21439
0.988596
0.838554
0.74037
0.6828
0.662807
0.628997
0.58509
0.551447
0.538758
0.523922
0.508905
0.486783
0.489654
0.526333
0.637934
0.783652
0.904798
2.51008
2.15479
1.71088
1.36777
1.10427
0.948379
0.801074
0.742493
0.711514
0.662216
0.654003
0.638826
0.608724
0.57791
0.549994
0.520464
0.52365
0.535053
0.576071
0.74376
2.3694
2.3504
2.23012
1.92994
1.54344
1.28954
1.07912
0.937325
0.889438
0.825139
0.765241
0.713795
0.658399
0.611977
0.598411
0.585092
0.568826
0.558489
0.550761
0.585608
1.6788
2.15407
2.22397
2.19539
2.04997
1.76909
1.4999
1.23289
1.0765
0.959166
0.857303
0.803797
0.757068
0.702892
0.689506
0.674877
0.649843
0.622345
0.579706
0.580979
1.10676
1.43982
1.8533
2.11653
2.11298
2.06774
1.93268
1.69229
1.43425
1.23858
1.05814
0.981039
0.932403
0.8622
0.797285
0.740375
0.687287
0.652073
0.629964
0.605745
1.00446
1.04443
1.20866
1.5548
1.86345
2.01443
2.01134
1.97247
1.83306
1.63085
1.40402
1.20804
1.08086
0.972306
0.888923
0.828574
0.764489
0.722614
0.724181
0.699305
1.00009
1.00111
1.01088
1.07907
1.27094
1.56909
1.82478
1.93681
1.92932
1.88621
1.77291
1.57992
1.38202
1.21347
1.08716
1.01287
0.946857
0.880065
0.826098
0.757904
1
1.00001
1.00015
1.00247
1.01911
1.10072
1.28933
1.55608
1.76614
1.85909
1.85382
1.81632
1.71548
1.55857
1.3766
1.21931
1.10578
1.00487
0.923138
0.830511
1
1
1
1.00003
1.00033
1.00394
1.02408
1.10838
1.28532
1.52312
1.7019
1.78788
1.78399
1.7569
1.67906
1.53822
1.37989
1.22962
1.12512
0.999718
1
1
1
1
1
1.00005
1.00048
1.00469
1.02668
1.10493
1.2633
1.47663
1.63923
1.72407
1.7225
1.70304
1.64257
1.52723
1.39631
1.19637
1
1
1
1
1
1
1
1.00006
1.00059
1.00466
1.02566
1.09385
1.23435
1.41989
1.58129
1.66585
1.66326
1.65094
1.61581
1.46292
1
1
1
1
1
1
1
1
1.00001
1.00006
1.0006
1.00413
1.02199
1.08121
1.19721
1.3689
1.50696
1.61317
1.61427
1.59001
1
1
1
1
1
1
1
1
1
1
1.00001
1.00005
1.00051
1.00358
1.01676
1.06578
1.16428
1.31321
1.44357
1.55149
1
1
1
1
1
1
1
1
1
1
1
1
1.00001
1.00005
1.00039
1.00265
1.0141
1.05099
1.13606
1.38976
1.62748
2.46538
2.5846
2.08442
1.30965
1.03701
1.00189
1.00005
1
1
1
1
1
1
1
2.34209
2.81606
2.52818
1.54211
1.04839
1.00081
1
1
1
1
1
1
1
1
1
2.92962
2.8714
1.98354
1.15295
1.00524
1.00005
1
1
1
1
1
1
1
1
1
3.25149
2.55645
1.36476
1.01912
1.00018
1
1
1
1
1
1
1
1
1
1
3.31538
1.68421
1.04778
1.00055
1
1
1
1
1
1
1
1
1
1
1
2.06652
1.07308
1.00047
0.999998
0.999999
1
1
1
1
1
1
1
1
1
1
1.10223
1.00056
0.999997
1
1
1
1
1
1
1
1
1
1
1
1
0.99814
0.999864
0.999996
1
1
1
1
1
1
1
1
1
1
1
1
0.999966
1
1
1
1
1
1
1
1
1
1
1
1
1
1
1
1
1
1
1
1
1
1
1
1
1
1
1
1
1
1
1
1
1
1
1
1
1
1
1
1
1
1
1
1
1
1
1
1
1
1
1
1
1
1
1
1
1
1
1
1
1
1
1
1
1
1
1
1
1
1
1
1
1
1
1
1
1
1
1
1
1
1
1
1
1
1
1
1
1
1
1
1
1
1
1
1
1
1
1
1
1
1
1
1
1
1
1
1
1
1
1
1
1
1
1
1
1
1
1
1
1
1
1
1
1
1
1
1
1
1
1
1
1
1
1
1
1
1
1
1
1
1
1
1
1
1
1
1
1
1
1
1
1
1
1
1
1
1
1
1
1
1
1
1
1
1
1
1
1
1
1
1
1
1
1
1
1
1
1
1
1
1
1
1
1
1
1
1
1
1
1
1
1
1
1
1
1
1
1
1
1
1
1
1
1
1
1
1
1
1
1
1
1
1
1
1
1
1
1
1
1
1
1
1
1
1
1
1
1
1
1
1
1
1
1
1
1
1
1
1
1
1
1
1
1
1
1
1
1
1
1
1
1
1
1
1
1
1
1
1
1
1
1
1
1
1
1
1
1
1
1
1
1
1
1
1
1
1
1
1
1
1
1
1
1
1
1
1
1
1
1
1
1
1
1
1
1
1
1
1
1
1
1
1
1
1
1
1
1
1
1
1
1
1
1
1
1
1
1
1
1
1
1
1
1
1
1
1
1
1
1
1
1
1
1
1
1
1
1
1
1
1
1
1
1
1
1
1
1
1
1
1
1
1
1
1
1
1
1
1
1
1
1
1
1
1
1
1
1
1
1
1
1
1
1
1
1
1
1
1
1
1
1
1
1
1
1
1
1
1
1
1
1
1
1
1
1
1
1
1
1
1
1
1
1
1
1
1
1
1
1
1
1
1
1
1
1
1
1
1
1
1
1
1
1
1
1
1
1
1
1
1
1
1
1
1
1
1
1
1
1
1
1
1
1
1
1
1
1
1
1
1
1
1
1
1
1
1
1
1
1
1
1
1
1
1
1
1
1
1
1
1
1
1
1
1
1
1
1
1
1
1
1
1
1
1
1
1
1
1
1
1
1
1
1
1
1
1
1
1
1
1
1
1
1
1
1
1
1
1
1
1
1
1
1
1
1
1
1
1
1
1
1
1
1
1
1
1
1
1
1
1
1
1
1
1
1
1
1
1
1
1
1
1
1
1
1
1
1
1
1
1
1
1
1
1
1
1
1
1
1
1
1
1
1
1
1
1
1
1
1
1
1
1
1
1
1
1
1
1
1
1
1
1
1
1
1
1
1
1
1
1
1
1
1
1
1
1
1
1
1
1
1
1
1
1
1
1
1
1
1
1
1
1
1
1
1
1
1
1
1
1
1
1
1
1
1
1
1
1
1
1
1
1
1
1
1
1
1
1
1
1
1
1
1
1
1
1
1
1
1
1
1
1
1
1
1
1
1
1
1
1
1
1
1
1
1
1
1
1
1
1
1
1
1
1
1
1
1
1
1
1
1
1
1
1
1
1
1
1
1
1
1
1
1
1
1
1
1
1
1
1
1
1
1
1
1
1
1
1
1
1
1
1
1
1
1
1
1
1
1
1
1
1
1
1
1
1
1
1
1
1
1
1
1
1
1
1
1
1
1
1
1
1
1
1
1
1
1
1
1
1
1
1
1
1
1
1
1
1
1
1
1
1
1
1
1
1
1
1
1
1
1
1
1
1
1
1
1
1
1
1
1
1
1
1
1
1
1
1
1
1
1
1
1
1
1
1
1
1
1
1
1
1
1
1
1
1
1
1
1
1
1
1
1
1
1
1
1
1
1
1
1
1
1
1
1
1
1
1
1
1
1
1
1
1
1
1
1
1
1
1
1
1
0.999966
1
1
1
1
1
1
1
1
1
1
1
1
1
1
0.998142
0.999864
0.999996
1
1
1
1
1
1
1
1
1
1
1
1
1.10229
1.00056
0.999997
1
1
1
1
1
1
1
1
1
1
1
1
2.06644
1.07298
1.00047
0.999998
0.999999
1
1
1
1
1
1
1
1
1
1
3.31546
1.68388
1.04774
1.00055
1
1
1
1
1
1
1
1
1
1
1
3.25146
2.55631
1.36481
1.01911
1.00017
1
1
1
1
1
1
1
1
1
1
2.92957
2.8712
1.98348
1.1531
1.00526
1.00005
1
1
1
1
1
1
1
1
1
2.34292
2.81589
2.52832
1.54213
1.04838
1.00081
1
1
1
1
1
1
1
1
1
1.62616
2.46538
2.58469
2.08462
1.30967
1.03703
1.00189
1.00005
1
1
1
1
1
1
1
1.2374
2.02529
2.50959
2.36872
1.67813
1.1063
1.00445
1.00009
1
1
1
1
1
1
1
1.00086
1.47104
2.15276
2.3501
2.15522
1.44048
1.0445
1.00111
1.00001
1
1
1
1
1
1
0.832814
1.21522
1.71692
2.23231
2.22393
1.85333
1.20876
1.01089
1.00015
1
1
1
1
1
1
0.650032
0.980614
1.36782
1.92932
2.19459
2.11592
1.55495
1.07906
1.00247
1.00003
1
1
1
1
1
0.596007
0.835427
1.10324
1.54177
2.04715
2.11204
1.86284
1.27084
1.01911
1.00033
1
1
1
1
1
0.591242
0.743397
0.95312
1.29735
1.76457
2.06676
2.01425
1.56953
1.10075
1.00393
1.00005
1
1
1
1
0.592136
0.682376
0.793364
1.0873
1.50415
1.93378
2.01147
1.82468
1.28949
1.0241
1.00048
1
1
1
1
0.587222
0.666972
0.729906
0.928586
1.24053
1.69282
1.97289
1.93712
1.55616
1.10835
1.00469
1.00006
1
1
1
0.571416
0.637946
0.706708
0.873791
1.0716
1.43762
1.83528
1.92968
1.76628
1.28517
1.02666
1.00059
1.00001
1
1
0.528181
0.588626
0.674231
0.825049
0.953595
1.23144
1.63019
1.88683
1.85919
1.523
1.10488
1.00466
1.00006
1
1
0.483925
0.547887
0.656889
0.769128
0.864715
1.06474
1.39868
1.77139
1.85365
1.70177
1.26342
1.02572
1.00061
1.00001
1
0.470629
0.536049
0.637645
0.71286
0.806858
0.987
1.20995
1.57791
1.81553
1.78728
1.47696
1.09403
1.00413
1.00005
1
0.462687
0.527843
0.612817
0.65613
0.744856
0.926925
1.08259
1.38091
1.7154
1.78359
1.63881
1.23417
1.02211
1.00051
1.00001
0.46228
0.514571
0.584156
0.616094
0.69402
0.854003
0.974828
1.21528
1.55743
1.75665
1.72419
1.42116
1.0808
1.00356
1.00005
0.481245
0.488652
0.550858
0.601632
0.691308
0.795421
0.890232
1.08794
1.37708
1.67861
1.72234
1.57888
1.1978
1.01682
1.00039
0.572648
0.489339
0.517077
0.586892
0.679891
0.742208
0.824141
1.01025
1.22193
1.53799
1.70292
1.66613
1.36857
1.06572
1.00265
0.750278
0.525371
0.521598
0.572723
0.652465
0.693183
0.768337
0.941854
1.10469
1.38144
1.64324
1.66442
1.50648
1.16383
1.01405
0.886662
0.639992
0.53452
0.561243
0.621065
0.656882
0.731796
0.881471
1.00241
1.23109
1.52804
1.65209
1.61335
1.31318
1.05094
0.941068
0.78913
0.577714
0.548432
0.573131
0.631808
0.727089
0.830793
0.922286
1.12487
1.39625
1.61601
1.61474
1.44365
1.13603
0.952706
0.910036
0.747554
0.580919
0.573412
0.609059
0.697384
0.759938
0.830495
0.999183
1.19584
1.46264
1.59007
1.55139
1.38969
0.8699
0.778976
0.639812
0.543176
0.530987
0.5363
0.519026
0.502578
0.489013
0.448082
0.42864
0.418496
0.424846
0.460758
0.625246
0.845282
0.882194
0.932922
0.973892
0.963682
0.68612
0.621883
0.521247
0.466052
0.481474
0.48791
0.472883
0.46356
0.445464
0.418389
0.396118
0.400182
0.441875
0.622553
0.846532
0.940024
0.91738
0.929436
0.966191
0.96638
0.528925
0.504994
0.440312
0.420519
0.432876
0.430718
0.422695
0.416819
0.405225
0.381994
0.383501
0.436007
0.624449
0.8627
0.919736
0.948469
0.937807
0.933125
0.953384
0.966133
0.406517
0.401274
0.380023
0.384091
0.393197
0.382623
0.377423
0.375654
0.364769
0.367626
0.444776
0.657384
0.846756
0.941459
0.93132
0.94348
0.945633
0.937533
0.945604
0.962518
0.313821
0.318157
0.330863
0.345756
0.345121
0.33303
0.336786
0.332769
0.358754
0.481014
0.696406
0.879199
0.922577
0.939389
0.933523
0.943594
0.956076
0.952935
0.950015
0.959142
0.23565
0.257186
0.270782
0.294351
0.303178
0.290861
0.312297
0.401963
0.59756
0.777111
0.89029
0.92251
0.932581
0.929695
0.929769
0.943753
0.958719
0.958365
0.953388
0.957577
0.185938
0.213401
0.238184
0.243475
0.266657
0.351247
0.545834
0.728024
0.823632
0.883589
0.932336
0.933091
0.930086
0.923435
0.929955
0.94829
0.962887
0.964335
0.959649
0.956952
0.136669
0.157369
0.217797
0.329068
0.541674
0.689483
0.761084
0.837512
0.887248
0.913602
0.929681
0.935412
0.933206
0.930577
0.936873
0.953729
0.964227
0.96608
0.961301
0.956998
0.27131
0.401572
0.52826
0.688543
0.75375
0.814139
0.833269
0.867202
0.893741
0.912899
0.927168
0.933204
0.93118
0.93693
0.948469
0.957739
0.961366
0.961579
0.956734
0.954795
0.554595
0.633598
0.713251
0.813143
0.806683
0.822972
0.843673
0.881874
0.907324
0.922285
0.928491
0.931068
0.935454
0.954618
0.963917
0.958959
0.951824
0.950655
0.955055
0.960591
)
;

boundaryField
{
    inlet
    {
        type            fixedValue;
        value           uniform 1;
    }
    outlet
    {
        type            zeroGradient;
    }
    airfoil
    {
        type            zeroGradient;
    }
    top
    {
        type            symmetryPlane;
    }
    bottom
    {
        type            symmetryPlane;
    }
    defaultFaces
    {
        type            empty;
    }
}


// ************************************************************************* //
