/*--------------------------------*- C++ -*----------------------------------*\
  =========                 |
  \\      /  F ield         | OpenFOAM: The Open Source CFD Toolbox
   \\    /   O peration     | Website:  https://openfoam.org
    \\  /    A nd           | Version:  7
     \\/     M anipulation  |
\*---------------------------------------------------------------------------*/
FoamFile
{
    version     2.0;
    format      ascii;
    class       volScalarField;
    location    "7";
    object      rho;
}
// * * * * * * * * * * * * * * * * * * * * * * * * * * * * * * * * * * * * * //

dimensions      [1 -3 0 0 0 0 0];

internalField   nonuniform List<scalar> 
3700
(
0.142533
0.254251
0.327641
0.395462
0.431053
0.489813
0.562287
0.597942
0.606298
0.606689
0.624706
0.637874
0.663122
0.665702
0.656261
0.68727
0.701609
0.713515
0.733326
0.725746
0.0923371
0.116262
0.154085
0.180638
0.167282
0.180195
0.200388
0.202455
0.179512
0.149545
0.164044
0.19506
0.230439
0.246896
0.25592
0.272026
0.291706
0.315419
0.323281
0.296822
0.0923754
0.104536
0.111123
0.104108
0.0876029
0.0739373
0.067844
0.068288
0.0731222
0.0795993
0.0913165
0.102496
0.116638
0.134094
0.149868
0.161339
0.168386
0.170413
0.170693
0.171903
0.101414
0.106454
0.100265
0.0913343
0.0801367
0.0787823
0.0748344
0.0788511
0.0886861
0.103263
0.106114
0.114978
0.128199
0.147897
0.17002
0.194533
0.219971
0.236992
0.247813
0.249708
0.10584
0.10184
0.0936466
0.0865373
0.0837186
0.094261
0.0964397
0.10814
0.1309
0.154917
0.147906
0.155774
0.152097
0.158186
0.175451
0.205314
0.240415
0.27673
0.309683
0.338908
0.122259
0.0976493
0.0856535
0.078237
0.0773452
0.094538
0.105312
0.125612
0.157519
0.181566
0.204711
0.227386
0.226374
0.233162
0.23107
0.237371
0.258748
0.307918
0.360576
0.441094
0.128007
0.0896644
0.0717565
0.0689966
0.0699976
0.0867703
0.102339
0.131028
0.167749
0.201484
0.242381
0.270066
0.303463
0.332808
0.34717
0.357892
0.371721
0.390675
0.431117
0.546722
0.119656
0.0729288
0.0620368
0.0655608
0.0716868
0.0861676
0.101063
0.130186
0.166069
0.207136
0.260908
0.300836
0.360633
0.409562
0.456992
0.502281
0.54089
0.575303
0.60955
0.734448
0.103325
0.0639209
0.0630436
0.0714215
0.094601
0.112213
0.138506
0.180225
0.204209
0.229258
0.273276
0.326434
0.406108
0.478166
0.553552
0.635747
0.713124
0.793791
0.847189
1.01216
0.0909435
0.059592
0.0672754
0.084409
0.111372
0.144765
0.199456
0.259577
0.306948
0.357741
0.401526
0.455777
0.519369
0.596339
0.678989
0.785787
0.914587
1.04387
1.17021
1.34116
0.0808272
0.0517365
0.0610451
0.0827491
0.107691
0.153686
0.236525
0.303597
0.389639
0.503317
0.592007
0.684092
0.77629
0.870061
0.9485
1.04817
1.18752
1.34324
1.62379
1.60448
0.0631043
0.0385329
0.0418534
0.0645421
0.0865753
0.146912
0.241709
0.308463
0.423807
0.602314
0.752962
0.906294
1.0621
1.19905
1.3402
1.49562
1.65831
1.82661
2.13911
2.09972
0.0429981
0.0275413
0.0303501
0.0562584
0.0801066
0.144388
0.234301
0.339186
0.53162
0.754671
0.985109
1.20013
1.41833
1.60924
1.84397
2.09295
2.33475
2.55721
2.90331
2.88431
0.0288585
0.0205581
0.0262137
0.0541022
0.0869483
0.267122
0.468845
0.73581
1.06133
1.35276
1.60636
1.8259
2.05226
2.27546
2.57474
2.91723
3.26167
3.60656
3.88245
4.16294
0.020642
0.0172431
0.023052
0.0720006
0.227918
0.605758
0.940563
1.31781
1.75119
2.16602
2.4709
2.75328
3.04772
3.36412
3.76827
4.16524
4.55396
4.87826
5.07029
5.24221
0.0163653
0.016286
0.0531169
0.229033
0.614115
1.04505
1.51904
2.06359
2.67083
3.19428
3.57699
3.95312
4.33662
4.75852
5.21368
5.52448
5.70403
5.74978
5.61898
5.43813
0.0105036
0.0329408
0.218932
0.603238
1.29612
1.99648
2.70943
3.49972
4.36679
4.92269
5.22657
5.5427
5.82793
6.06772
6.21105
6.10973
5.81223
5.07855
3.89272
2.64186
0.0379812
0.206367
0.741678
1.67485
2.85238
3.98327
4.94837
5.92237
6.64307
6.73209
6.5905
6.5695
6.5123
6.28842
5.59319
4.27281
2.92248
1.86532
1.42584
1.39007
0.438551
1.23179
2.73609
4.4233
5.89325
6.75261
7.50421
8.1577
7.97704
7.36207
6.75606
5.99977
4.72434
3.24208
1.99163
1.44025
1.38515
1.3929
1.39625
1.39922
3.21014
5.03762
6.75711
7.92856
8.69568
8.92867
9.11891
8.64213
6.29733
4.45335
3.29887
2.18885
1.51682
1.38271
1.39035
1.39498
1.39886
1.39997
1.40003
1.40002
9.62185
9.5581
9.47711
9.60937
9.80123
9.40902
8.30082
3.11555
0.934633
1.40001
1.40001
1.40001
1.40001
1.40001
1.40001
1.40001
1.40001
1.40001
1.40001
1.40001
9.58395
9.51832
9.3594
9.30189
9.4879
8.0193
3.71393
1.43097
1.40001
1.40001
1.40001
1.40001
1.40001
1.40001
1.40001
1.40001
1.40001
1.40001
1.40001
1.40001
9.44567
9.50205
9.45076
9.22206
8.65441
4.81968
1.48605
1.39817
1.40001
1.40001
1.40001
1.40001
1.40001
1.40001
1.40001
1.40001
1.40001
1.40001
1.40001
1.40001
9.23035
9.45236
9.4717
9.2495
6.54899
1.99133
1.39024
1.40019
1.4
1.40001
1.40001
1.40001
1.40001
1.40001
1.40001
1.40001
1.40001
1.40001
1.40001
1.40001
9.03206
9.35978
9.40907
8.53089
3.65872
1.36717
1.4005
1.4
1.40001
1.40001
1.40001
1.40001
1.40001
1.40001
1.40001
1.40001
1.40001
1.40001
1.40001
1.40001
8.93774
9.32206
9.28957
6.82255
2.06465
1.40001
1.40001
1.40001
1.40001
1.40001
1.40001
1.40001
1.40001
1.40001
1.40001
1.40001
1.40001
1.40001
1.40001
1.40001
8.89628
9.40212
9.30711
4.99062
1.37636
1.40001
1.40001
1.40001
1.40001
1.40001
1.40001
1.40001
1.40001
1.40001
1.40001
1.40001
1.40001
1.40001
1.40001
1.40001
9.05989
9.3065
8.44095
2.79721
1.39999
1.40001
1.40001
1.40001
1.40001
1.40001
1.40001
1.40001
1.40001
1.40001
1.40001
1.40001
1.40001
1.40001
1.40001
1.40001
9.64173
9.14833
6.73779
1.71411
1.4
1.40001
1.40001
1.40001
1.40001
1.40001
1.40001
1.40001
1.40001
1.40001
1.40001
1.40001
1.40001
1.40001
1.40001
1.40001
10.0913
8.88794
4.78532
1.3827
1.40001
1.40001
1.40001
1.40001
1.40001
1.40001
1.40001
1.40001
1.40001
1.40001
1.40001
1.40001
1.40001
1.40001
1.40001
1.40001
10.3346
8.3145
3.17809
1.40001
1.40001
1.40001
1.40001
1.40001
1.40001
1.40001
1.40001
1.40001
1.40001
1.40001
1.40001
1.40001
1.40001
1.40001
1.40001
1.40001
10.4162
7.43693
2.23165
1.40001
1.40001
1.40001
1.40001
1.40001
1.40001
1.40001
1.40001
1.40001
1.40001
1.40001
1.40001
1.40001
1.40001
1.40001
1.40001
1.40001
10.4599
6.59141
1.62343
1.40001
1.40001
1.40001
1.40001
1.40001
1.40001
1.40001
1.40001
1.40001
1.40001
1.40001
1.40001
1.40001
1.40001
1.40001
1.40001
1.40001
10.1751
5.59279
1.41494
1.40001
1.40001
1.40001
1.40001
1.40001
1.40001
1.40001
1.40001
1.40001
1.40001
1.40001
1.40001
1.40001
1.40001
1.40001
1.40001
1.40001
9.92398
4.55997
1.40001
1.40001
1.40001
1.40001
1.40001
1.40001
1.40001
1.40001
1.40001
1.40001
1.40001
1.40001
1.40001
1.40001
1.40001
1.40001
1.40001
1.40001
9.78187
3.45838
1.40001
1.40001
1.40001
1.40001
1.40001
1.40001
1.40001
1.40001
1.40001
1.40001
1.40001
1.40001
1.40001
1.40001
1.40001
1.40001
1.40001
1.40001
9.18458
2.57022
1.40001
1.40001
1.40001
1.40001
1.40001
1.40001
1.40001
1.40001
1.40001
1.40001
1.40001
1.40001
1.40001
1.40001
1.40001
1.40001
1.40001
1.40001
8.75142
1.89963
1.40001
1.40001
1.40001
1.40001
1.40001
1.40001
1.40001
1.40001
1.40001
1.40001
1.40001
1.40001
1.40001
1.40001
1.40001
1.40001
1.40001
1.40001
7.99011
1.40792
1.40001
1.40001
1.40001
1.40001
1.40001
1.40001
1.40001
1.40001
1.40001
1.40001
1.40001
1.40001
1.40001
1.40001
1.40001
1.40001
1.40001
1.40001
6.44237
1.40014
1.40001
1.40001
1.40001
1.40001
1.40001
1.40001
1.40001
1.40001
1.40001
1.40001
1.40001
1.40001
1.40001
1.40001
1.40001
1.40001
1.40001
1.40001
6.43592
1.40013
1.40001
1.40001
1.40001
1.40001
1.40001
1.40001
1.40001
1.40001
1.40001
1.40001
1.40001
1.40001
1.40001
1.40001
1.40001
1.40001
1.40001
1.40001
7.98509
1.40834
1.40001
1.40001
1.40001
1.40001
1.40001
1.40001
1.40001
1.40001
1.40001
1.40001
1.40001
1.40001
1.40001
1.40001
1.40001
1.40001
1.40001
1.40001
8.76892
1.91031
1.40001
1.40001
1.40001
1.40001
1.40001
1.40001
1.40001
1.40001
1.40001
1.40001
1.40001
1.40001
1.40001
1.40001
1.40001
1.40001
1.40001
1.40001
9.16728
2.58132
1.40001
1.40001
1.40001
1.40001
1.40001
1.40001
1.40001
1.40001
1.40001
1.40001
1.40001
1.40001
1.40001
1.40001
1.40001
1.40001
1.40001
1.40001
9.7616
3.4461
1.40001
1.40001
1.40001
1.40001
1.40001
1.40001
1.40001
1.40001
1.40001
1.40001
1.40001
1.40001
1.40001
1.40001
1.40001
1.40001
1.40001
1.40001
9.94393
4.53682
1.40001
1.40001
1.40001
1.40001
1.40001
1.40001
1.40001
1.40001
1.40001
1.40001
1.40001
1.40001
1.40001
1.40001
1.40001
1.40001
1.40001
1.40001
10.1745
5.60265
1.42098
1.40001
1.40001
1.40001
1.40001
1.40001
1.40001
1.40001
1.40001
1.40001
1.40001
1.40001
1.40001
1.40001
1.40001
1.40001
1.40001
1.40001
10.4529
6.60291
1.62986
1.40001
1.40001
1.40001
1.40001
1.40001
1.40001
1.40001
1.40001
1.40001
1.40001
1.40001
1.40001
1.40001
1.40001
1.40001
1.40001
1.40001
10.4113
7.44499
2.23419
1.40001
1.40001
1.40001
1.40001
1.40001
1.40001
1.40001
1.40001
1.40001
1.40001
1.40001
1.40001
1.40001
1.40001
1.40001
1.40001
1.40001
10.3296
8.29608
3.18495
1.40001
1.40001
1.40001
1.40001
1.40001
1.40001
1.40001
1.40001
1.40001
1.40001
1.40001
1.40001
1.40001
1.40001
1.40001
1.40001
1.40001
10.0992
8.90149
4.7684
1.38281
1.40001
1.40001
1.40001
1.40001
1.40001
1.40001
1.40001
1.40001
1.40001
1.40001
1.40001
1.40001
1.40001
1.40001
1.40001
1.40001
9.64551
9.14892
6.74148
1.71513
1.4
1.40001
1.40001
1.40001
1.40001
1.40001
1.40001
1.40001
1.40001
1.40001
1.40001
1.40001
1.40001
1.40001
1.40001
1.40001
9.04309
9.26613
8.4008
2.80125
1.39999
1.40001
1.40001
1.40001
1.40001
1.40001
1.40001
1.40001
1.40001
1.40001
1.40001
1.40001
1.40001
1.40001
1.40001
1.40001
8.90963
9.42615
9.33951
4.97683
1.36795
1.40001
1.40001
1.40001
1.40001
1.40001
1.40001
1.40001
1.40001
1.40001
1.40001
1.40001
1.40001
1.40001
1.40001
1.40001
8.95477
9.35072
9.31998
6.83457
2.08365
1.40001
1.40001
1.40001
1.40001
1.40001
1.40001
1.40001
1.40001
1.40001
1.40001
1.40001
1.40001
1.40001
1.40001
1.40001
9.04465
9.35602
9.39864
8.48561
3.67081
1.36725
1.4005
1.4
1.40001
1.40001
1.40001
1.40001
1.40001
1.40001
1.40001
1.40001
1.40001
1.40001
1.40001
1.40001
9.22604
9.42885
9.45946
9.25823
6.54325
1.97145
1.39062
1.40019
1.4
1.40001
1.40001
1.40001
1.40001
1.40001
1.40001
1.40001
1.40001
1.40001
1.40001
1.40001
9.44434
9.50007
9.46171
9.25075
8.65583
4.7977
1.47905
1.39824
1.40001
1.40001
1.40001
1.40001
1.40001
1.40001
1.40001
1.40001
1.40001
1.40001
1.40001
1.40001
9.6064
9.52165
9.37422
9.31801
9.43997
8.01212
3.74084
1.43632
1.40001
1.40001
1.40001
1.40001
1.40001
1.40001
1.40001
1.40001
1.40001
1.40001
1.40001
1.40001
9.61698
9.55366
9.4791
9.60637
9.79419
9.40718
8.30598
3.13939
0.932556
1.40001
1.40001
1.40001
1.40001
1.40001
1.40001
1.40001
1.40001
1.40001
1.40001
1.40001
3.20764
5.03247
6.75755
7.93163
8.69836
8.92549
9.11639
8.63881
6.29209
4.44918
3.29573
2.18559
1.51532
1.3826
1.39026
1.39497
1.39887
1.39997
1.40003
1.40002
0.438315
1.22082
2.70522
4.39535
5.8971
6.77238
7.51453
8.1513
7.96998
7.35995
6.75926
6.00598
4.72872
3.24451
1.99304
1.44071
1.38519
1.39292
1.39625
1.39922
0.0399199
0.220923
0.753037
1.66988
2.84146
3.97877
4.95004
5.92081
6.6495
6.73862
6.60699
6.5673
6.50801
6.28607
5.59159
4.27086
2.92126
1.86513
1.42589
1.39007
0.00931583
0.0333257
0.224921
0.590673
1.282
1.98917
2.70747
3.49903
4.36552
4.92423
5.23343
5.54486
5.82604
6.06098
6.2075
6.10763
5.81162
5.07937
3.89446
2.64302
0.0135513
0.0183374
0.053408
0.243782
0.618797
1.04133
1.50996
2.05774
2.66952
3.19972
3.58325
3.95616
4.33527
4.75464
5.21029
5.52301
5.7046
5.75119
5.62076
5.43991
0.0222548
0.0191306
0.0222796
0.0823871
0.242956
0.612745
0.943271
1.31815
1.75155
2.16356
2.47008
2.75408
3.04872
3.36465
3.76722
4.16284
4.55265
4.87958
5.07244
5.24347
0.0298558
0.0218785
0.0239182
0.0504652
0.0935243
0.276045
0.478331
0.73689
1.05714
1.34669
1.60308
1.8241
2.05133
2.27472
2.57276
2.91374
3.25924
3.60634
3.88414
4.16438
0.0418339
0.0271461
0.0277044
0.0526342
0.0836262
0.144485
0.233927
0.340263
0.533789
0.759751
0.989206
1.20271
1.41922
1.60904
1.84274
2.09128
2.33451
2.55873
2.90599
2.88727
0.0604427
0.0372256
0.0404223
0.0608611
0.0887614
0.145601
0.239421
0.31142
0.428744
0.606471
0.756335
0.909077
1.06353
1.19956
1.33988
1.49514
1.65836
1.82805
2.1404
2.10042
0.0797798
0.0521791
0.0619567
0.0801044
0.106721
0.152129
0.235678
0.303297
0.389213
0.502366
0.591875
0.684298
0.776003
0.86878
0.946305
1.04613
1.18625
1.34256
1.62424
1.60371
0.0932158
0.062096
0.0684277
0.0842784
0.109666
0.143509
0.199252
0.256049
0.303403
0.354126
0.398466
0.451853
0.514699
0.591496
0.674854
0.783516
0.914314
1.04388
1.17006
1.34181
0.106249
0.0662255
0.0629502
0.0720855
0.0938983
0.110061
0.136328
0.17651
0.202629
0.225659
0.268673
0.322527
0.402863
0.475903
0.55258
0.636129
0.714148
0.79496
0.847519
1.01341
0.12163
0.072361
0.060732
0.064958
0.0716956
0.0850057
0.0998866
0.12707
0.162612
0.204263
0.258663
0.299579
0.360139
0.409701
0.457788
0.503256
0.541707
0.575858
0.610045
0.733988
0.132357
0.0870488
0.0672871
0.0671985
0.0697371
0.0855201
0.101436
0.129392
0.165655
0.200596
0.242187
0.270411
0.304283
0.333975
0.347946
0.357899
0.371581
0.390493
0.43114
0.545791
0.133065
0.0998744
0.083077
0.0774655
0.0772631
0.093655
0.105806
0.127111
0.157198
0.18239
0.205996
0.228382
0.227383
0.233925
0.231755
0.237996
0.259217
0.307945
0.360301
0.440041
0.11807
0.105546
0.0947664
0.0869007
0.0849962
0.094379
0.0988634
0.110728
0.131833
0.156269
0.149446
0.157055
0.152413
0.158361
0.175917
0.205646
0.240365
0.276204
0.308846
0.337957
0.110849
0.110039
0.101633
0.0909409
0.0810711
0.0806538
0.0770581
0.0802824
0.0898486
0.10435
0.106966
0.115487
0.128273
0.147819
0.170028
0.194334
0.21931
0.236411
0.24707
0.249071
0.101625
0.107113
0.111678
0.103489
0.0863075
0.073071
0.0689188
0.0693836
0.0739591
0.0798527
0.0910686
0.102143
0.116172
0.133552
0.149297
0.160711
0.167615
0.169625
0.169863
0.171751
0.0960179
0.114606
0.137774
0.16753
0.196566
0.189073
0.171311
0.178259
0.207169
0.228377
0.235704
0.214534
0.219926
0.246281
0.285547
0.317731
0.30695
0.273406
0.264615
0.263575
0.13955
0.26235
0.311549
0.372752
0.452376
0.510533
0.557053
0.596137
0.632111
0.652482
0.66404
0.644915
0.662031
0.671011
0.672478
0.686896
0.682853
0.6699
0.692463
0.719577
0.781799
0.886584
0.996561
1.1258
1.12576
1.15449
1.17298
1.22166
1.2496
1.26153
1.26703
1.27637
1.29887
1.33381
1.33827
1.32133
1.30938
1.31342
1.32879
1.33735
0.406525
0.597385
0.786532
0.958258
1.0465
1.13575
1.16835
1.21482
1.24664
1.27354
1.2927
1.30031
1.30473
1.32228
1.33245
1.33173
1.33232
1.33325
1.33737
1.33688
0.189323
0.232364
0.346017
0.477132
0.734305
0.960718
1.06399
1.16769
1.23432
1.27309
1.29203
1.29977
1.30248
1.30785
1.31606
1.33027
1.34408
1.34743
1.3452
1.33809
0.261086
0.298245
0.318781
0.338403
0.368796
0.480738
0.760087
1.00998
1.14001
1.22927
1.29512
1.29779
1.29751
1.29383
1.30236
1.32258
1.34262
1.34863
1.34483
1.33831
0.333249
0.35525
0.37935
0.414348
0.431311
0.41343
0.440634
0.558528
0.823078
1.07466
1.2346
1.2835
1.29431
1.2852
1.2874
1.31393
1.34048
1.34054
1.33558
1.33666
0.439785
0.444001
0.461774
0.479293
0.481648
0.466344
0.468527
0.463277
0.49595
0.664515
0.972015
1.21185
1.28739
1.29573
1.28247
1.30747
1.33564
1.33229
1.32782
1.33871
0.56697
0.56197
0.527394
0.527024
0.546071
0.537691
0.525792
0.524109
0.507741
0.512047
0.626003
0.913099
1.21533
1.30121
1.28654
1.30138
1.30882
1.30271
1.31681
1.34253
0.734522
0.704275
0.613756
0.589325
0.602642
0.603264
0.591106
0.583289
0.569313
0.536367
0.537157
0.612971
0.882613
1.21477
1.28823
1.31298
1.29542
1.29641
1.32552
1.34765
0.956701
0.867704
0.729624
0.642233
0.659557
0.678446
0.669335
0.652825
0.626107
0.59069
0.560084
0.563887
0.619998
0.879635
1.19314
1.30584
1.27853
1.29238
1.34211
1.3492
1.21483
1.08354
0.89901
0.75796
0.737579
0.749119
0.738937
0.707366
0.681873
0.635204
0.605259
0.589109
0.596977
0.646748
0.879676
1.1902
1.23797
1.30526
1.35609
1.34303
1.7148
1.39118
1.17814
0.919164
0.828437
0.813784
0.818923
0.812716
0.788869
0.741157
0.687312
0.656714
0.642393
0.650495
0.680862
0.805235
1.04367
1.23981
1.30657
1.32675
2.82163
2.03527
1.6919
1.37802
1.16939
1.03292
0.952911
0.925144
0.878115
0.817
0.770186
0.752587
0.732001
0.711166
0.680377
0.684464
0.735628
0.891137
1.09411
1.26271
3.49287
2.99917
2.38247
1.90571
1.53937
1.32259
1.11774
1.03631
0.993221
0.92458
0.913226
0.892186
0.850347
0.807496
0.768665
0.727568
0.732084
0.748087
0.805334
1.03898
3.30103
3.27269
3.10541
2.68806
2.15074
1.79773
1.50507
1.30786
1.24127
1.15181
1.06849
0.996925
0.919813
0.855172
0.836356
0.81789
0.795306
0.780983
0.770278
0.818957
2.34447
3.00436
3.09972
3.05878
2.85644
2.46573
2.09129
1.71983
1.50223
1.33894
1.19715
1.12268
1.05762
0.982168
0.963618
0.943326
0.908517
0.870264
0.810827
0.812762
1.54881
2.01282
2.58803
2.95317
2.94674
2.88293
2.69484
2.36023
2.00109
1.72873
1.47748
1.37014
1.30244
1.20468
1.11428
1.03502
0.961063
0.912017
0.881228
0.847533
1.40622
1.462
1.691
2.17331
2.60274
2.8121
2.80666
2.75186
2.55763
2.27599
1.96009
1.68712
1.50997
1.35872
1.24252
1.15842
1.06909
1.01073
1.01298
0.978369
1.40013
1.40155
1.41519
1.51032
1.77792
2.19347
2.5494
2.70477
2.69355
2.63305
2.47509
2.20617
1.93043
1.69554
1.51949
1.41594
1.32391
1.23079
1.15556
1.06049
1.40001
1.40002
1.40022
1.40345
1.42667
1.54054
1.80362
2.1755
2.46799
2.59711
2.5891
2.53668
2.39604
2.17729
1.92366
1.70438
1.54608
1.40536
1.29137
1.16216
1.40001
1.40001
1.40001
1.40004
1.40046
1.4055
1.43361
1.55123
1.79805
2.12964
2.37864
2.49825
2.49235
2.45453
2.34595
2.14958
1.92886
1.71933
1.57358
1.39864
1.40001
1.40001
1.40001
1.40001
1.40001
1.40007
1.40067
1.40655
1.43724
1.54643
1.76734
2.06485
2.2914
2.40952
2.40703
2.37987
2.29554
2.13471
1.95218
1.6733
1.40001
1.40001
1.40001
1.40001
1.40001
1.40001
1.40001
1.40009
1.40083
1.40651
1.43581
1.53097
1.72697
1.98574
2.21068
2.32848
2.32467
2.30748
2.25849
2.04527
1.40001
1.40001
1.40001
1.40001
1.40001
1.40001
1.40001
1.40001
1.40001
1.40009
1.40085
1.40577
1.4307
1.51333
1.67516
1.91462
2.10708
2.25513
2.2565
2.22267
1.40001
1.40001
1.40001
1.40001
1.40001
1.40001
1.40001
1.40001
1.40001
1.40001
1.40001
1.40008
1.40071
1.40501
1.4234
1.49179
1.62922
1.83696
2.01872
2.16909
1.40001
1.40001
1.40001
1.40001
1.40001
1.40001
1.40001
1.40001
1.40001
1.40001
1.40001
1.40001
1.40001
1.40007
1.40055
1.40371
1.41969
1.47116
1.58985
1.94362
2.26494
3.42913
3.59652
2.90614
1.83093
1.45156
1.40264
1.40007
1.40001
1.40001
1.40001
1.40001
1.40001
1.40001
1.40001
3.25711
3.91654
3.52121
2.15428
1.46743
1.40113
1.40001
1.4
1.40001
1.40001
1.40001
1.40001
1.40001
1.40001
1.40001
4.07284
3.99457
2.7666
1.61293
1.40731
1.40008
1.40001
1.40001
1.40001
1.40001
1.40001
1.40001
1.40001
1.40001
1.40001
4.51962
3.56057
1.90747
1.42664
1.40025
1.40001
1.40001
1.40001
1.40001
1.40001
1.40001
1.40001
1.40001
1.40001
1.40001
4.61159
2.35122
1.46653
1.40077
1.40001
1.40001
1.40001
1.40001
1.40001
1.40001
1.40001
1.40001
1.40001
1.40001
1.40001
2.88181
1.50175
1.40066
1.4
1.4
1.4
1.40001
1.40001
1.40001
1.40001
1.40001
1.40001
1.40001
1.40001
1.40001
1.54247
1.40078
1.4
1.4
1.40001
1.40001
1.40001
1.40001
1.40001
1.40001
1.40001
1.40001
1.40001
1.40001
1.40001
1.39741
1.39982
1.4
1.40001
1.40001
1.40001
1.40001
1.40001
1.40001
1.40001
1.40001
1.40001
1.40001
1.40001
1.40001
1.39996
1.40001
1.40001
1.40001
1.40001
1.40001
1.40001
1.40001
1.40001
1.40001
1.40001
1.40001
1.40001
1.40001
1.40001
1.40001
1.40001
1.40001
1.40001
1.40001
1.40001
1.40001
1.40001
1.40001
1.40001
1.40001
1.40001
1.40001
1.40001
1.40001
1.40001
1.40001
1.40001
1.40001
1.40001
1.40001
1.40001
1.40001
1.40001
1.40001
1.40001
1.40001
1.40001
1.40001
1.40001
1.40001
1.40001
1.40001
1.40001
1.40001
1.40001
1.40001
1.40001
1.40001
1.40001
1.40001
1.40001
1.40001
1.40001
1.40001
1.40001
1.40001
1.40001
1.40001
1.40001
1.40001
1.40001
1.40001
1.40001
1.40001
1.40001
1.40001
1.40001
1.40001
1.40001
1.40001
1.40001
1.40001
1.40001
1.40001
1.40001
1.40001
1.40001
1.40001
1.40001
1.40001
1.40001
1.40001
1.40001
1.40001
1.40001
1.40001
1.40001
1.40001
1.40001
1.40001
1.40001
1.40001
1.40001
1.40001
1.40001
1.40001
1.40001
1.40001
1.40001
1.40001
1.40001
1.40001
1.40001
1.40001
1.40001
1.40001
1.40001
1.40001
1.40001
1.40001
1.40001
1.40001
1.40001
1.40001
1.40001
1.40001
1.40001
1.40001
1.40001
1.40001
1.40001
1.40001
1.40001
1.40001
1.40001
1.40001
1.40001
1.40001
1.40001
1.40001
1.40001
1.40001
1.40001
1.40001
1.40001
1.40001
1.40001
1.40001
1.40001
1.40001
1.40001
1.40001
1.40001
1.40001
1.40001
1.40001
1.40001
1.40001
1.40001
1.40001
1.40001
1.40001
1.40001
1.40001
1.40001
1.40001
1.40001
1.40001
1.40001
1.40001
1.40001
1.40001
1.40001
1.40001
1.40001
1.40001
1.40001
1.40001
1.40001
1.40001
1.40001
1.40001
1.40001
1.40001
1.40001
1.40001
1.40001
1.40001
1.40001
1.40001
1.40001
1.40001
1.40001
1.40001
1.40001
1.40001
1.40001
1.40001
1.40001
1.40001
1.40001
1.40001
1.40001
1.40001
1.40001
1.40001
1.40001
1.40001
1.40001
1.40001
1.40001
1.40001
1.40001
1.40001
1.40001
1.40001
1.40001
1.40001
1.40001
1.40001
1.40001
1.40001
1.40001
1.40001
1.40001
1.40001
1.40001
1.40001
1.40001
1.40001
1.40001
1.40001
1.40001
1.40001
1.40001
1.40001
1.40001
1.40001
1.40001
1.40001
1.40001
1.40001
1.40001
1.40001
1.40001
1.40001
1.40001
1.40001
1.40001
1.40001
1.40001
1.40001
1.40001
1.40001
1.40001
1.40001
1.40001
1.40001
1.40001
1.40001
1.40001
1.40001
1.40001
1.40001
1.40001
1.40001
1.40001
1.40001
1.40001
1.40001
1.40001
1.40001
1.40001
1.40001
1.40001
1.40001
1.40001
1.40001
1.40001
1.40001
1.40001
1.40001
1.40001
1.40001
1.40001
1.40001
1.40001
1.40001
1.40001
1.40001
1.40001
1.40001
1.40001
1.40001
1.40001
1.40001
1.40001
1.40001
1.40001
1.40001
1.40001
1.40001
1.40001
1.40001
1.40001
1.40001
1.40001
1.40001
1.40001
1.40001
1.40001
1.40001
1.40001
1.40001
1.40001
1.40001
1.40001
1.40001
1.40001
1.40001
1.40001
1.40001
1.40001
1.40001
1.40001
1.40001
1.40001
1.40001
1.40001
1.40001
1.40001
1.40001
1.40001
1.40001
1.40001
1.40001
1.40001
1.40001
1.40001
1.40001
1.40001
1.40001
1.40001
1.40001
1.40001
1.40001
1.40001
1.40001
1.40001
1.40001
1.40001
1.40001
1.40001
1.40001
1.40001
1.40001
1.40001
1.40001
1.40001
1.40001
1.40001
1.40001
1.40001
1.40001
1.40001
1.40001
1.40001
1.40001
1.40001
1.40001
1.40001
1.40001
1.40001
1.40001
1.40001
1.40001
1.40001
1.40001
1.40001
1.40001
1.40001
1.40001
1.40001
1.40001
1.40001
1.40001
1.40001
1.40001
1.40001
1.40001
1.40001
1.40001
1.40001
1.40001
1.40001
1.40001
1.40001
1.40001
1.40001
1.40001
1.40001
1.40001
1.40001
1.40001
1.40001
1.40001
1.40001
1.40001
1.40001
1.40001
1.40001
1.40001
1.40001
1.40001
1.40001
1.40001
1.40001
1.40001
1.40001
1.40001
1.40001
1.40001
1.40001
1.40001
1.40001
1.40001
1.40001
1.40001
1.40001
1.40001
1.40001
1.40001
1.40001
1.40001
1.40001
1.40001
1.40001
1.40001
1.40001
1.40001
1.40001
1.40001
1.40001
1.40001
1.40001
1.40001
1.40001
1.40001
1.40001
1.40001
1.40001
1.40001
1.40001
1.40001
1.40001
1.40001
1.40001
1.40001
1.40001
1.40001
1.40001
1.40001
1.40001
1.40001
1.40001
1.40001
1.40001
1.40001
1.40001
1.40001
1.40001
1.40001
1.40001
1.40001
1.40001
1.40001
1.40001
1.40001
1.40001
1.40001
1.40001
1.40001
1.40001
1.40001
1.40001
1.40001
1.40001
1.40001
1.40001
1.40001
1.40001
1.40001
1.40001
1.40001
1.40001
1.40001
1.40001
1.40001
1.40001
1.40001
1.40001
1.40001
1.40001
1.40001
1.40001
1.40001
1.40001
1.40001
1.40001
1.40001
1.40001
1.40001
1.40001
1.40001
1.40001
1.40001
1.40001
1.40001
1.40001
1.40001
1.40001
1.40001
1.40001
1.40001
1.40001
1.40001
1.40001
1.40001
1.40001
1.40001
1.40001
1.40001
1.40001
1.40001
1.40001
1.40001
1.40001
1.40001
1.40001
1.40001
1.40001
1.40001
1.40001
1.40001
1.40001
1.40001
1.40001
1.40001
1.40001
1.40001
1.40001
1.40001
1.40001
1.40001
1.40001
1.40001
1.40001
1.40001
1.40001
1.40001
1.40001
1.40001
1.40001
1.40001
1.40001
1.40001
1.40001
1.40001
1.40001
1.40001
1.40001
1.40001
1.40001
1.40001
1.40001
1.40001
1.40001
1.40001
1.40001
1.40001
1.40001
1.40001
1.40001
1.40001
1.40001
1.40001
1.40001
1.40001
1.40001
1.40001
1.40001
1.40001
1.40001
1.40001
1.40001
1.40001
1.40001
1.40001
1.40001
1.40001
1.40001
1.40001
1.40001
1.40001
1.40001
1.40001
1.40001
1.40001
1.40001
1.40001
1.40001
1.40001
1.40001
1.40001
1.40001
1.40001
1.40001
1.40001
1.40001
1.40001
1.40001
1.40001
1.40001
1.40001
1.40001
1.40001
1.40001
1.40001
1.40001
1.40001
1.40001
1.40001
1.40001
1.40001
1.40001
1.40001
1.40001
1.40001
1.40001
1.40001
1.40001
1.40001
1.40001
1.40001
1.40001
1.40001
1.40001
1.40001
1.40001
1.40001
1.40001
1.40001
1.40001
1.40001
1.40001
1.40001
1.40001
1.40001
1.40001
1.40001
1.40001
1.40001
1.40001
1.40001
1.40001
1.40001
1.40001
1.40001
1.40001
1.40001
1.40001
1.40001
1.40001
1.40001
1.40001
1.40001
1.40001
1.40001
1.40001
1.40001
1.40001
1.40001
1.40001
1.40001
1.40001
1.40001
1.40001
1.40001
1.40001
1.40001
1.40001
1.40001
1.40001
1.40001
1.40001
1.40001
1.40001
1.40001
1.40001
1.40001
1.40001
1.40001
1.40001
1.40001
1.40001
1.40001
1.40001
1.40001
1.40001
1.40001
1.40001
1.40001
1.40001
1.40001
1.40001
1.40001
1.40001
1.40001
1.40001
1.40001
1.40001
1.40001
1.40001
1.40001
1.40001
1.40001
1.40001
1.40001
1.40001
1.40001
1.40001
1.40001
1.40001
1.40001
1.40001
1.40001
1.40001
1.40001
1.40001
1.40001
1.40001
1.40001
1.40001
1.40001
1.40001
1.40001
1.40001
1.40001
1.40001
1.40001
1.40001
1.40001
1.40001
1.40001
1.40001
1.40001
1.40001
1.40001
1.40001
1.40001
1.40001
1.40001
1.40001
1.40001
1.40001
1.40001
1.40001
1.40001
1.40001
1.40001
1.40001
1.40001
1.40001
1.40001
1.40001
1.40001
1.40001
1.40001
1.40001
1.40001
1.40001
1.40001
1.40001
1.40001
1.40001
1.40001
1.40001
1.40001
1.40001
1.40001
1.40001
1.40001
1.40001
1.40001
1.40001
1.40001
1.40001
1.40001
1.40001
1.40001
1.40001
1.40001
1.40001
1.40001
1.40001
1.40001
1.40001
1.40001
1.40001
1.40001
1.40001
1.40001
1.40001
1.40001
1.40001
1.40001
1.40001
1.40001
1.40001
1.40001
1.40001
1.40001
1.40001
1.40001
1.40001
1.40001
1.40001
1.40001
1.40001
1.40001
1.40001
1.40001
1.40001
1.40001
1.40001
1.40001
1.40001
1.40001
1.40001
1.40001
1.40001
1.40001
1.40001
1.40001
1.40001
1.40001
1.40001
1.40001
1.40001
1.39996
1.40001
1.40001
1.40001
1.40001
1.40001
1.40001
1.40001
1.40001
1.40001
1.40001
1.40001
1.40001
1.40001
1.40001
1.39741
1.39982
1.4
1.40001
1.40001
1.40001
1.40001
1.40001
1.40001
1.40001
1.40001
1.40001
1.40001
1.40001
1.40001
1.54255
1.40078
1.4
1.4
1.40001
1.40001
1.40001
1.40001
1.40001
1.40001
1.40001
1.40001
1.40001
1.40001
1.40001
2.88169
1.50161
1.40066
1.4
1.4
1.4
1.40001
1.40001
1.40001
1.40001
1.40001
1.40001
1.40001
1.40001
1.40001
4.6117
2.35076
1.46648
1.40077
1.40001
1.40001
1.40001
1.40001
1.40001
1.40001
1.40001
1.40001
1.40001
1.40001
1.40001
4.51957
3.56038
1.90755
1.42663
1.40025
1.40001
1.40001
1.40001
1.40001
1.40001
1.40001
1.40001
1.40001
1.40001
1.40001
4.07277
3.99431
2.76652
1.61315
1.40733
1.40008
1.40001
1.40001
1.40001
1.40001
1.40001
1.40001
1.40001
1.40001
1.40001
3.25825
3.91631
3.52141
2.15429
1.46741
1.40113
1.40001
1.4
1.40001
1.40001
1.40001
1.40001
1.40001
1.40001
1.40001
2.26311
3.42912
3.59664
2.90641
1.83095
1.45159
1.40264
1.40007
1.40001
1.40001
1.40001
1.40001
1.40001
1.40001
1.40001
1.72328
2.81802
3.49219
3.30009
2.34354
1.54817
1.40621
1.40013
1.40001
1.40001
1.40001
1.40001
1.40001
1.40001
1.40001
1.39471
2.04842
2.99636
3.27227
3.00596
2.01375
1.46208
1.40155
1.40002
1.40001
1.40001
1.40001
1.40001
1.40001
1.40001
1.16111
1.69304
2.39085
3.10846
3.09966
2.58806
1.69114
1.4152
1.40022
1.40001
1.40001
1.40001
1.40001
1.40001
1.40001
0.906878
1.36691
1.90577
2.68719
3.05767
2.95231
2.17353
1.51031
1.40346
1.40004
1.40001
1.40001
1.40001
1.40001
1.40001
0.831793
1.16505
1.53792
2.14842
2.85252
2.94544
2.6019
1.77779
1.42667
1.40046
1.40001
1.40001
1.40001
1.40001
1.40001
0.825239
1.03714
1.32919
1.80859
2.45945
2.88157
2.81184
2.19409
1.54059
1.40549
1.40007
1.40001
1.40001
1.40001
1.40001
0.826535
0.952324
1.10701
1.51646
2.0972
2.69638
2.80684
2.54925
1.80384
1.43364
1.40067
1.40001
1.40001
1.40001
1.40001
0.819727
0.930942
1.01879
1.29568
1.73046
2.36096
2.75245
2.70521
2.17561
1.55119
1.40655
1.40009
1.40001
1.40001
1.40001
0.797754
0.890579
0.986544
1.21949
1.49539
2.00577
2.56072
2.69405
2.46819
1.79785
1.43721
1.40083
1.40001
1.40001
1.40001
0.737589
0.82193
0.941337
1.15169
1.33118
1.71879
2.27506
2.63391
2.59725
2.12948
1.54635
1.40651
1.40009
1.40001
1.40001
0.676004
0.765215
0.917243
1.0739
1.20748
1.48669
1.95267
2.47298
2.58886
2.37846
1.76751
1.4359
1.40085
1.40001
1.40001
0.657557
0.748805
0.890531
0.995615
1.12694
1.37844
1.68979
2.20338
2.53558
2.49742
2.06531
1.53122
1.40577
1.40008
1.40001
0.646547
0.737465
0.856044
0.916647
1.04059
1.29479
1.51238
1.92889
2.39593
2.4918
2.29081
1.72671
1.43086
1.40071
1.40001
0.64605
0.719063
0.816205
0.860924
0.96981
1.19325
1.36223
1.69807
2.17571
2.45418
2.40969
1.98751
1.51276
1.40498
1.40007
0.672523
0.682978
0.769874
0.840857
0.966138
1.11169
1.24434
1.52058
1.92432
2.34533
2.40681
2.20732
1.67599
1.42347
1.40055
0.799869
0.684028
0.722845
0.820397
0.950319
1.03758
1.15224
1.41228
1.70803
2.14926
2.3797
2.32889
1.91416
1.49171
1.4037
1.04714
0.734284
0.729212
0.800731
0.91217
0.969289
1.07446
1.31693
1.54457
1.93102
2.29647
2.32629
2.1064
1.6286
1.41962
1.23686
0.894002
0.747326
0.784813
0.868474
0.918719
1.02354
1.23276
1.40193
1.72137
2.13584
2.30909
2.25538
1.83691
1.47109
1.31259
1.10173
0.807618
0.767032
0.801647
0.883794
1.01704
1.16212
1.29018
1.57324
1.95209
2.25877
2.25715
2.01883
1.5898
1.32876
1.27
1.04428
0.812422
0.802197
0.852159
0.975691
1.06333
1.16214
1.3979
1.67255
2.04487
2.22274
2.16896
1.94352
1.2126
1.08614
0.892551
0.758097
0.741212
0.74866
0.724642
0.701752
0.682888
0.625925
0.598928
0.584873
0.593732
0.643841
0.872876
1.17901
1.23033
1.30082
1.35778
1.3436
0.957036
0.86766
0.727577
0.650746
0.672248
0.68124
0.660327
0.647358
0.622188
0.58454
0.553603
0.559283
0.617408
0.868988
1.18054
1.31052
1.27903
1.29578
1.34686
1.34713
0.738251
0.704971
0.614924
0.587359
0.604571
0.601562
0.59038
0.582213
0.56611
0.533834
0.535965
0.609132
0.871463
1.20277
1.28209
1.32203
1.30722
1.30071
1.32886
1.34657
0.567728
0.560496
0.530947
0.536618
0.549303
0.534552
0.527297
0.52485
0.509741
0.513751
0.621241
0.917126
1.18042
1.31204
1.29797
1.31488
1.31787
1.30661
1.31782