/*--------------------------------*- C++ -*----------------------------------*\
  =========                 |
  \\      /  F ield         | OpenFOAM: The Open Source CFD Toolbox
   \\    /   O peration     | Website:  https://openfoam.org
    \\  /    A nd           | Version:  7
     \\/     M anipulation  |
\*---------------------------------------------------------------------------*/
FoamFile
{
    version     2.0;
    format      ascii;
    class       volScalarField;
    location    "7";
    object      T;
}
// * * * * * * * * * * * * * * * * * * * * * * * * * * * * * * * * * * * * * //

dimensions      [0 0 0 1 0 0 0];

internalField   nonuniform List<scalar> 
3700
(
100.488
100.685
100.789
100.835
100.874
101.004
101.146
101.161
101.142
101.086
101.068
101.11
101.128
101.113
101.084
101.084
101.096
101.096
101.09
101.065
100.132
100.216
100.362
100.387
100.326
100.473
100.697
100.7
100.581
100.361
100.367
100.506
100.558
100.516
100.447
100.458
100.498
100.565
100.573
100.503
100.107
100.134
100.117
100.068
99.9968
99.911
99.8671
99.8632
99.8771
99.8977
99.9324
99.9651
99.9985
100.024
100.04
100.046
100.049
100.041
100.026
100.021
100.132
100.135
100.086
100.038
99.9887
99.9635
99.9126
99.896
99.8986
99.9175
99.9238
99.9522
99.9891
100.025
100.05
100.067
100.086
100.096
100.095
100.079
100.165
100.135
100.081
100.052
100.047
100.064
100.034
100.031
100.042
100.051
100.017
100.013
100
100.015
100.041
100.068
100.091
100.121
100.138
100.155
100.243
100.14
100.074
100.043
100.043
100.077
100.075
100.096
100.124
100.128
100.13
100.126
100.107
100.097
100.081
100.077
100.086
100.123
100.158
100.203
100.276
100.138
100.009
99.9755
99.9784
100.027
100.061
100.108
100.146
100.168
100.186
100.183
100.189
100.189
100.187
100.179
100.169
100.166
100.177
100.239
100.252
100.044
99.9279
99.9269
99.9556
99.9956
100.035
100.09
100.129
100.167
100.196
100.206
100.229
100.241
100.253
100.262
100.263
100.266
100.271
100.306
100.125
99.9572
99.9146
99.9163
99.9715
100.002
100.05
100.109
100.125
100.157
100.182
100.204
100.241
100.265
100.289
100.312
100.328
100.339
100.347
100.386
100.011
99.9036
99.914
99.9533
100.016
100.082
100.139
100.189
100.21
100.239
100.248
100.265
100.279
100.297
100.319
100.348
100.379
100.402
100.422
100.453
99.9357
99.8279
99.8996
99.9617
100.015
100.119
100.199
100.234
100.279
100.328
100.344
100.36
100.376
100.387
100.397
100.411
100.434
100.458
100.502
100.497
99.8399
99.7006
99.7962
99.9126
99.9809
100.129
100.232
100.248
100.306
100.374
100.405
100.426
100.445
100.457
100.475
100.495
100.519
100.538
100.572
100.566
99.7196
99.5744
99.7016
99.8747
99.9835
100.19
100.262
100.3
100.369
100.419
100.458
100.483
100.503
100.518
100.544
100.573
100.602
100.626
100.655
100.651
99.6013
99.5037
99.6961
99.8761
100.114
100.369
100.416
100.477
100.525
100.554
100.569
100.578
100.586
100.597
100.621
100.653
100.686
100.714
100.727
100.735
99.4834
99.4719
99.711
100.008
100.329
100.497
100.539
100.581
100.619
100.644
100.656
100.668
100.682
100.701
100.726
100.75
100.771
100.784
100.78
100.774
99.3929
99.5017
99.9701
100.294
100.503
100.57
100.616
100.659
100.693
100.713
100.728
100.747
100.769
100.794
100.813
100.824
100.823
100.816
100.791
100.745
99.3118
99.7548
100.217
100.487
100.636
100.686
100.721
100.757
100.787
100.804
100.817
100.833
100.85
100.855
100.854
100.843
100.791
100.679
100.518
100.28
99.527
100.126
100.489
100.669
100.756
100.807
100.838
100.863
100.875
100.882
100.882
100.883
100.882
100.858
100.771
100.621
100.359
100.102
100.006
99.9978
100.117
100.529
100.733
100.836
100.89
100.907
100.919
100.92
100.916
100.908
100.895
100.842
100.728
100.47
100.147
100.01
99.9966
99.9985
99.9992
99.9998
100.696
100.836
100.912
100.95
100.964
100.956
100.953
100.927
100.844
100.764
100.579
100.236
100.031
99.9958
99.9978
99.9989
99.9998
100
100
100
100.997
100.995
100.991
100.991
100.985
100.951
100.876
100.434
99.8578
100
100
100
100
100
100
100
100
100
100
100
100.994
100.992
100.985
100.975
100.963
100.871
100.507
100.017
100
100
100
100
100
100
100
100
100
100
100
100
100.989
100.99
100.985
100.965
100.916
100.648
100.048
99.9991
100
100
100
100
100
100
100
100
100
100
100
100
100.984
100.989
100.984
100.954
100.783
100.232
99.9963
100
100
100
100
100
100
100
100
100
100
100
100
100
100.98
100.988
100.982
100.919
100.548
99.9924
100
100
100
100
100
100
100
100
100
100
100
100
100
100
100.978
100.987
100.98
100.835
100.282
100
100
100
100
100
100
100
100
100
100
100
100
100
100
100
100.978
100.99
100.978
100.706
99.998
100
100
100
100
100
100
100
100
100
100
100
100
100
100
100
100.983
100.98
100.922
100.457
99.9984
100
100
100
100
100
100
100
100
100
100
100
100
100
100
100
101
100.963
100.817
100.161
100
100
100
100
100
100
100
100
100
100
100
100
100
100
100
100
101.014
100.942
100.676
99.9964
100
100
100
100
100
100
100
100
100
100
100
100
100
100
100
100
101.023
100.902
100.5
100
100
100
100
100
100
100
100
100
100
100
100
100
100
100
100
100
101.029
100.849
100.315
100
100
100
100
100
100
100
100
100
100
100
100
100
100
100
100
100
101.034
100.797
100.111
100
100
100
100
100
100
100
100
100
100
100
100
100
100
100
100
100
101.033
100.741
100.009
100
100
100
100
100
100
100
100
100
100
100
100
100
100
100
100
100
101.01
100.682
100
100
100
100
100
100
100
100
100
100
100
100
100
100
100
100
100
100
100.986
100.563
100
100
100
100
100
100
100
100
100
100
100
100
100
100
100
100
100
100
100.945
100.418
100
100
100
100
100
100
100
100
100
100
100
100
100
100
100
100
100
100
100.91
100.234
100
100
100
100
100
100
100
100
100
100
100
100
100
100
100
100
100
100
100.868
100.005
100
100
100
100
100
100
100
100
100
100
100
100
100
100
100
100
100
100
100.81
100
100
100
100
100
100
100
100
100
100
100
100
100
100
100
100
100
100
100
100.809
100
100
100
100
100
100
100
100
100
100
100
100
100
100
100
100
100
100
100
100.867
100.005
100
100
100
100
100
100
100
100
100
100
100
100
100
100
100
100
100
100
100.913
100.238
100
100
100
100
100
100
100
100
100
100
100
100
100
100
100
100
100
100
100.946
100.421
100
100
100
100
100
100
100
100
100
100
100
100
100
100
100
100
100
100
100.985
100.56
100
100
100
100
100
100
100
100
100
100
100
100
100
100
100
100
100
100
101.008
100.678
100
100
100
100
100
100
100
100
100
100
100
100
100
100
100
100
100
100
101.032
100.743
100.012
100
100
100
100
100
100
100
100
100
100
100
100
100
100
100
100
100
101.034
100.799
100.114
100
100
100
100
100
100
100
100
100
100
100
100
100
100
100
100
100
101.03
100.85
100.316
100
100
100
100
100
100
100
100
100
100
100
100
100
100
100
100
100
101.024
100.901
100.5
100
100
100
100
100
100
100
100
100
100
100
100
100
100
100
100
100
101.014
100.942
100.674
99.9964
100
100
100
100
100
100
100
100
100
100
100
100
100
100
100
100
101
100.963
100.817
100.161
100
100
100
100
100
100
100
100
100
100
100
100
100
100
100
100
100.981
100.977
100.919
100.458
99.9993
100
100
100
100
100
100
100
100
100
100
100
100
100
100
100
100.978
100.99
100.979
100.702
99.9938
100
100
100
100
100
100
100
100
100
100
100
100
100
100
100
100.979
100.989
100.981
100.836
100.288
100
100
100
100
100
100
100
100
100
100
100
100
100
100
100
100.981
100.988
100.983
100.92
100.552
99.9924
100
100
100
100
100
100
100
100
100
100
100
100
100
100
100.985
100.989
100.984
100.954
100.781
100.226
99.9964
100
100
100
100
100
100
100
100
100
100
100
100
100
100.989
100.99
100.985
100.965
100.913
100.641
100.045
99.9991
100
100
100
100
100
100
100
100
100
100
100
100
100.994
100.991
100.984
100.974
100.96
100.87
100.512
100.019
100
100
100
100
100
100
100
100
100
100
100
100
100.997
100.994
100.99
100.99
100.985
100.953
100.879
100.439
99.8554
100
100
100
100
100
100
100
100
100
100
100
100.695
100.835
100.912
100.95
100.964
100.957
100.954
100.927
100.843
100.763
100.578
100.235
100.031
99.9958
99.9978
99.9989
99.9998
100
100
100
100.118
100.529
100.73
100.834
100.891
100.909
100.921
100.921
100.916
100.907
100.895
100.842
100.728
100.471
100.147
100.01
99.9967
99.9985
99.9992
99.9998
99.512
100.13
100.491
100.67
100.757
100.808
100.84
100.863
100.875
100.882
100.882
100.883
100.882
100.858
100.771
100.621
100.358
100.101
100.006
99.9978
99.3012
99.7203
100.201
100.475
100.633
100.686
100.722
100.758
100.787
100.803
100.816
100.833
100.85
100.855
100.854
100.843
100.791
100.679
100.519
100.28
99.4211
99.5835
99.9825
100.299
100.503
100.57
100.615
100.659
100.693
100.713
100.728
100.747
100.77
100.794
100.813
100.824
100.822
100.816
100.791
100.746
99.5798
99.5468
99.7309
100.032
100.331
100.496
100.538
100.581
100.619
100.643
100.655
100.668
100.683
100.702
100.726
100.75
100.771
100.784
100.78
100.774
99.6755
99.5735
99.6751
99.8726
100.127
100.374
100.421
100.477
100.523
100.551
100.567
100.577
100.586
100.598
100.621
100.652
100.685
100.714
100.727
100.735
99.7666
99.6232
99.6808
99.8715
100.002
100.201
100.272
100.302
100.368
100.419
100.458
100.484
100.504
100.519
100.544
100.572
100.602
100.626
100.655
100.652
99.8646
99.719
99.7776
99.9082
99.9937
100.129
100.232
100.251
100.308
100.376
100.406
100.428
100.446
100.457
100.475
100.494
100.518
100.538
100.573
100.567
99.9512
99.8367
99.8986
99.9614
100.015
100.116
100.196
100.232
100.278
100.327
100.344
100.361
100.376
100.386
100.396
100.409
100.432
100.458
100.502
100.497
100.027
99.9147
99.913
99.9565
100.011
100.074
100.132
100.181
100.203
100.234
100.245
100.264
100.277
100.294
100.315
100.345
100.379
100.402
100.422
100.453
100.133
99.967
99.9096
99.9111
99.9621
99.9894
100.037
100.096
100.117
100.151
100.179
100.202
100.239
100.263
100.287
100.312
100.329
100.34
100.347
100.387
100.26
100.038
99.9167
99.9186
99.9455
99.9826
100.023
100.079
100.12
100.162
100.194
100.204
100.228
100.24
100.252
100.262
100.264
100.267
100.271
100.306
100.293
100.137
99.9798
99.9569
99.9677
100.014
100.054
100.104
100.142
100.166
100.185
100.183
100.189
100.19
100.187
100.18
100.17
100.167
100.178
100.237
100.272
100.156
100.071
100.039
100.039
100.072
100.077
100.098
100.124
100.13
100.132
100.128
100.108
100.098
100.083
100.079
100.088
100.124
100.157
100.201
100.194
100.146
100.09
100.058
100.052
100.065
100.043
100.04
100.048
100.055
100.021
100.016
99.9997
100.014
100.042
100.07
100.093
100.121
100.137
100.153
100.148
100.138
100.092
100.043
99.9989
99.9781
99.9292
99.907
99.9061
99.9188
99.9222
99.9499
99.9877
100.025
100.052
100.069
100.087
100.095
100.094
100.077
100.117
100.128
100.114
100.068
99.9943
99.9051
99.8688
99.8644
99.8771
99.8973
99.9307
99.9623
99.9963
100.023
100.041
100.047
100.048
100.039
100.024
100.019
100.123
100.192
100.253
100.346
100.489
100.509
100.473
100.523
100.69
100.721
100.677
100.507
100.441
100.477
100.567
100.616
100.591
100.488
100.396
100.392
100.493
100.724
100.732
100.792
100.929
101.033
101.072
101.108
101.159
101.154
101.14
101.095
101.073
101.093
101.128
101.13
101.116
101.076
101.034
101.025
101.042
101.032
101.02
100.998
100.96
100.934
100.909
100.9
100.893
100.879
100.864
100.854
100.848
100.846
100.843
100.831
100.819
100.814
100.81
100.803
100.581
100.659
100.73
100.738
100.759
100.785
100.799
100.805
100.806
100.806
100.805
100.802
100.8
100.8
100.8
100.796
100.792
100.789
100.785
100.778
100.026
100.085
100.2
100.282
100.419
100.512
100.579
100.617
100.639
100.661
100.678
100.684
100.69
100.696
100.702
100.709
100.714
100.716
100.716
100.714
100.077
100.082
100.092
100.097
100.121
100.213
100.368
100.443
100.483
100.525
100.561
100.568
100.574
100.58
100.591
100.603
100.613
100.618
100.621
100.627
100.131
100.131
100.129
100.139
100.144
100.135
100.163
100.239
100.35
100.429
100.478
100.497
100.504
100.505
100.511
100.524
100.534
100.536
100.539
100.547
100.194
100.175
100.173
100.176
100.178
100.172
100.172
100.166
100.186
100.271
100.381
100.448
100.469
100.473
100.472
100.479
100.486
100.486
100.487
100.495
100.246
100.232
100.202
100.201
100.212
100.21
100.207
100.202
100.182
100.18
100.236
100.347
100.434
100.456
100.453
100.454
100.453
100.452
100.456
100.465
100.304
100.286
100.246
100.235
100.24
100.24
100.236
100.229
100.214
100.182
100.177
100.212
100.321
100.421
100.436
100.439
100.433
100.433
100.44
100.447
100.37
100.343
100.299
100.263
100.265
100.268
100.263
100.253
100.236
100.209
100.177
100.176
100.199
100.304
100.396
100.42
100.414
100.417
100.429
100.432
100.435
100.408
100.359
100.311
100.292
100.289
100.281
100.266
100.252
100.225
100.197
100.178
100.18
100.194
100.286
100.375
100.388
100.406
100.417
100.414
100.525
100.464
100.419
100.354
100.315
100.299
100.295
100.289
100.276
100.254
100.224
100.202
100.185
100.183
100.185
100.231
100.311
100.363
100.373
100.378
100.618
100.537
100.488
100.437
100.392
100.349
100.316
100.301
100.283
100.26
100.239
100.223
100.204
100.183
100.165
100.154
100.169
100.221
100.275
100.317
100.609
100.585
100.536
100.481
100.43
100.389
100.337
100.308
100.292
100.273
100.261
100.244
100.22
100.196
100.173
100.149
100.141
100.132
100.145
100.22
100.489
100.546
100.54
100.516
100.469
100.425
100.378
100.337
100.318
100.294
100.267
100.24
100.212
100.187
100.17
100.152
100.132
100.116
100.103
100.109
100.25
100.378
100.447
100.483
100.474
100.446
100.41
100.361
100.325
100.291
100.257
100.235
100.216
100.192
100.176
100.16
100.139
100.117
100.094
100.075
100.042
100.146
100.255
100.338
100.389
100.413
100.405
100.381
100.343
100.306
100.265
100.242
100.225
100.2
100.172
100.146
100.119
100.097
100.082
100.06
100.002
100.015
100.067
100.157
100.234
100.289
100.329
100.349
100.339
100.317
100.283
100.245
100.215
100.185
100.159
100.137
100.112
100.093
100.087
100.068
100
100
100.003
100.025
100.079
100.148
100.208
100.25
100.279
100.291
100.282
100.26
100.228
100.196
100.167
100.147
100.128
100.106
100.085
100.055
100
100
100
100.001
100.006
100.031
100.08
100.139
100.187
100.217
100.242
100.243
100.235
100.216
100.187
100.156
100.13
100.104
100.08
100.048
100
100
100
100
100
100.001
100.007
100.032
100.078
100.129
100.169
100.192
100.21
100.209
100.202
100.183
100.155
100.125
100.101
100.069
100
100
100
100
100
100
100
100.001
100.008
100.031
100.073
100.118
100.154
100.173
100.186
100.184
100.177
100.16
100.137
100.098
100
100
100
100
100
100
100
100
100
100.001
100.008
100.028
100.065
100.107
100.142
100.159
100.168
100.166
100.162
100.138
100
100
100
100
100
100
100
100
100
100
100
100.001
100.007
100.025
100.056
100.096
100.127
100.147
100.155
100.151
100
100
100
100
100
100
100
100
100
100
100
100
100
100.001
100.005
100.02
100.048
100.084
100.113
100.138
100
100
100
100
100
100
100
100
100
100
100
100
100
100
100
100.001
100.004
100.016
100.04
100.106
100.598
100.654
100.61
100.415
100.142
100.017
100.001
100
100
100
100
100
100
100
100
100.67
100.663
100.518
100.218
100.022
100
100
100
100
100
100
100
100
100
100
100.703
100.636
100.374
100.074
100.002
100
100
100
100
100
100
100
100
100
100
100.719
100.519
100.168
100.009
100
100
100
100
100
100
100
100
100
100
100
100.65
100.284
100.025
100
100
100
100
100
100
100
100
100
100
100
100
100.393
100.038
100
100
100
100
100
100
100
100
100
100
100
100
100
100.043
100
100
100
100
100
100
100
100
100
100
100
100
100
100
99.9995
100
100
100
100
100
100
100
100
100
100
100
100
100
100
100
100
100
100
100
100
100
100
100
100
100
100
100
100
100
100
100
100
100
100
100
100
100
100
100
100
100
100
100
100
100
100
100
100
100
100
100
100
100
100
100
100
100
100
100
100
100
100
100
100
100
100
100
100
100
100
100
100
100
100
100
100
100
100
100
100
100
100
100
100
100
100
100
100
100
100
100
100
100
100
100
100
100
100
100
100
100
100
100
100
100
100
100
100
100
100
100
100
100
100
100
100
100
100
100
100
100
100
100
100
100
100
100
100
100
100
100
100
100
100
100
100
100
100
100
100
100
100
100
100
100
100
100
100
100
100
100
100
100
100
100
100
100
100
100
100
100
100
100
100
100
100
100
100
100
100
100
100
100
100
100
100
100
100
100
100
100
100
100
100
100
100
100
100
100
100
100
100
100
100
100
100
100
100
100
100
100
100
100
100
100
100
100
100
100
100
100
100
100
100
100
100
100
100
100
100
100
100
100
100
100
100
100
100
100
100
100
100
100
100
100
100
100
100
100
100
100
100
100
100
100
100
100
100
100
100
100
100
100
100
100
100
100
100
100
100
100
100
100
100
100
100
100
100
100
100
100
100
100
100
100
100
100
100
100
100
100
100
100
100
100
100
100
100
100
100
100
100
100
100
100
100
100
100
100
100
100
100
100
100
100
100
100
100
100
100
100
100
100
100
100
100
100
100
100
100
100
100
100
100
100
100
100
100
100
100
100
100
100
100
100
100
100
100
100
100
100
100
100
100
100
100
100
100
100
100
100
100
100
100
100
100
100
100
100
100
100
100
100
100
100
100
100
100
100
100
100
100
100
100
100
100
100
100
100
100
100
100
100
100
100
100
100
100
100
100
100
100
100
100
100
100
100
100
100
100
100
100
100
100
100
100
100
100
100
100
100
100
100
100
100
100
100
100
100
100
100
100
100
100
100
100
100
100
100
100
100
100
100
100
100
100
100
100
100
100
100
100
100
100
100
100
100
100
100
100
100
100
100
100
100
100
100
100
100
100
100
100
100
100
100
100
100
100
100
100
100
100
100
100
100
100
100
100
100
100
100
100
100
100
100
100
100
100
100
100
100
100
100
100
100
100
100
100
100
100
100
100
100
100
100
100
100
100
100
100
100
100
100
100
100
100
100
100
100
100
100
100
100
100
100
100
100
100
100
100
100
100
100
100
100
100
100
100
100
100
100
100
100
100
100
100
100
100
100
100
100
100
100
100
100
100
100
100
100
100
100
100
100
100
100
100
100
100
100
100
100
100
100
100
100
100
100
100
100
100
100
100
100
100
100
100
100
100
100
100
100
100
100
100
100
100
100
100
100
100
100
100
100
100
100
100
100
100
100
100
100
100
100
100
100
100
100
100
100
100
100
100
100
100
100
100
100
100
100
100
100
100
100
100
100
100
100
100
100
100
100
100
100
100
100
100
100
100
100
100
100
100
100
100
100
100
100
100
100
100
100
100
100
100
100
100
100
100
100
100
100
100
100
100
100
100
100
100
100
100
100
100
100
100
100
100
100
100
100
100
100
100
100
100
100
100
100
100
100
100
100
100
100
100
100
100
100
100
100
100
100
100
100
100
100
100
100
100
100
100
100
100
100
100
100
100
100
100
100
100
100
100
100
100
100
100
100
100
100
100
100
100
100
100
100
100
100
100
100
100
100
100
100
100
100
100
100
100
100
100
100
100
100
100
100
100
100
100
100
100
100
100
100
100
100
100
100
100
100
100
100
100
100
100
100
100
100
100
100
100
100
100
100
100
100
100
100
100
100
100
100
100
100
100
100
100
100
100
100
100
100
100
100
100
100
100
100
100
100
100
100
100
100
100
100
100
100
100
100
100
100
100
100
100
100
100
100
100
100
100
100
100
100
100
100
100
100
100
100
100
100
100
100
100
100
100
100
100
100
100
100
100
100
100
100
100
100
100
100
100
100
100
100
100
99.9995
100
100
100
100
100
100
100
100
100
100
100
100
100
100
100.043
100
100
100
100
100
100
100
100
100
100
100
100
100
100
100.393
100.038
100
100
100
100
100
100
100
100
100
100
100
100
100
100.65
100.284
100.025
100
100
100
100
100
100
100
100
100
100
100
100
100.719
100.519
100.168
100.009
100
100
100
100
100
100
100
100
100
100
100
100.703
100.636
100.374
100.074
100.002
100
100
100
100
100
100
100
100
100
100
100.67
100.663
100.518
100.218
100.022
100
100
100
100
100
100
100
100
100
100
100.598
100.654
100.61
100.415
100.142
100.017
100.001
100
100
100
100
100
100
100
100
100.527
100.617
100.609
100.489
100.25
100.042
100.002
100
100
100
100
100
100
100
100
100.466
100.539
100.585
100.546
100.378
100.146
100.015
100
100
100
100
100
100
100
100
100.416
100.489
100.537
100.54
100.447
100.255
100.067
100.003
100
100
100
100
100
100
100
100.35
100.435
100.482
100.516
100.483
100.338
100.157
100.025
100.001
100
100
100
100
100
100
100.315
100.391
100.43
100.468
100.473
100.388
100.234
100.079
100.006
100
100
100
100
100
100
100.303
100.349
100.39
100.426
100.445
100.413
100.289
100.149
100.031
100.001
100
100
100
100
100
100.298
100.316
100.335
100.38
100.411
100.405
100.329
100.208
100.08
100.007
100
100
100
100
100
100.291
100.303
100.303
100.336
100.364
100.381
100.349
100.25
100.139
100.032
100.001
100
100
100
100
100.28
100.286
100.289
100.313
100.325
100.344
100.339
100.279
100.187
100.078
100.008
100
100
100
100
100.253
100.261
100.275
100.293
100.29
100.305
100.317
100.291
100.217
100.129
100.031
100.001
100
100
100
100.221
100.239
100.262
100.268
100.259
100.266
100.281
100.282
100.242
100.169
100.073
100.008
100
100
100
100.202
100.223
100.244
100.24
100.237
100.244
100.245
100.259
100.243
100.191
100.118
100.028
100.001
100
100
100.188
100.206
100.222
100.211
100.212
100.224
100.215
100.227
100.235
100.21
100.154
100.065
100.007
100
100
100.177
100.186
100.198
100.187
100.188
100.198
100.186
100.196
100.216
100.209
100.173
100.107
100.025
100.001
100
100.182
100.167
100.173
100.17
100.176
100.171
100.16
100.167
100.187
100.202
100.186
100.141
100.056
100.005
100
100.23
100.153
100.147
100.153
100.161
100.146
100.136
100.147
100.157
100.183
100.184
100.159
100.096
100.02
100.001
100.311
100.169
100.141
100.135
100.141
100.121
100.113
100.127
100.13
100.156
100.177
100.168
100.127
100.048
100.004
100.361
100.223
100.134
100.119
100.117
100.1
100.096
100.106
100.103
100.126
100.16
100.167
100.147
100.084
100.016
100.374
100.277
100.147
100.101
100.092
100.084
100.088
100.086
100.079
100.101
100.137
100.162
100.155
100.113
100.04
100.379
100.319
100.221
100.107
100.073
100.062
100.067
100.056
100.048
100.069
100.098
100.138
100.151
100.138
100.106
100.434
100.408
100.357
100.31
100.293
100.289
100.275
100.265
100.254
100.222
100.195
100.175
100.177
100.19
100.283
100.373
100.386
100.406
100.418
100.414
100.369
100.343
100.298
100.266
100.27
100.27
100.259
100.252
100.235
100.206
100.174
100.174
100.198
100.298
100.391
100.421
100.415
100.419
100.431
100.431
100.304
100.287
100.246
100.233
100.241
100.24
100.236
100.229
100.213
100.18
100.175
100.21
100.318
100.417
100.433
100.441
100.437
100.436
100.442
100.447
100.246
100.23
100.205
100.207
100.214
100.21
100.208
100.203
100.184
100.18
100.233
100.35
100.427
100.458
100.453
100.456
100.457
100.455
100.458
100.465
100.192
100.175
100.174
100.178
100.179
100.172
100.174
100.168
100.19
100.274
100.38
100.455
100.47
100.475
100.474
100.479
100.485
100.486
100.488
100.496
100.128
100.133
100.129
100.138
100.135
100.129
100.159
100.24
100.355
100.432
100.477
100.498
100.505
100.506
100.511
100.521
100.531
100.536
100.54
100.551
100.074
100.092
100.095
100.096
100.131
100.225
100.367
100.443
100.487
100.529
100.562
100.567
100.572
100.578
100.587
100.6
100.611
100.617
100.623
100.631
100.027
100.051
100.141
100.264
100.445
100.53
100.579
100.614
100.643
100.666
100.68
100.683
100.688
100.693
100.699
100.706
100.712
100.716
100.717
100.719
100.54
100.621
100.663
100.715
100.777
100.806
100.801
100.802
100.809
100.811
100.808
100.803
100.8
100.799
100.799
100.796
100.793
100.79
100.786
100.78
101.025
101.016
100.997
100.986
100.963
100.939
100.912
100.902
100.898
100.888
100.872
100.86
100.85
100.847
100.844
100.834
100.822
100.815
100.811
100.804
)
;

boundaryField
{
    inlet
    {
        type            fixedValue;
        value           uniform 100;
    }
    outlet
    {
        type            inletOutlet;
        inletValue      uniform 100;
        value           nonuniform List<scalar> 
50
(
100.378
100.317
100.22
100.109
100.075
100.06
100.068
100.055
100.048
100.069
100.098
100.138
100.151
100.138
100.106
100.803
100.778
100.714
100.627
100.547
100.495
100.465
100.447
100.432
100.414
100.414
100.431
100.447
100.465
100.496
100.551
100.631
100.719
100.78
100.804
100.379
100.319
100.221
100.107
100.073
100.062
100.067
100.056
100.048
100.069
100.098
100.138
100.151
100.138
100.106
)
;
    }
    airfoil
    {
        type            zeroGradient;
    }
    top
    {
        type            symmetryPlane;
    }
    bottom
    {
        type            symmetryPlane;
    }
    defaultFaces
    {
        type            empty;
    }
}


// ************************************************************************* //
