/*--------------------------------*- C++ -*----------------------------------*\
  =========                 |
  \\      /  F ield         | OpenFOAM: The Open Source CFD Toolbox
   \\    /   O peration     | Website:  https://openfoam.org
    \\  /    A nd           | Version:  7
     \\/     M anipulation  |
\*---------------------------------------------------------------------------*/
FoamFile
{
    version     2.0;
    format      ascii;
    class       volVectorField;
    location    "7";
    object      U;
}
// * * * * * * * * * * * * * * * * * * * * * * * * * * * * * * * * * * * * * //

dimensions      [0 1 -1 0 0 0 0];

internalField   nonuniform List<vector> 
3700
(
(1.47387 -0.4027 0)
(1.31928 -0.576316 0)
(1.30027 -0.265317 0)
(1.40338 -0.283508 0)
(1.55781 -0.410896 0)
(1.54575 -0.298471 0)
(1.53238 -0.125516 0)
(1.58696 -0.0915538 0)
(1.61877 -0.177298 0)
(1.6093 -0.296486 0)
(1.55528 -0.338147 0)
(1.51426 -0.246711 0)
(1.57328 -0.154292 0)
(1.64225 -0.192817 0)
(1.70733 -0.273945 0)
(1.74843 -0.279717 0)
(1.72209 -0.24326 0)
(1.71639 -0.150302 0)
(1.77355 -0.0995252 0)
(1.8406 -0.188862 0)
(1.75164 -1.35764 0)
(1.60579 -1.41216 0)
(1.62517 -1.14991 0)
(1.79295 -1.15369 0)
(1.88778 -1.47103 0)
(1.81489 -1.42597 0)
(1.73118 -1.1685 0)
(1.80313 -1.07719 0)
(1.94306 -1.37678 0)
(1.95958 -1.64983 0)
(1.8752 -1.71575 0)
(1.81124 -1.45 0)
(1.8785 -1.25762 0)
(2.0163 -1.30464 0)
(2.12943 -1.32555 0)
(2.19362 -1.28108 0)
(2.20309 -1.1617 0)
(2.22646 -1.02024 0)
(2.25345 -0.914305 0)
(2.33927 -1.01466 0)
(1.5524 -1.36926 0)
(1.64729 -1.53044 0)
(1.71975 -1.6827 0)
(1.76182 -1.86861 0)
(1.806 -2.06683 0)
(1.86001 -2.21206 0)
(1.95855 -2.27523 0)
(2.00103 -2.20831 0)
(1.99729 -2.22452 0)
(2.10896 -2.12776 0)
(2.13299 -2.15041 0)
(2.19563 -2.04126 0)
(2.24544 -1.95546 0)
(2.27141 -1.92137 0)
(2.33142 -1.8319 0)
(2.42662 -1.78729 0)
(2.51583 -1.70397 0)
(2.61656 -1.63635 0)
(2.6939 -1.54775 0)
(2.75319 -1.51393 0)
(1.41893 -1.39761 0)
(1.57288 -1.65574 0)
(1.6987 -1.93671 0)
(1.71001 -2.16265 0)
(1.73034 -2.2576 0)
(1.75906 -2.26924 0)
(1.83737 -2.17695 0)
(1.99348 -1.95682 0)
(2.05487 -1.93047 0)
(2.27659 -1.91098 0)
(2.42641 -1.82265 0)
(2.47845 -1.82123 0)
(2.50555 -1.77286 0)
(2.44291 -1.80449 0)
(2.43922 -1.73542 0)
(2.47057 -1.69689 0)
(2.5155 -1.57216 0)
(2.58345 -1.46143 0)
(2.66896 -1.368 0)
(2.79065 -1.18947 0)
(1.35582 -1.39192 0)
(1.55192 -1.74868 0)
(1.73593 -2.05656 0)
(1.75359 -2.26896 0)
(1.78379 -2.31652 0)
(1.92002 -2.30685 0)
(1.95072 -2.1224 0)
(1.98606 -1.9756 0)
(2.00025 -1.94313 0)
(2.19576 -1.86637 0)
(2.38044 -1.68286 0)
(2.53578 -1.62619 0)
(2.63812 -1.46078 0)
(2.6554 -1.44233 0)
(2.65284 -1.39735 0)
(2.62294 -1.45548 0)
(2.60477 -1.42316 0)
(2.60928 -1.30325 0)
(2.63362 -1.33287 0)
(2.70401 -1.13476 0)
(1.38449 -1.50519 0)
(1.60877 -1.85524 0)
(1.84722 -2.19247 0)
(1.93461 -2.31332 0)
(2.14229 -2.30602 0)
(2.1602 -2.28644 0)
(2.1562 -2.06722 0)
(2.05921 -1.95932 0)
(2.03985 -1.93026 0)
(2.18092 -1.84135 0)
(2.31365 -1.66983 0)
(2.49487 -1.57138 0)
(2.56688 -1.433 0)
(2.71372 -1.33441 0)
(2.75759 -1.12519 0)
(2.78161 -1.01952 0)
(2.74428 -1.01864 0)
(2.74967 -0.942127 0)
(2.68894 -1.06987 0)
(2.68313 -0.976608 0)
(1.51288 -1.61035 0)
(1.78993 -1.97791 0)
(2.0191 -2.31549 0)
(2.09515 -2.37385 0)
(2.29855 -2.2096 0)
(2.35111 -2.19776 0)
(2.42283 -1.86125 0)
(2.30088 -1.87277 0)
(2.27822 -1.87185 0)
(2.3335 -1.78289 0)
(2.39727 -1.64102 0)
(2.48844 -1.53299 0)
(2.53849 -1.34776 0)
(2.64325 -1.26285 0)
(2.684 -1.09701 0)
(2.76396 -0.931294 0)
(2.81305 -0.768384 0)
(2.83132 -0.57337 0)
(2.76594 -0.58827 0)
(2.71462 -0.605107 0)
(1.6676 -1.70892 0)
(1.94736 -2.02172 0)
(1.97378 -2.35008 0)
(2.08013 -2.41147 0)
(2.27366 -2.16103 0)
(2.354 -2.11547 0)
(2.49789 -1.73405 0)
(2.57061 -1.63331 0)
(2.60108 -1.63337 0)
(2.63828 -1.48763 0)
(2.59611 -1.51399 0)
(2.63774 -1.34164 0)
(2.61705 -1.22725 0)
(2.64109 -1.13726 0)
(2.6635 -0.988311 0)
(2.69686 -0.872443 0)
(2.75638 -0.76569 0)
(2.78914 -0.557698 0)
(2.79048 -0.398212 0)
(2.73258 -0.292244 0)
(1.85867 -1.81319 0)
(1.86537 -2.03255 0)
(1.81499 -2.36803 0)
(1.87559 -2.32791 0)
(2.07125 -2.04187 0)
(2.18606 -1.81758 0)
(2.36405 -1.60523 0)
(2.46992 -1.54542 0)
(2.65782 -1.44087 0)
(2.72583 -1.12917 0)
(2.7528 -1.12765 0)
(2.77769 -0.907924 0)
(2.75245 -0.892818 0)
(2.74628 -0.791306 0)
(2.73165 -0.707698 0)
(2.71079 -0.63001 0)
(2.70963 -0.576721 0)
(2.7375 -0.507175 0)
(2.71502 -0.318255 0)
(2.67195 -0.125629 0)
(1.84305 -1.82279 0)
(1.75777 -2.04749 0)
(1.65358 -2.31914 0)
(1.74149 -2.18562 0)
(1.95311 -1.95663 0)
(2.07159 -1.68139 0)
(2.16064 -1.60586 0)
(2.26229 -1.50293 0)
(2.39168 -1.40276 0)
(2.5152 -1.14455 0)
(2.6405 -0.923484 0)
(2.7003 -0.667642 0)
(2.72974 -0.511411 0)
(2.74567 -0.370421 0)
(2.73759 -0.259139 0)
(2.71873 -0.237629 0)
(2.69664 -0.202235 0)
(2.68733 -0.271571 0)
(2.65219 -0.188776 0)
(2.6092 -0.0149797 0)
(1.70354 -1.75678 0)
(1.60328 -1.93921 0)
(1.49524 -2.11559 0)
(1.74568 -2.02755 0)
(1.9893 -1.84422 0)
(2.15181 -1.51088 0)
(2.12801 -1.53769 0)
(2.26546 -1.39428 0)
(2.35559 -1.23755 0)
(2.41432 -1.11775 0)
(2.51726 -0.927727 0)
(2.59306 -0.715892 0)
(2.64556 -0.493012 0)
(2.70406 -0.318355 0)
(2.66335 -0.0616938 0)
(2.6524 0.045554 0)
(2.62106 0.17387 0)
(2.59969 0.0982066 0)
(2.55214 0.126647 0)
(2.58532 0.0454188 0)
(1.49194 -1.56829 0)
(1.47623 -1.65235 0)
(1.54427 -1.70357 0)
(1.79737 -1.79371 0)
(2.08134 -1.61121 0)
(2.22767 -1.28623 0)
(2.29917 -1.3727 0)
(2.43807 -1.14069 0)
(2.53101 -0.866357 0)
(2.53775 -0.835155 0)
(2.57412 -0.624117 0)
(2.5965 -0.467589 0)
(2.60191 -0.309406 0)
(2.62689 -0.195781 0)
(2.58244 0.00509845 0)
(2.58788 0.101776 0)
(2.53283 0.286485 0)
(2.48693 0.363525 0)
(2.4301 0.401633 0)
(2.45855 0.321851 0)
(1.28828 -1.29155 0)
(1.42947 -1.30877 0)
(1.7679 -1.3608 0)
(1.83622 -1.75509 0)
(2.09668 -1.44753 0)
(2.30517 -1.23635 0)
(2.52524 -0.953151 0)
(2.67149 -0.486705 0)
(2.67573 -0.294736 0)
(2.64652 -0.185719 0)
(2.62779 -0.0471203 0)
(2.60442 0.064189 0)
(2.58014 0.146522 0)
(2.55003 0.219773 0)
(2.49808 0.294239 0)
(2.47307 0.310617 0)
(2.43229 0.371879 0)
(2.37667 0.478903 0)
(2.30303 0.592975 0)
(2.29894 0.567362 0)
(1.05435 -1.07603 0)
(1.30351 -1.07265 0)
(1.80419 -1.21443 0)
(1.89641 -1.76581 0)
(2.48432 -0.944404 0)
(2.56547 -1.0362 0)
(2.64698 -0.70968 0)
(2.61594 -0.323777 0)
(2.5911 -0.262263 0)
(2.57637 -0.0277801 0)
(2.55944 0.161027 0)
(2.49236 0.360847 0)
(2.45739 0.47212 0)
(2.38879 0.591134 0)
(2.33794 0.641534 0)
(2.29513 0.652422 0)
(2.25546 0.667315 0)
(2.24538 0.665108 0)
(2.18303 0.736927 0)
(2.13507 0.784182 0)
(0.845607 -0.844678 0)
(1.21889 -0.917747 0)
(1.94215 -0.99296 0)
(2.49039 -1.36464 0)
(2.63097 -0.547013 0)
(2.46004 -0.792312 0)
(2.47584 -0.500641 0)
(2.47351 -0.221944 0)
(2.4496 -0.021923 0)
(2.45182 0.138307 0)
(2.4085 0.332059 0)
(2.34343 0.508114 0)
(2.30381 0.621982 0)
(2.22855 0.743241 0)
(2.16762 0.814952 0)
(2.11216 0.853678 0)
(2.05989 0.910468 0)
(2.05527 0.909071 0)
(2.04232 0.92729 0)
(2.06354 0.948476 0)
(0.655758 -0.544419 0)
(1.23549 -0.873672 0)
(2.41466 -0.682626 0)
(2.30792 -0.761036 0)
(2.37796 -0.590182 0)
(2.45753 -0.259809 0)
(2.42834 0.108642 0)
(2.39302 0.286728 0)
(2.32779 0.444129 0)
(2.30185 0.586027 0)
(2.20017 0.741784 0)
(2.12985 0.841981 0)
(2.08349 0.892596 0)
(2.03327 0.943841 0)
(1.99661 0.956377 0)
(1.95444 0.986573 0)
(1.95249 1.01809 0)
(1.96752 0.999478 0)
(1.99329 0.998392 0)
(2.07157 0.978925 0)
(0.89736 -0.429102 0)
(1.81256 -0.118143 0)
(2.15914 -0.822967 0)
(2.29267 -0.0929062 0)
(2.35749 -0.0175781 0)
(2.33449 0.329109 0)
(2.29195 0.550857 0)
(2.1897 0.739235 0)
(2.1388 0.800022 0)
(2.07774 0.921537 0)
(1.96237 1.02205 0)
(1.90502 1.07416 0)
(1.87863 1.08722 0)
(1.86954 1.08958 0)
(1.87473 1.05433 0)
(1.89805 1.04696 0)
(1.9609 1.0211 0)
(2.16268 0.903748 0)
(2.38004 0.793845 0)
(2.77769 0.443634 0)
(1.14783 -0.151613 0)
(1.90891 0.0140148 0)
(2.24496 0.239924 0)
(2.23646 0.484605 0)
(2.18799 0.681921 0)
(2.13165 0.793525 0)
(2.04786 0.901975 0)
(1.97789 0.95941 0)
(1.91685 1.03248 0)
(1.85127 1.12273 0)
(1.7846 1.15585 0)
(1.78744 1.15221 0)
(1.80863 1.13247 0)
(1.85333 1.08778 0)
(2.043 0.950013 0)
(2.25888 0.828623 0)
(2.66292 0.505547 0)
(3.03666 0.0924786 0)
(3.05579 -0.0240873 0)
(3.00406 -0.00469959 0)
(0.996412 0.0493186 0)
(1.92637 0.732926 0)
(2.10453 0.825574 0)
(1.98393 0.975201 0)
(1.95883 0.970243 0)
(1.87853 1.0684 0)
(1.79721 1.13306 0)
(1.764 1.14726 0)
(1.76026 1.16387 0)
(1.73608 1.2028 0)
(1.71161 1.19669 0)
(1.85452 1.07253 0)
(2.09373 0.888449 0)
(2.50469 0.578611 0)
(2.98969 0.134842 0)
(3.07388 -0.029707 0)
(3.00812 -0.00770321 0)
(3.00293 -0.00385944 0)
(3.00123 -0.00220883 0)
(3.00008 -0.000486684 0)
(1.1744 0.743458 0)
(1.81957 1.16394 0)
(1.83735 1.15373 0)
(1.73253 1.19597 0)
(1.70741 1.19119 0)
(1.66585 1.24089 0)
(1.66278 1.21193 0)
(1.73248 1.16581 0)
(1.76793 1.22577 0)
(1.79489 1.13613 0)
(2.26595 0.738684 0)
(2.8531 0.211438 0)
(3.09728 -0.0273795 0)
(3.02113 -0.0125503 0)
(3.00429 -0.00528833 0)
(3.00178 -0.00291693 0)
(3.00006 -0.000576844 0)
(2.99998 -2.386e-05 0)
(2.99999 1.44331e-05 0)
(3 5.93407e-06 0)
(1.57578 1.25807 0)
(1.58165 1.26566 0)
(1.58517 1.27294 0)
(1.59211 1.26384 0)
(1.60699 1.24464 0)
(1.60225 1.26616 0)
(1.92191 1.16754 0)
(2.98965 0.36874 0)
(3.31165 -0.563442 0)
(3 6.35192e-11 0)
(3 -7.76393e-11 0)
(3 8.05139e-11 0)
(3 -1.01124e-17 0)
(3 -4.3437e-13 0)
(3 -1.64763e-14 0)
(3 1.98875e-14 0)
(3 -8.05415e-15 0)
(3 1.26571e-15 0)
(3 3.32884e-15 0)
(3 3.72783e-15 0)
(1.58271 1.25132 0)
(1.59338 1.25936 0)
(1.59768 1.27626 0)
(1.59815 1.28449 0)
(1.65645 1.26583 0)
(1.71913 1.24037 0)
(2.26773 0.752961 0)
(2.99583 0.0174989 0)
(3 5.19951e-08 0)
(3 -3.20286e-11 0)
(3 -4.38579e-13 0)
(3 -3.36576e-14 0)
(3 -1.03071e-15 0)
(3 -6.80711e-16 0)
(3 1.08664e-15 0)
(3 2.14152e-15 0)
(3 3.36207e-15 0)
(3 1.22784e-15 0)
(3 2.57382e-15 0)
(3 4.5926e-15 0)
(1.58802 1.24971 0)
(1.60623 1.25456 0)
(1.6147 1.26015 0)
(1.59919 1.28902 0)
(1.67456 1.23674 0)
(2.19381 0.804108 0)
(2.98709 0.00675913 0)
(3.00053 -0.0010056 0)
(3 7.20571e-07 0)
(3 6.06925e-11 0)
(3 -1.0792e-13 0)
(3 2.16613e-15 0)
(3 -1.52446e-15 0)
(3 -3.10935e-16 0)
(3 1.30074e-15 0)
(3 3.04603e-15 0)
(3 2.58598e-15 0)
(3 6.19892e-16 0)
(3 1.89087e-15 0)
(3 3.2765e-15 0)
(1.58677 1.25314 0)
(1.60939 1.25487 0)
(1.625 1.25285 0)
(1.64224 1.26465 0)
(1.86713 1.07698 0)
(2.75334 0.208734 0)
(3.00524 -0.00254811 0)
(2.9999 9.38836e-05 0)
(3 -8.99875e-07 0)
(3 8.99908e-10 0)
(3 6.82085e-14 0)
(3 -4.09956e-15 0)
(3 -1.63581e-16 0)
(3 1.74315e-16 0)
(3 -7.91157e-17 0)
(3 8.09108e-16 0)
(3 2.24159e-15 0)
(3 -7.69771e-17 0)
(3 1.15316e-15 0)
(3 2.2017e-15 0)
(1.58547 1.26391 0)
(1.59536 1.26012 0)
(1.62475 1.25053 0)
(1.73666 1.19796 0)
(2.38204 0.62646 0)
(3.01894 -0.0173769 0)
(2.99976 0.000189291 0)
(3 -4.41615e-06 0)
(3 8.59368e-08 0)
(3 -9.2367e-10 0)
(3 2.03571e-12 0)
(3 -3.48678e-15 0)
(3 3.92681e-16 0)
(3 1.09201e-16 0)
(3 1.88939e-16 0)
(3 -2.2301e-16 0)
(3 5.35819e-16 0)
(3 4.54779e-16 0)
(3 1.58773e-16 0)
(3 -1.2618e-16 0)
(1.58262 1.27498 0)
(1.57866 1.26974 0)
(1.63008 1.2636 0)
(1.75688 1.17589 0)
(2.67879 0.280306 0)
(3 -5.96091e-10 0)
(3 1.43837e-08 0)
(3 -1.30096e-08 0)
(3 5.66838e-10 0)
(3 3.18923e-12 0)
(3 -1.27771e-13 0)
(3 3.36531e-15 0)
(3 1.13806e-15 0)
(3 1.79264e-15 0)
(3 8.59707e-16 0)
(3 6.55049e-16 0)
(3 1.50991e-16 0)
(3 -7.03133e-16 0)
(3 -2.09478e-16 0)
(3 -1.13629e-15 0)
(1.57921 1.29565 0)
(1.55966 1.29386 0)
(1.67462 1.24157 0)
(2.16486 0.840988 0)
(3.01582 -0.016574 0)
(3 -7.70004e-12 0)
(3 -1.07595e-11 0)
(3 1.89127e-11 0)
(3 -2.90189e-12 0)
(3 6.13985e-15 0)
(3 2.92241e-15 0)
(3 2.28195e-15 0)
(3 2.27204e-15 0)
(3 2.06787e-15 0)
(3 1.9034e-15 0)
(3 1.35622e-15 0)
(3 8.2785e-16 0)
(3 -3.28493e-16 0)
(3 -4.07565e-16 0)
(3 -1.3973e-15 0)
(1.58842 1.32235 0)
(1.50033 1.33023 0)
(1.78612 1.17854 0)
(2.44592 0.534815 0)
(3 -2.77304e-05 0)
(3 -1.54938e-12 0)
(3 2.67957e-14 0)
(3 -4.48215e-14 0)
(3 1.53352e-14 0)
(3 1.45e-15 0)
(3 2.96713e-15 0)
(3 2.71053e-15 0)
(3 2.56407e-15 0)
(3 2.37857e-15 0)
(3 2.37868e-15 0)
(3 2.08786e-15 0)
(3 1.52668e-15 0)
(3 1.08972e-15 0)
(3 8.4453e-16 0)
(3 3.79211e-16 0)
(1.59074 1.30872 0)
(1.46626 1.36602 0)
(1.90858 1.05196 0)
(2.84308 0.134358 0)
(3 -2.02794e-08 0)
(3 4.2337e-12 0)
(3 -1.51446e-14 0)
(3 -5.59295e-16 0)
(3 4.31006e-16 0)
(3 1.82932e-15 0)
(3 1.92897e-15 0)
(3 2.63135e-15 0)
(3 3.25354e-15 0)
(3 3.31024e-15 0)
(3 3.04581e-15 0)
(3 2.96108e-15 0)
(3 2.42412e-15 0)
(3 1.91337e-15 0)
(3 1.88858e-15 0)
(3 1.62557e-15 0)
(1.60502 1.29433 0)
(1.47948 1.37562 0)
(2.18193 0.809847 0)
(3.0108 -0.00919841 0)
(3 2.93943e-08 0)
(3 -1.40917e-12 0)
(3 -1.12584e-15 0)
(3 -4.76701e-16 0)
(3 5.06631e-16 0)
(3 1.67226e-15 0)
(3 2.2862e-15 0)
(3 3.05562e-15 0)
(3 3.4169e-15 0)
(3 3.8132e-15 0)
(3 3.13305e-15 0)
(3 3.2406e-15 0)
(3 3.3159e-15 0)
(3 2.94488e-15 0)
(3 2.58288e-15 0)
(3 2.61976e-15 0)
(1.62193 1.27923 0)
(1.57395 1.31333 0)
(2.41779 0.537168 0)
(3 -3.05232e-12 0)
(3 -2.7307e-11 0)
(3 5.04491e-14 0)
(3 3.33441e-16 0)
(3 3.02718e-16 0)
(3 4.71303e-16 0)
(3 1.37987e-15 0)
(3 2.10906e-15 0)
(3 2.40467e-15 0)
(3 3.27187e-15 0)
(3 4.27582e-15 0)
(3 4.11646e-15 0)
(3 3.65859e-15 0)
(3 3.77203e-15 0)
(3 4.68333e-15 0)
(3 4.46182e-15 0)
(3 3.47881e-15 0)
(1.63891 1.25985 0)
(1.62547 1.24977 0)
(2.65246 0.289456 0)
(3 5.1991e-13 0)
(3 -1.66105e-14 0)
(3 1.1062e-15 0)
(3 1.29969e-15 0)
(3 7.90619e-16 0)
(3 3.68006e-16 0)
(3 7.35549e-16 0)
(3 1.15305e-15 0)
(3 1.80787e-15 0)
(3 2.20113e-15 0)
(3 3.19666e-15 0)
(3 3.76042e-15 0)
(3 4.22513e-15 0)
(3 4.04676e-15 0)
(3 5.06738e-15 0)
(3 5.27175e-15 0)
(3 5.23029e-15 0)
(1.65638 1.23901 0)
(1.8323 1.10187 0)
(2.87624 0.0933432 0)
(3 -2.77328e-13 0)
(3 3.76554e-16 0)
(3 7.28549e-16 0)
(3 1.07082e-15 0)
(3 1.03553e-15 0)
(3 3.94807e-16 0)
(3 5.9363e-16 0)
(3 9.86303e-16 0)
(3 1.46161e-15 0)
(3 1.8848e-15 0)
(3 2.00441e-15 0)
(3 2.15338e-15 0)
(3 2.89266e-15 0)
(3 2.80657e-15 0)
(3 3.9319e-15 0)
(3 5.63098e-15 0)
(3 5.40956e-15 0)
(1.67084 1.19812 0)
(1.88871 0.983716 0)
(2.98863 0.00944819 0)
(3 -2.7819e-15 0)
(3 -2.48563e-15 0)
(3 -1.19169e-15 0)
(3 -3.36798e-16 0)
(3 2.86282e-16 0)
(3 8.36584e-17 0)
(3 4.7082e-16 0)
(3 7.06582e-16 0)
(3 1.58911e-15 0)
(3 1.85005e-15 0)
(3 1.61529e-15 0)
(3 1.70291e-15 0)
(3 2.23315e-15 0)
(3 2.22214e-15 0)
(3 2.2132e-15 0)
(3 2.31134e-15 0)
(3 3.89214e-15 0)
(1.69175 1.17369 0)
(2.03932 0.827726 0)
(3 -4.89965e-15 0)
(3 -4.21279e-15 0)
(3 -3.62902e-15 0)
(3 -2.5588e-15 0)
(3 -1.67713e-15 0)
(3 -1.04466e-15 0)
(3 -8.92002e-16 0)
(3 -3.05627e-16 0)
(3 -4.39748e-17 0)
(3 4.93876e-17 0)
(3 -8.10977e-17 0)
(3 -1.04829e-16 0)
(3 3.25924e-16 0)
(3 8.38264e-16 0)
(3 7.87696e-16 0)
(3 1.04557e-15 0)
(3 1.24089e-15 0)
(3 1.77088e-15 0)
(1.77635 1.10708 0)
(2.2366 0.647212 0)
(3 -4.45677e-15 0)
(3 -3.18711e-15 0)
(3 -2.16099e-15 0)
(3 -2.207e-15 0)
(3 -1.98546e-15 0)
(3 -2.07317e-15 0)
(3 -2.42379e-15 0)
(3 -2.42986e-15 0)
(3 -2.30228e-15 0)
(3 -2.06305e-15 0)
(3 -1.96214e-15 0)
(3 -1.60865e-15 0)
(3 -1.32168e-15 0)
(3 -9.17494e-16 0)
(3 -4.93536e-16 0)
(3 -7.23831e-16 0)
(3 -1.06643e-15 0)
(3 -9.63992e-16 0)
(1.83981 1.00326 0)
(2.46944 0.432159 0)
(3 -2.62182e-15 0)
(3 -5.75249e-16 0)
(3 -2.68244e-16 0)
(3 -4.49846e-16 0)
(3 -1.13098e-15 0)
(3 -1.70553e-15 0)
(3 -2.41965e-15 0)
(3 -2.80883e-15 0)
(3 -2.81381e-15 0)
(3 -3.03876e-15 0)
(3 -3.06493e-15 0)
(3 -2.85562e-15 0)
(3 -2.6864e-15 0)
(3 -2.37862e-15 0)
(3 -2.17246e-15 0)
(3 -1.17357e-15 0)
(3 -1.13112e-15 0)
(3 -8.92739e-16 0)
(1.92642 0.868545 0)
(2.71125 0.206927 0)
(3 -3.88634e-15 0)
(3 -2.34903e-15 0)
(3 1.79053e-16 0)
(3 2.50224e-16 0)
(3 3.64063e-17 0)
(3 -5.73741e-17 0)
(3 2.158e-16 0)
(3 3.39554e-16 0)
(3 -1.70357e-16 0)
(3 -9.73442e-16 0)
(3 -1.30917e-15 0)
(3 -1.49072e-15 0)
(3 -8.22182e-16 0)
(3 -2.55243e-16 0)
(3 7.42733e-16 0)
(3 1.45889e-15 0)
(3 1.88434e-15 0)
(3 1.86427e-15 0)
(2.09152 0.664218 0)
(2.99094 6.8239e-06 0)
(3 -1.16352e-15 0)
(3 4.98713e-16 0)
(3 3.73913e-15 0)
(3 4.51286e-15 0)
(3 5.07233e-15 0)
(3 5.22223e-15 0)
(3 4.98029e-15 0)
(3 4.35149e-15 0)
(3 4.173e-15 0)
(3 3.65388e-15 0)
(3 2.77462e-15 0)
(3 1.63305e-15 0)
(3 1.11379e-15 0)
(3 7.18616e-16 0)
(3 5.87675e-16 0)
(3 6.73644e-16 0)
(3 9.65932e-16 0)
(3 1.19987e-15 0)
(1.99202 0.372476 0)
(2.99988 -9.66612e-06 0)
(3 -5.18145e-15 0)
(3 -3.09697e-15 0)
(3 5.48575e-16 0)
(3 2.49535e-15 0)
(3 3.4583e-15 0)
(3 2.19312e-15 0)
(3 1.34641e-15 0)
(3 9.78479e-16 0)
(3 9.45298e-16 0)
(3 1.05017e-15 0)
(3 1.14856e-15 0)
(3 1.11542e-15 0)
(3 7.22201e-16 0)
(3 -3.01206e-16 0)
(3 -8.90228e-16 0)
(3 -1.40365e-15 0)
(3 -1.75489e-15 0)
(3 -1.99827e-15 0)
(1.99263 -0.372355 0)
(2.99989 6.71575e-06 0)
(3 -4.0857e-15 0)
(3 -2.80872e-15 0)
(3 -2.36715e-15 0)
(3 -2.54256e-15 0)
(3 -2.76434e-15 0)
(3 -2.87974e-15 0)
(3 -2.5617e-15 0)
(3 -2.1093e-15 0)
(3 -1.69073e-15 0)
(3 -1.65308e-15 0)
(3 -1.25723e-15 0)
(3 -6.21707e-16 0)
(3 -4.7171e-16 0)
(3 -2.74702e-16 0)
(3 -4.88229e-16 0)
(3 -5.90588e-16 0)
(3 -6.30302e-16 0)
(3 -6.44687e-16 0)
(2.09551 -0.664968 0)
(2.99051 -2.51698e-05 0)
(3 -4.66767e-15 0)
(3 -4.40552e-15 0)
(3 -5.17996e-15 0)
(3 -5.29545e-15 0)
(3 -4.71423e-15 0)
(3 -3.94653e-15 0)
(3 -4.00772e-15 0)
(3 -3.59392e-15 0)
(3 -3.35543e-15 0)
(3 -3.05297e-15 0)
(3 -2.21395e-15 0)
(3 -1.98303e-15 0)
(3 -1.29445e-15 0)
(3 -1.53647e-15 0)
(3 -1.59978e-15 0)
(3 -1.49841e-15 0)
(3 -1.51233e-15 0)
(3 -1.56639e-15 0)
(1.92492 -0.87146 0)
(2.70579 -0.211009 0)
(3 -3.70727e-15 0)
(3 -3.46916e-15 0)
(3 -2.32411e-15 0)
(3 -1.36077e-15 0)
(3 -9.7192e-16 0)
(3 -2.35063e-15 0)
(3 -3.519e-15 0)
(3 -3.82411e-15 0)
(3 -3.33652e-15 0)
(3 -2.50877e-15 0)
(3 -2.07824e-15 0)
(3 -2.14295e-15 0)
(3 -2.35399e-15 0)
(3 -3.20557e-15 0)
(3 -3.63738e-15 0)
(3 -3.72453e-15 0)
(3 -4.3059e-15 0)
(3 -4.77726e-15 0)
(1.83184 -1.00218 0)
(2.46552 -0.433368 0)
(3 2.20968e-15 0)
(3 4.55311e-15 0)
(3 5.96812e-15 0)
(3 5.63257e-15 0)
(3 3.64005e-15 0)
(3 1.66589e-15 0)
(3 1.01285e-15 0)
(3 8.33116e-16 0)
(3 1.18386e-15 0)
(3 1.3986e-15 0)
(3 4.26388e-16 0)
(3 -1.23011e-15 0)
(3 -2.25535e-15 0)
(3 -3.20637e-15 0)
(3 -3.4774e-15 0)
(3 -3.87772e-15 0)
(3 -4.05835e-15 0)
(3 -4.45535e-15 0)
(1.77996 -1.1067 0)
(2.23952 -0.647049 0)
(3 7.08222e-16 0)
(3 2.70783e-15 0)
(3 3.55613e-15 0)
(3 2.20748e-15 0)
(3 1.34096e-15 0)
(3 -5.93576e-18 0)
(3 -1.4323e-15 0)
(3 -1.30426e-15 0)
(3 -1.57412e-15 0)
(3 -2.89204e-15 0)
(3 -3.47675e-15 0)
(3 -4.03645e-15 0)
(3 -3.80316e-15 0)
(3 -3.04049e-15 0)
(3 -3.01124e-15 0)
(3 -3.21293e-15 0)
(3 -3.06085e-15 0)
(3 -3.27921e-15 0)
(1.69638 -1.17135 0)
(2.04541 -0.823749 0)
(3 2.30946e-15 0)
(3 2.67834e-15 0)
(3 2.64597e-15 0)
(3 1.53595e-15 0)
(3 6.82565e-16 0)
(3 -1.0281e-15 0)
(3 -2.54674e-15 0)
(3 -3.2281e-15 0)
(3 -3.64795e-15 0)
(3 -3.03926e-15 0)
(3 -2.42399e-15 0)
(3 -2.21206e-15 0)
(3 -2.04779e-15 0)
(3 -2.14825e-15 0)
(3 -2.16089e-15 0)
(3 -2.15592e-15 0)
(3 -2.35792e-15 0)
(3 -2.63147e-15 0)
(1.66851 -1.20058 0)
(1.88399 -0.984977 0)
(2.98378 -0.0126824 0)
(3 1.95969e-15 0)
(3 1.81302e-15 0)
(3 1.41819e-15 0)
(3 -4.29792e-16 0)
(3 -1.06043e-15 0)
(3 -3.01968e-15 0)
(3 -2.95914e-15 0)
(3 -2.52914e-15 0)
(3 -2.40201e-15 0)
(3 -1.77797e-15 0)
(3 -1.82312e-15 0)
(3 -9.32712e-16 0)
(3 -7.13822e-16 0)
(3 -1.28062e-15 0)
(3 -1.64793e-15 0)
(3 -1.7656e-15 0)
(3 -3.37959e-15 0)
(1.65565 -1.23972 0)
(1.83172 -1.10376 0)
(2.87396 -0.096454 0)
(3 1.0775e-13 0)
(3 -2.17859e-16 0)
(3 -7.46206e-16 0)
(3 -2.99616e-15 0)
(3 -4.09143e-15 0)
(3 -3.24696e-15 0)
(3 -2.99557e-15 0)
(3 -2.77936e-15 0)
(3 -2.56926e-15 0)
(3 -1.8938e-15 0)
(3 -1.33238e-15 0)
(3 -1.40036e-15 0)
(3 -2.13312e-15 0)
(3 -2.46713e-15 0)
(3 -2.93338e-15 0)
(3 -3.62127e-15 0)
(3 -4.41909e-15 0)
(1.63879 -1.25991 0)
(1.62731 -1.24941 0)
(2.65294 -0.290023 0)
(3 -6.29456e-13 0)
(3 2.73555e-14 0)
(3 -1.90888e-15 0)
(3 -3.28333e-15 0)
(3 -2.88734e-15 0)
(3 -2.898e-15 0)
(3 -2.69726e-15 0)
(3 -2.5057e-15 0)
(3 -2.51263e-15 0)
(3 -1.17858e-15 0)
(3 -1.48221e-15 0)
(3 -1.4757e-15 0)
(3 -2.45009e-15 0)
(3 -3.65708e-15 0)
(3 -4.19047e-15 0)
(3 -4.4463e-15 0)
(3 -4.15752e-15 0)
(1.62149 -1.2787 0)
(1.57001 -1.31633 0)
(2.41431 -0.54168 0)
(3 3.19527e-12 0)
(3 3.1825e-11 0)
(3 -7.60094e-14 0)
(3 -1.13138e-15 0)
(3 -1.73625e-15 0)
(3 -1.63862e-15 0)
(3 -1.51002e-15 0)
(3 -1.22957e-15 0)
(3 -5.89809e-16 0)
(3 -8.37191e-16 0)
(3 -9.38303e-16 0)
(3 -9.37044e-16 0)
(3 -2.60885e-15 0)
(3 -3.50443e-15 0)
(3 -3.54633e-15 0)
(3 -2.52337e-15 0)
(3 -1.9815e-15 0)
(1.60472 -1.29329 0)
(1.47989 -1.37255 0)
(2.1896 -0.804881 0)
(3.01066 0.00907218 0)
(3 -3.20676e-08 0)
(3 2.78554e-12 0)
(3 -8.49092e-15 0)
(3 -1.45248e-15 0)
(3 -9.71253e-16 0)
(3 -6.59323e-16 0)
(3 -1.96213e-16 0)
(3 1.92955e-16 0)
(3 2.14849e-16 0)
(3 -8.26307e-17 0)
(3 -8.32897e-16 0)
(3 -2.60956e-15 0)
(3 -3.21924e-15 0)
(3 -2.16672e-15 0)
(3 -6.29858e-16 0)
(3 2.06857e-15 0)
(1.59045 -1.30853 0)
(1.46745 -1.36733 0)
(1.91149 -1.0505 0)
(2.84413 -0.132285 0)
(3 1.77084e-08 0)
(3 -3.61217e-12 0)
(3 1.23986e-14 0)
(3 -1.08168e-15 0)
(3 1.93558e-16 0)
(3 2.70004e-16 0)
(3 4.41114e-16 0)
(3 9.77679e-16 0)
(3 7.50284e-16 0)
(3 -5.83336e-16 0)
(3 -1.38175e-15 0)
(3 -2.90935e-15 0)
(3 -3.0086e-15 0)
(3 -1.64964e-15 0)
(3 5.55478e-16 0)
(3 1.89385e-15 0)
(1.58994 -1.32368 0)
(1.49609 -1.33209 0)
(1.77458 -1.17863 0)
(2.43665 -0.538526 0)
(3 1.95012e-05 0)
(3 3.82746e-11 0)
(3 -4.42843e-13 0)
(3 1.69764e-13 0)
(3 -1.90694e-14 0)
(3 1.03655e-15 0)
(3 7.66473e-16 0)
(3 3.91863e-16 0)
(3 4.49929e-16 0)
(3 -8.1304e-16 0)
(3 -2.03406e-15 0)
(3 -2.79183e-15 0)
(3 -3.6448e-15 0)
(3 -2.31889e-15 0)
(3 6.47557e-16 0)
(3 1.61356e-15 0)
(1.57931 -1.29668 0)
(1.56144 -1.29691 0)
(1.67697 -1.2423 0)
(2.18549 -0.832582 0)
(3.02061 0.0215277 0)
(3 -3.06078e-11 0)
(3 4.54945e-11 0)
(3 -3.65132e-11 0)
(3 3.39233e-12 0)
(3 -2.87735e-16 0)
(3 -1.85012e-15 0)
(3 2.17126e-16 0)
(3 -1.08258e-16 0)
(3 -1.62961e-15 0)
(3 -2.23801e-15 0)
(3 -2.17089e-15 0)
(3 -3.31512e-15 0)
(3 -1.3775e-15 0)
(3 7.56071e-16 0)
(3 2.04893e-15 0)
(1.58212 -1.27505 0)
(1.57849 -1.27244 0)
(1.63724 -1.26223 0)
(1.75031 -1.18163 0)
(2.66905 -0.287443 0)
(3 5.65621e-10 0)
(3 -1.4345e-08 0)
(3 1.29681e-08 0)
(3 -5.62576e-10 0)
(3 -3.10336e-12 0)
(3 9.7467e-14 0)
(3 -4.77337e-16 0)
(3 -7.45822e-16 0)
(3 -2.72073e-15 0)
(3 -3.28007e-15 0)
(3 -2.34837e-15 0)
(3 -7.94817e-16 0)
(3 -1.40684e-16 0)
(3 1.15764e-15 0)
(3 2.4293e-15 0)
(1.58452 -1.26308 0)
(1.59394 -1.25959 0)
(1.62585 -1.25467 0)
(1.72411 -1.20428 0)
(2.37445 -0.629499 0)
(3.01899 0.0173215 0)
(2.99976 -0.000184587 0)
(3 4.40314e-06 0)
(3 -8.54981e-08 0)
(3 9.24702e-10 0)
(3 -1.56744e-13 0)
(3 2.82618e-16 0)
(3 -8.71342e-16 0)
(3 -2.711e-15 0)
(3 -3.79335e-15 0)
(3 -3.24251e-15 0)
(3 -1.08511e-15 0)
(3 7.72165e-16 0)
(3 1.93406e-15 0)
(3 2.90398e-15 0)
(1.58571 -1.25286 0)
(1.60719 -1.25406 0)
(1.62327 -1.25206 0)
(1.64472 -1.26049 0)
(1.88183 -1.06909 0)
(2.76001 -0.205174 0)
(3.00506 0.00226767 0)
(2.9999 -9.148e-05 0)
(3 9.23416e-07 0)
(3 -8.97542e-10 0)
(3 9.21479e-15 0)
(3 7.66959e-16 0)
(3 -1.43603e-15 0)
(3 -2.96687e-15 0)
(3 -3.94051e-15 0)
(3 -4.44271e-15 0)
(3 -8.6073e-16 0)
(3 4.90439e-16 0)
(3 6.28932e-16 0)
(3 2.13738e-15 0)
(1.58725 -1.24876 0)
(1.60594 -1.25452 0)
(1.61579 -1.25837 0)
(1.60462 -1.28575 0)
(1.67186 -1.23621 0)
(2.20681 -0.793254 0)
(2.99127 -0.00271179 0)
(3.0005 0.000962254 0)
(3 -7.50813e-07 0)
(3 -6.0754e-11 0)
(3 8.01241e-15 0)
(3 1.29552e-15 0)
(3 -1.02152e-15 0)
(3 -3.49582e-15 0)
(3 -4.24702e-15 0)
(3 -3.45871e-15 0)
(3 -1.94483e-15 0)
(3 -7.44034e-16 0)
(3 -3.73094e-16 0)
(3 1.35386e-15 0)
(1.58442 -1.25048 0)
(1.59468 -1.2585 0)
(1.60057 -1.27306 0)
(1.60247 -1.28348 0)
(1.6529 -1.26804 0)
(1.71327 -1.23917 0)
(2.2555 -0.758528 0)
(2.99379 -0.0197058 0)
(3 -5.06644e-08 0)
(3 2.99477e-11 0)
(3 7.58951e-15 0)
(3 3.22112e-15 0)
(3 -1.93317e-16 0)
(3 -3.15149e-15 0)
(3 -3.78439e-15 0)
(3 -2.07001e-15 0)
(3 -2.33876e-15 0)
(3 -2.59668e-15 0)
(3 -5.98453e-16 0)
(3 5.36671e-16 0)
(1.5769 -1.25847 0)
(1.58237 -1.2657 0)
(1.58681 -1.27258 0)
(1.59346 -1.26476 0)
(1.60531 -1.24718 0)
(1.59903 -1.26718 0)
(1.91784 -1.17166 0)
(2.98446 -0.378895 0)
(3.31359 0.570157 0)
(3 -6.4074e-11 0)
(3 7.55652e-11 0)
(3 -7.89021e-11 0)
(3 -2.81564e-15 0)
(3 4.29596e-13 0)
(3 1.10466e-14 0)
(3 -1.83747e-14 0)
(3 8.22834e-15 0)
(3 -1.99222e-15 0)
(3 -2.89399e-15 0)
(3 -2.75443e-15 0)
(1.17456 -0.745271 0)
(1.82164 -1.16218 0)
(1.83603 -1.15526 0)
(1.7352 -1.19394 0)
(1.70698 -1.19129 0)
(1.6651 -1.24111 0)
(1.66088 -1.21199 0)
(1.73169 -1.16614 0)
(1.76908 -1.22652 0)
(1.79871 -1.13582 0)
(2.26969 -0.736234 0)
(2.85544 -0.209176 0)
(3.09801 0.0283975 0)
(3.02122 0.0126298 0)
(3.00434 0.00536056 0)
(3.00177 0.00292774 0)
(3.00006 0.000572528 0)
(2.99998 2.31045e-05 0)
(2.99999 -1.4441e-05 0)
(3 -5.9369e-06 0)
(1.00432 -0.0386797 0)
(1.92712 -0.746764 0)
(2.10956 -0.833758 0)
(1.98105 -0.991176 0)
(1.95531 -0.975433 0)
(1.8771 -1.06843 0)
(1.79583 -1.13141 0)
(1.76437 -1.14633 0)
(1.76135 -1.16321 0)
(1.73816 -1.2023 0)
(1.71398 -1.19608 0)
(1.85524 -1.07148 0)
(2.0919 -0.888012 0)
(2.502 -0.579554 0)
(2.98831 -0.135977 0)
(3.07372 0.0293976 0)
(3.00811 0.00768094 0)
(3.00293 0.00385222 0)
(3.00123 0.00220732 0)
(3.00008 0.00048745 0)
(1.12072 0.0978515 0)
(1.87737 0.068066 0)
(2.24124 -0.199932 0)
(2.23503 -0.472381 0)
(2.18711 -0.677925 0)
(2.12826 -0.795679 0)
(2.0472 -0.900053 0)
(1.97718 -0.959425 0)
(1.91687 -1.03259 0)
(1.85297 -1.12277 0)
(1.78618 -1.15734 0)
(1.78741 -1.15147 0)
(1.80775 -1.13209 0)
(1.85201 -1.0884 0)
(2.04251 -0.95061 0)
(2.25978 -0.828314 0)
(2.66379 -0.504865 0)
(3.03685 -0.0921759 0)
(3.05582 0.0241203 0)
(3.00406 0.00470467 0)
(1.01489 0.482282 0)
(1.87253 0.0681921 0)
(2.1669 0.85655 0)
(2.29677 0.0382893 0)
(2.35402 -0.0108458 0)
(2.33538 -0.332428 0)
(2.2893 -0.554657 0)
(2.19142 -0.736914 0)
(2.1385 -0.802531 0)
(2.07887 -0.924312 0)
(1.96358 -1.02352 0)
(1.90502 -1.07418 0)
(1.87764 -1.08773 0)
(1.86868 -1.08971 0)
(1.87507 -1.05395 0)
(1.8989 -1.04629 0)
(1.96135 -1.02063 0)
(2.16234 -0.903838 0)
(2.37939 -0.794337 0)
(2.77741 -0.444267 0)
(0.904519 0.686356 0)
(1.37405 1.24697 0)
(2.51306 0.56419 0)
(2.2557 0.854653 0)
(2.3487 0.60926 0)
(2.44758 0.265995 0)
(2.42558 -0.109576 0)
(2.3935 -0.288286 0)
(2.32757 -0.446277 0)
(2.30495 -0.58346 0)
(2.20365 -0.737453 0)
(2.13056 -0.839412 0)
(2.08209 -0.892596 0)
(2.03202 -0.943901 0)
(1.9969 -0.955529 0)
(1.95527 -0.985612 0)
(1.95258 -1.01786 0)
(1.96737 -0.999775 0)
(1.99306 -0.998797 0)
(2.07154 -0.979255 0)
(0.889025 0.937634 0)
(1.34847 1.17009 0)
(2.064 0.894314 0)
(2.43877 1.45234 0)
(2.5912 0.613628 0)
(2.45401 0.787017 0)
(2.47548 0.506961 0)
(2.47319 0.22133 0)
(2.45037 0.0296887 0)
(2.45331 -0.136657 0)
(2.41083 -0.3325 0)
(2.3418 -0.512154 0)
(2.30085 -0.625763 0)
(2.22689 -0.745128 0)
(2.16823 -0.814026 0)
(2.1129 -0.853015 0)
(2.05988 -0.91056 0)
(2.05482 -0.909596 0)
(2.04206 -0.927861 0)
(2.0637 -0.948661 0)
(1.04294 1.09631 0)
(1.34569 1.17556 0)
(1.84295 1.18621 0)
(2.02458 1.71734 0)
(2.53446 0.988294 0)
(2.57807 1.02416 0)
(2.65389 0.724368 0)
(2.61971 0.330564 0)
(2.59495 0.255482 0)
(2.57826 0.0173571 0)
(2.56172 -0.166664 0)
(2.49164 -0.365687 0)
(2.45495 -0.476108 0)
(2.38836 -0.591837 0)
(2.33908 -0.639885 0)
(2.29587 -0.651652 0)
(2.25542 -0.66706 0)
(2.2448 -0.665405 0)
(2.1829 -0.737461 0)
(2.1353 -0.784344 0)
(1.19434 1.296 0)
(1.39289 1.37438 0)
(1.79783 1.44274 0)
(1.94818 1.68364 0)
(2.07007 1.52398 0)
(2.31 1.21996 0)
(2.5328 0.939231 0)
(2.67997 0.49876 0)
(2.67819 0.288201 0)
(2.65226 0.197685 0)
(2.63194 0.0529708 0)
(2.60513 -0.0623822 0)
(2.57874 -0.14668 0)
(2.55024 -0.216784 0)
(2.49866 -0.290897 0)
(2.47303 -0.308511 0)
(2.43159 -0.370558 0)
(2.37605 -0.478501 0)
(2.30314 -0.593067 0)
(2.29952 -0.566854 0)
(1.37076 1.55777 0)
(1.41161 1.70864 0)
(1.59822 1.7793 0)
(1.86721 1.6848 0)
(2.03506 1.63956 0)
(2.20281 1.28523 0)
(2.29989 1.35688 0)
(2.43506 1.1545 0)
(2.52872 0.882012 0)
(2.53799 0.842724 0)
(2.57434 0.626921 0)
(2.59475 0.467241 0)
(2.60045 0.310714 0)
(2.62694 0.199467 0)
(2.58248 -0.00201045 0)
(2.58791 -0.0996764 0)
(2.53224 -0.286902 0)
(2.48644 -0.364804 0)
(2.43012 -0.402767 0)
(2.45851 -0.323135 0)
(1.6134 1.73936 0)
(1.54054 1.95704 0)
(1.496 2.11303 0)
(1.74853 1.93866 0)
(1.95676 1.84058 0)
(2.13283 1.49708 0)
(2.11248 1.54647 0)
(2.25691 1.39568 0)
(2.34993 1.2445 0)
(2.41605 1.11803 0)
(2.51886 0.927846 0)
(2.59269 0.712657 0)
(2.6465 0.49343 0)
(2.70603 0.318707 0)
(2.66464 0.0609001 0)
(2.65298 -0.0471808 0)
(2.62101 -0.177217 0)
(2.59938 -0.101371 0)
(2.55274 -0.126736 0)
(2.58618 -0.0455957 0)
(1.80645 1.79779 0)
(1.72187 2.01906 0)
(1.61422 2.28802 0)
(1.72571 2.1638 0)
(1.92717 1.95203 0)
(2.06711 1.6534 0)
(2.1403 1.62028 0)
(2.26237 1.50037 0)
(2.39553 1.4069 0)
(2.51972 1.14159 0)
(2.64495 0.923033 0)
(2.70154 0.66306 0)
(2.73078 0.5087 0)
(2.7474 0.368304 0)
(2.73967 0.257912 0)
(2.72017 0.234996 0)
(2.69756 0.19925 0)
(2.68913 0.272624 0)
(2.65207 0.187233 0)
(2.61147 0.0172422 0)
(1.8416 1.76634 0)
(1.86167 1.98784 0)
(1.78149 2.35359 0)
(1.82983 2.29997 0)
(2.04072 2.0424 0)
(2.16998 1.78703 0)
(2.34442 1.62789 0)
(2.47435 1.53532 0)
(2.65698 1.44839 0)
(2.72971 1.12882 0)
(2.75594 1.12495 0)
(2.77933 0.911873 0)
(2.75469 0.896432 0)
(2.74927 0.794407 0)
(2.73427 0.709861 0)
(2.7122 0.628684 0)
(2.71039 0.576691 0)
(2.73933 0.508651 0)
(2.7153 0.318744 0)
(2.6721 0.1259 0)
(1.68801 1.67074 0)
(1.95969 1.95196 0)
(1.9866 2.35173 0)
(2.05921 2.41513 0)
(2.24671 2.16451 0)
(2.33731 2.10647 0)
(2.47126 1.75429 0)
(2.54939 1.63446 0)
(2.59887 1.62301 0)
(2.63957 1.47859 0)
(2.596 1.50965 0)
(2.63911 1.34362 0)
(2.61981 1.23002 0)
(2.64448 1.13907 0)
(2.66605 0.988261 0)
(2.69804 0.871045 0)
(2.7576 0.766025 0)
(2.79091 0.558005 0)
(2.79198 0.397865 0)
(2.72952 0.293451 0)
(1.52703 1.5758 0)
(1.89343 1.92549 0)
(2.04967 2.31104 0)
(2.10687 2.3906 0)
(2.28223 2.21906 0)
(2.34309 2.18277 0)
(2.4256 1.85498 0)
(2.3404 1.86308 0)
(2.3064 1.87083 0)
(2.33807 1.78313 0)
(2.39647 1.63982 0)
(2.4897 1.53375 0)