/*--------------------------------*- C++ -*----------------------------------*\
  =========                 |
  \\      /  F ield         | OpenFOAM: The Open Source CFD Toolbox
   \\    /   O peration     | Website:  https://openfoam.org
    \\  /    A nd           | Version:  7
     \\/     M anipulation  |
\*---------------------------------------------------------------------------*/
FoamFile
{
    version     2.0;
    format      ascii;
    class       volScalarField;
    location    "7.6";
    object      p;
}
// * * * * * * * * * * * * * * * * * * * * * * * * * * * * * * * * * * * * * //

dimensions      [1 -1 -2 0 0 0 0];

internalField   nonuniform List<scalar> 
3700
(
0.10634
0.185726
0.227972
0.285582
0.301118
0.320836
0.358504
0.400913
0.423384
0.431074
0.451509
0.468681
0.477006
0.490547
0.509521
0.508602
0.503287
0.523667
0.528505
0.525227
0.0816352
0.0851753
0.0995864
0.116948
0.104476
0.0990768
0.108606
0.122198
0.12003
0.104063
0.104361
0.117871
0.144526
0.178197
0.208033
0.217579
0.220049
0.22562
0.234455
0.227
0.0933172
0.084429
0.0781853
0.0699086
0.0609873
0.0571595
0.0515773
0.0518673
0.0551792
0.058701
0.0623793
0.068669
0.0768459
0.0878049
0.0995164
0.110664
0.120783
0.126033
0.129509
0.128642
0.111011
0.0832763
0.0724538
0.0614788
0.0570528
0.0603694
0.0633085
0.0723114
0.0804312
0.0884006
0.0849427
0.0885986
0.0921324
0.100649
0.11229
0.126794
0.144644
0.16254
0.180066
0.189524
0.121892
0.0803985
0.061622
0.0518466
0.0508827
0.0582808
0.0668039
0.0875621
0.103353
0.113676
0.121041
0.129064
0.126872
0.127894
0.1288
0.13519
0.15263
0.179922
0.208118
0.245336
0.120076
0.069752
0.0482252
0.0447326
0.0467416
0.0534003
0.0637158
0.0876962
0.110108
0.128564
0.148599
0.161857
0.177242
0.189305
0.192854
0.190228
0.19325
0.20505
0.234048
0.301179
0.107583
0.0576216
0.0433926
0.0424878
0.0471727
0.0534993
0.062831
0.0835552
0.106657
0.131858
0.161882
0.182125
0.211767
0.237889
0.260472
0.277833
0.290675
0.301806
0.315315
0.380464
0.0887328
0.0511634
0.0426085
0.0440786
0.0549454
0.0678572
0.0844926
0.0993769
0.112831
0.13252
0.163801
0.191879
0.235363
0.275599
0.314393
0.357445
0.394511
0.433695
0.453534
0.536705
0.0749641
0.0462325
0.0410177
0.0467737
0.0615109
0.0899684
0.122647
0.148678
0.168925
0.187663
0.200128
0.224404
0.264165
0.31514
0.368453
0.431034
0.499298
0.571318
0.621531
0.740183
0.0619874
0.0399016
0.0351742
0.0421239
0.059265
0.0975769
0.140824
0.183103
0.229674
0.278998
0.317005
0.358051
0.397029
0.444096
0.485633
0.542145
0.626066
0.727869
0.837304
0.970557
0.0465206
0.0321467
0.0300692
0.0390428
0.0549906
0.0949198
0.138492
0.186875
0.257375
0.345001
0.421295
0.494033
0.572733
0.643853
0.704834
0.772744
0.849746
0.942969
1.15174
1.14501
0.0325974
0.0241962
0.0253765
0.0378648
0.0543816
0.0935707
0.131291
0.175034
0.261896
0.387406
0.510266
0.626626
0.753662
0.856944
0.972423
1.09033
1.20537
1.31567
1.5296
1.49493
0.0238801
0.0187499
0.0198027
0.0353404
0.0605556
0.141155
0.200381
0.283431
0.422545
0.572184
0.726621
0.865641
1.01048
1.14201
1.31058
1.50166
1.68375
1.84817
2.08737
2.06949
0.0191796
0.0159158
0.0161933
0.0378052
0.118341
0.273316
0.411431
0.592029
0.804683
1.01389
1.18727
1.34329
1.5006
1.65516
1.85865
2.098
2.34072
2.5871
2.7941
2.99291
0.0157734
0.0150637
0.0178671
0.082889
0.247482
0.4298
0.651226
0.915507
1.21684
1.5154
1.74079
1.9599
2.18043
2.41897
2.71982
3.00863
3.28231
3.51948
3.65562
3.77496
0.0115254
0.0176133
0.0572638
0.192882
0.42249
0.663739
1.01165
1.42145
1.88205
2.26443
2.55323
2.83094
3.11118
3.42135
3.75285
3.96602
4.09175
4.13463
4.04022
3.91286
0.00848728
0.0309306
0.161185
0.394757
0.825793
1.42853
1.98957
2.56548
3.16699
3.54938
3.7764
4.01158
4.2214
4.39337
4.47955
4.40266
4.18194
3.6425
2.78299
1.88694
0.0265011
0.138807
0.506211
1.20292
2.0928
2.88024
3.55785
4.26488
4.78343
4.82489
4.72755
4.73603
4.69981
4.53949
4.03399
3.07542
2.09382
1.33077
1.01747
0.992864
0.314802
0.896618
2.00579
3.21023
4.22913
4.85965
5.4006
5.8736
5.73853
5.29206
4.85447
4.31302
3.39687
2.32716
1.42415
1.02868
0.989358
0.994937
0.997328
0.999445
2.32518
3.64161
4.9009
5.73389
6.24833
6.43681
6.5731
6.24837
4.55411
3.21656
2.37931
1.57382
1.08463
0.987779
0.992985
0.996295
0.999152
0.999972
1.00002
1.00001
6.97884
6.93056
6.88301
6.93421
7.05734
6.79311
6.00562
2.25112
0.655993
1
1
1
1
1
1
1
1
1
1
1
6.90861
6.8746
6.77224
6.69232
6.92703
5.76863
2.57154
1.01012
1
1
1
1
1
1
1
1
1
1
1
1
6.77959
6.8444
6.7563
6.56572
6.28996
3.43939
1.05848
0.998971
1
1
1
1
1
1
1
1
1
1
1
1
6.65525
6.84059
6.85965
6.53317
4.74842
1.50191
0.992486
1.00012
0.999999
1
1
1
1
1
1
1
1
1
1
1
6.49484
6.8178
6.86293
6.33633
2.68101
0.975076
1.00037
0.999994
1
1
1
1
1
1
1
1
1
1
1
1
6.39078
6.71772
6.74393
4.87024
1.37589
1
1
1
1
1
1
1
1
1
1
1
1
1
1
1
6.36501
6.67531
6.57616
3.56377
0.997893
1
1
1
1
1
1
1
1
1
1
1
1
1
1
1
6.50435
6.72715
6.16083
2.04523
0.999979
1
1
1
1
1
1
1
1
1
1
1
1
1
1
1
6.94549
6.66268
4.89044
1.20319
1
1
1
1
1
1
1
1
1
1
1
1
1
1
1
1
7.25128
6.36757
3.49632
0.98739
1
1
1
1
1
1
1
1
1
1
1
1
1
1
1
1
7.45636
6.04399
2.27081
1
1
1
1
1
1
1
1
1
1
1
1
1
1
1
1
1
7.52004
5.36969
1.60129
1
1
1
1
1
1
1
1
1
1
1
1
1
1
1
1
1
7.57584
4.71016
1.16049
1
1
1
1
1
1
1
1
1
1
1
1
1
1
1
1
1
7.38505
3.96087
1.00009
1
1
1
1
1
1
1
1
1
1
1
1
1
1
1
1
1
7.10837
3.27885
1
1
1
1
1
1
1
1
1
1
1
1
1
1
1
1
1
1
6.97762
2.56118
1
1
1
1
1
1
1
1
1
1
1
1
1
1
1
1
1
1
6.73487
1.85917
1
1
1
1
1
1
1
1
1
1
1
1
1
1
1
1
1
1
6.26618
1.32684
1
1
1
1
1
1
1
1
1
1
1
1
1
1
1
1
1
1
5.72783
1.00449
1
1
1
1
1
1
1
1
1
1
1
1
1
1
1
1
1
1
4.66011
1.00014
1
1
1
1
1
1
1
1
1
1
1
1
1
1
1
1
1
1
4.65376
1.00014
1
1
1
1
1
1
1
1
1
1
1
1
1
1
1
1
1
1
5.74046
1.00464
1
1
1
1
1
1
1
1
1
1
1
1
1
1
1
1
1
1
6.26945
1.33145
1
1
1
1
1
1
1
1
1
1
1
1
1
1
1
1
1
1
6.70851
1.85023
1
1
1
1
1
1
1
1
1
1
1
1
1
1
1
1
1
1
7.00636
2.54177
1
1
1
1
1
1
1
1
1
1
1
1
1
1
1
1
1
1
7.11356
3.29244
1
1
1
1
1
1
1
1
1
1
1
1
1
1
1
1
1
1
7.36947
3.97662
1.00005
1
1
1
1
1
1
1
1
1
1
1
1
1
1
1
1
1
7.57421
4.71469
1.15769
1
1
1
1
1
1
1
1
1
1
1
1
1
1
1
1
1
7.52295
5.36174
1.60158
1
1
1
1
1
1
1
1
1
1
1
1
1
1
1
1
1
7.45895
6.03816
2.27141
1
1
1
1
1
1
1
1
1
1
1
1
1
1
1
1
1
7.26084
6.37485
3.48111
0.987437
1
1
1
1
1
1
1
1
1
1
1
1
1
1
1
1
6.9525
6.6432
4.87166
1.20893
1
1
1
1
1
1
1
1
1
1
1
1
1
1
1
1
6.52193
6.74019
6.15759
2.03218
0.999976
1
1
1
1
1
1
1
1
1
1
1
1
1
1
1
6.37463
6.68766
6.59192
3.58518
0.999422
1
1
1
1
1
1
1
1
1
1
1
1
1
1
1
6.40125
6.7109
6.72002
4.86874
1.39859
1
1
1
1
1
1
1
1
1
1
1
1
1
1
1
6.49549
6.80198
6.84885
6.2973
2.65966
0.975488
1.00037
0.999994
1
1
1
1
1
1
1
1
1
1
1
1
6.65531
6.84212
6.85701
6.58639
4.73706
1.48727
0.992389
1.00013
0.999999
1
1
1
1
1
1
1
1
1
1
1
6.78348
6.84834
6.76745
6.57309
6.27832
3.4612
1.06272
0.998867
1
1
1
1
1
1
1
1
1
1
1
1
6.90013
6.86856
6.75871
6.68767
6.91645
5.77678
2.58876
1.01159
1
1
1
1
1
1
1
1
1
1
1
1
6.97151
6.92378
6.86835
6.9334
7.06724
6.78884
5.99562
2.24442
0.658231
1
1
1
1
1
1
1
1
1
1
1
2.32485
3.64495
4.91524
5.7504
6.26734
6.43077
6.56777
6.2401
4.5486
3.2136
2.37793
1.57434
1.0855
0.987711
0.993105
0.996324
0.999154
0.999971
1.00002
1.00001
0.305551
0.857965
1.94253
3.17321
4.24892
4.88839
5.42273
5.87848
5.74017
5.29103
4.85418
4.31287
3.39775
2.32859
1.42523
1.02883
0.989347
0.99493
0.997325
0.999445
0.0439906
0.178727
0.528464
1.19319
2.06947
2.87425
3.56695
4.27349
4.79011
4.82703
4.72751
4.73274
4.69621
4.53682
4.03328
3.07625
2.0952
1.33161
1.01766
0.992879
0.00681411
0.0470245
0.169554
0.377024
0.814493
1.42383
1.98792
2.56689
3.1698
3.55333
3.77628
4.00861
4.21663
4.38943
4.47901
4.40276
4.18304
3.64458
2.78467
1.88687
0.00717784
0.0171976
0.0564215
0.202536
0.41744
0.651452
1.00261
1.41706
1.88176
2.26626
2.55386
2.83018
3.10922
3.41802
3.74954
3.96592
4.09436
4.13645
4.04182
3.91327
0.012993
0.0142279
0.0182964
0.0982453
0.246089
0.427458
0.645554
0.910458
1.21514
1.51658
1.74268
1.96068
2.17942
2.41611
2.71583
3.0065
3.28397
3.5223
3.65691
3.77487
0.0212301
0.014954
0.0154987
0.0417568
0.125205
0.282383
0.414938
0.592151
0.805132
1.01527
1.18855
1.34356
1.49952
1.65245
1.85515
2.09617
2.34189
2.58906
2.79539
2.99312
0.0284304
0.0174659
0.0171633
0.0332543
0.0703097
0.15128
0.206087
0.290567
0.428305
0.574224
0.726323
0.864611
1.00969
1.14149
1.31069
1.50261
1.68549
1.84956
2.08752
2.06847
0.0367049
0.0228192
0.0215649
0.0358238
0.0621606
0.0967041
0.134356
0.177296
0.262496
0.386583
0.509147
0.62583
0.753123
0.857082
0.972948
1.09113
1.20602
1.31615
1.52923
1.49458
0.048258
0.031192
0.0286917
0.0387526
0.0618565
0.0963713
0.143261
0.186727
0.255305
0.343124
0.419739
0.492818
0.571367
0.64295
0.704078
0.772043
0.848806
0.941817
1.15128
1.14518
0.0638142
0.0400068
0.0376062
0.0462424
0.0642693
0.0969125
0.144005
0.181293
0.226885
0.276706
0.315079
0.356328
0.39518
0.442279
0.484182
0.541096
0.625538
0.72763
0.837346
0.971205
0.0811019
0.048346
0.0434829
0.0528728
0.0627817
0.0869897
0.121635
0.144678
0.165264
0.185318
0.198726
0.223818
0.264317
0.315261
0.368599
0.431159
0.499444
0.571868
0.622103
0.740613
0.0936453
0.0532429
0.0430142
0.0490203
0.0551353
0.0629577
0.0802057
0.095664
0.110491
0.131563
0.164232
0.192927
0.236438
0.276457
0.315078
0.357943
0.395026
0.434402
0.45429
0.536525
0.102272
0.0556613
0.0419235
0.0437405
0.0472074
0.0515532
0.0622538
0.0833933
0.106348
0.132046
0.162685
0.183182
0.212717
0.238652
0.261108
0.278386
0.291204
0.302274
0.315942
0.380444
0.110532
0.0596082
0.0434017
0.0440171
0.0465979
0.0519007
0.0644041
0.0883684
0.110951
0.129515
0.149203
0.162375
0.177788
0.189682
0.19327
0.190851
0.193943
0.205827
0.23485
0.301163
0.115886
0.0697037
0.0513087
0.0485183
0.050022
0.0579861
0.0686542
0.0893668
0.105116
0.114383
0.121132
0.128777
0.127117
0.128277
0.129448
0.136152
0.153612
0.180345
0.208193
0.244659
0.113711
0.0838918
0.0674222
0.0574044
0.0568298
0.0612368
0.0653505
0.0747707
0.0811536
0.0871036
0.0841778
0.0881263
0.0920403
0.100948
0.11276
0.127264
0.144911
0.162392
0.17961
0.18872
0.106503
0.0864609
0.0790104
0.0699172
0.0619879
0.0595175
0.0532467
0.0534841
0.0557647
0.0579915
0.06126
0.0676189
0.075944
0.0872781
0.0992314
0.110453
0.120475
0.125686
0.128964
0.12852
0.0954896
0.0934614
0.103807
0.111442
0.125192
0.139877
0.136
0.142522
0.16185
0.177845
0.191087
0.188282
0.167004
0.155138
0.160025
0.175425
0.203537
0.216
0.210384
0.192765
0.12372
0.206031
0.240225
0.272421
0.316416
0.363934
0.382946
0.417515
0.459932
0.467722
0.48465
0.486361
0.475321
0.461704
0.480607
0.49688
0.504071
0.513489
0.511635
0.508309
0.559824
0.654541
0.69849
0.774133
0.829966
0.884115
0.880333
0.867575
0.853837
0.861765
0.905913
0.965867
0.981721
0.967476
0.932356
0.928587
0.946602
0.976542
0.97777
0.961402
0.28413
0.421404
0.556014
0.659776
0.750737
0.855396
0.869346
0.883848
0.877145
0.881795
0.90582
0.948411
0.964346
0.960539
0.942677
0.937655
0.951009
0.972878
0.974399
0.964803
0.135147
0.162984
0.247851
0.348977
0.490068
0.680855
0.787529
0.86579
0.892443
0.897642
0.910663
0.92679
0.942059
0.953706
0.956685
0.956961
0.959765
0.959404
0.957274
0.959113
0.189277
0.218579
0.227776
0.229979
0.2388
0.307609
0.51745
0.742954
0.833197
0.899394
0.915944
0.904031
0.912814
0.93976
0.962089
0.966427
0.965115
0.952766
0.946964
0.955441
0.242435
0.261768
0.285046
0.280631
0.274663
0.276903
0.298691
0.404694
0.638755
0.830902
0.878791
0.882374
0.893743
0.928233
0.967993
0.975385
0.968691
0.944067
0.938688
0.952399
0.313619
0.334329
0.340524
0.320872
0.306798
0.306686
0.316375
0.329238
0.380071
0.533279
0.742023
0.853408
0.861322
0.915179
0.959463
0.968205
0.963547
0.940531
0.938669
0.95522
0.391627
0.41591
0.410074
0.372059
0.355819
0.356463
0.361708
0.370164
0.377142
0.385903
0.46624
0.685664
0.82412
0.913547
0.937652
0.958863
0.95555
0.940377
0.943682
0.962323
0.502351
0.506041
0.495779
0.455784
0.409616
0.395611
0.39699
0.40232
0.405052
0.398292
0.400909
0.448556
0.655099
0.838551
0.901827
0.946503
0.939078
0.935748
0.956405
0.965447
0.662198
0.617253
0.583241
0.529595
0.480094
0.450764
0.441387
0.442638
0.439057
0.423455
0.419392
0.418866
0.457025
0.621576
0.834542
0.937531
0.9118
0.927569
0.96734
0.96488
0.866875
0.750006
0.689506
0.631157
0.572564
0.521125
0.487943
0.478868
0.465714
0.453079
0.441998
0.435111
0.438958
0.460327
0.605249
0.827079
0.873581
0.935774
0.976555
0.962143
1.28448
0.939007
0.755499
0.695538
0.687013
0.671498
0.60569
0.53647
0.507892
0.492109
0.487185
0.484033
0.47614
0.46623
0.477653
0.565956
0.753423
0.895903
0.942616
0.951741
2.0404
1.51365
1.14347
0.887103
0.837041
0.82457
0.759878
0.669445
0.605089
0.559178
0.534927
0.536749
0.525578
0.508222
0.490458
0.492142
0.531338
0.647516
0.789071
0.909006
2.50299
2.16428
1.73782
1.35954
1.04645
0.929938
0.84029
0.753835
0.722166
0.679229
0.653026
0.636641
0.610224
0.570562
0.544692
0.523182
0.528374
0.536738
0.575752
0.746036
2.36524
2.35029
2.22857
1.94056
1.56556
1.2555
1.07331
0.926948
0.8836
0.829653
0.764362
0.714164
0.662881
0.609567
0.595141
0.583628
0.568778
0.55524
0.546025
0.580988
1.67926
2.15314
2.22264
2.19431
2.06338
1.76306
1.48793
1.24584
1.0762
0.9614
0.847968
0.790878
0.75127
0.711081
0.693945
0.673813
0.646783
0.617607
0.575898
0.574663
1.10869
1.43783
1.85046
2.11589
2.11413
2.07043
1.92878
1.6961
1.43322
1.24171
1.07275
0.96623
0.915896
0.860815
0.804991
0.747741
0.692437
0.653707
0.629408
0.609802
1.00452
1.04424
1.20556
1.55325
1.86017
2.01621
2.01259
1.97499
1.83555
1.6266
1.41364
1.20846
1.0732
0.969944
0.884904
0.831089
0.781769
0.732167
0.723054
0.695677
1.00009
1.00111
1.01051
1.07874
1.27055
1.57038
1.82392
1.93594
1.92951
1.88671
1.76991
1.58069
1.3848
1.21689
1.07269
1.006
0.954213
0.887864
0.826779
0.754974
1
1.00001
1.00015
1.00245
1.01949
1.09918
1.2892
1.55581
1.77184
1.85864
1.85218
1.81497
1.71436
1.55605
1.3779
1.21934
1.10477
1.00811
0.923575
0.826392
1
1
1
1.00003
1.00034
1.00377
1.02436
1.10882
1.28787
1.52006
1.70531
1.78937
1.78451
1.75596
1.67968
1.53953
1.37926
1.23179
1.12862
0.999247
1
1
1
1
1
1.00004
1.00049
1.00479
1.02637
1.10682
1.26452
1.47655
1.63383
1.72655
1.72448
1.7047
1.64564
1.5302
1.39882
1.19699
1
1
1
1
1
1
1
1.00006
1.00056
1.00506
1.0247
1.09533
1.23273
1.42793
1.57182
1.66085
1.66425
1.65358
1.61825
1.46553
1
1
1
1
1
1
1
1
1.00001
1.00007
1.00055
1.00433
1.0225
1.07825
1.19886
1.3682
1.5176
1.59838
1.61104
1.58929
1
1
1
1
1
1
1
1
1
1
1.00001
1.00006
1.00053
1.00319
1.01832
1.06409
1.16186
1.31455
1.44609
1.55006
1
1
1
1
1
1
1
1
1
1
1
1
1.00001
1.00004
1.00043
1.00256
1.01389
1.05153
1.13699
1.38896
1.62099
2.46491
2.58573
2.08533
1.30961
1.03691
1.00188
1.00005
1
1
1
1
1
1
1
2.34593
2.81801
2.52838
1.54029
1.04801
1.0008
1
1
1
1
1
1
1
1
1
2.93167
2.87194
1.98099
1.152
1.00517
1.00005
1
1
1
1
1
1
1
1
1
3.25085
2.55519
1.36512
1.01943
1.00019
1
1
1
1
1
1
1
1
1
1
3.31718
1.68536
1.04745
1.00051
1
1
1
1
1
1
1
1
1
1
1
2.0693
1.07345
1.00049
0.999999
1
1
1
1
1
1
1
1
1
1
1
1.1023
1.00058
0.999997
1
1
1
1
1
1
1
1
1
1
1
1
0.998131
0.999864
0.999996
1
1
1
1
1
1
1
1
1
1
1
1
0.999967
1
1
1
1
1
1
1
1
1
1
1
1
1
1
1
1
1
1
1
1
1
1
1
1
1
1
1
1
1
1
1
1
1
1
1
1
1
1
1
1
1
1
1
1
1
1
1
1
1
1
1
1
1
1
1
1
1
1
1
1
1
1
1
1
1
1
1
1
1
1
1
1
1
1
1
1
1
1
1
1
1
1
1
1
1
1
1
1
1
1
1
1
1
1
1
1
1
1
1
1
1
1
1
1
1
1
1
1
1
1
1
1
1
1
1
1
1
1
1
1
1
1
1
1
1
1
1
1
1
1
1
1
1
1
1
1
1
1
1
1
1
1
1
1
1
1
1
1
1
1
1
1
1
1
1
1
1
1
1
1
1
1
1
1
1
1
1
1
1
1
1
1
1
1
1
1
1
1
1
1
1
1
1
1
1
1
1
1
1
1
1
1
1
1
1
1
1
1
1
1
1
1
1
1
1
1
1
1
1
1
1
1
1
1
1
1
1
1
1
1
1
1
1
1
1
1
1
1
1
1
1
1
1
1
1
1
1
1
1
1
1
1
1
1
1
1
1
1
1
1
1
1
1
1
1
1
1
1
1
1
1
1
1
1
1
1
1
1
1
1
1
1
1
1
1
1
1
1
1
1
1
1
1
1
1
1
1
1
1
1
1
1
1
1
1
1
1
1
1
1
1
1
1
1
1
1
1
1
1
1
1
1
1
1
1
1
1
1
1
1
1
1
1
1
1
1
1
1
1
1
1
1
1
1
1
1
1
1
1
1
1
1
1
1
1
1
1
1
1
1
1
1
1
1
1
1
1
1
1
1
1
1
1
1
1
1
1
1
1
1
1
1
1
1
1
1
1
1
1
1
1
1
1
1
1
1
1
1
1
1
1
1
1
1
1
1
1
1
1
1
1
1
1
1
1
1
1
1
1
1
1
1
1
1
1
1
1
1
1
1
1
1
1
1
1
1
1
1
1
1
1
1
1
1
1
1
1
1
1
1
1
1
1
1
1
1
1
1
1
1
1
1
1
1
1
1
1
1
1
1
1
1
1
1
1
1
1
1
1
1
1
1
1
1
1
1
1
1
1
1
1
1
1
1
1
1
1
1
1
1
1
1
1
1
1
1
1
1
1
1
1
1
1
1
1
1
1
1
1
1
1
1
1
1
1
1
1
1
1
1
1
1
1
1
1
1
1
1
1
1
1
1
1
1
1
1
1
1
1
1
1
1
1
1
1
1
1
1
1
1
1
1
1
1
1
1
1
1
1
1
1
1
1
1
1
1
1
1
1
1
1
1
1
1
1
1
1
1
1
1
1
1
1
1
1
1
1
1
1
1
1
1
1
1
1
1
1
1
1
1
1
1
1
1
1
1
1
1
1
1
1
1
1
1
1
1
1
1
1
1
1
1
1
1
1
1
1
1
1
1
1
1
1
1
1
1
1
1
1
1
1
1
1
1
1
1
1
1
1
1
1
1
1
1
1
1
1
1
1
1
1
1
1
1
1
1
1
1
1
1
1
1
1
1
1
1
1
1
1
1
1
1
1
1
1
1
1
1
1
1
1
1
1
1
1
1
1
1
1
1
1
1
1
1
1
1
1
1
1
1
1
1
1
1
1
1
1
1
1
1
1
1
1
1
1
1
1
1
1
1
1
1
1
1
1
1
1
1
1
1
1
1
1
1
1
1
1
1
1
1
1
1
1
1
1
1
1
1
1
1
1
1
1
1
1
1
1
1
1
1
1
1
1
1
1
1
1
1
1
1
1
1
1
1
1
1
1
1
1
1
1
1
1
1
1
1
1
1
1
1
1
1
1
1
1
1
1
1
1
1
1
1
1
1
1
1
1
1
1
1
1
1
1
1
1
1
1
1
1
1
1
1
1
1
1
1
1
1
1
1
1
1
1
1
0.999967
1
1
1
1
1
1
1
1
1
1
1
1
1
1
0.998135
0.999864
0.999996
1
1
1
1
1
1
1
1
1
1
1
1
1.10209
1.00057
0.999997
1
1
1
1
1
1
1
1
1
1
1
1
2.06871
1.07338
1.00049
0.999999
1
1
1
1
1
1
1
1
1
1
1
3.31686
1.68564
1.04747
1.0005
1
1
1
1
1
1
1
1
1
1
1
3.25031
2.55466
1.3651
1.01955
1.00019
1
1
1
1
1
1
1
1
1
1
2.93197
2.87151
1.98156
1.15192
1.00515
1.00005
1
1
1
1
1
1
1
1
1
2.34424
2.81822
2.52812
1.54075
1.04808
1.0008
1
1
1
1
1
1
1
1
1
1.62347
2.46559
2.58488
2.08488
1.30958
1.03693
1.00188
1.00005
1
1
1
1
1
1
1
1.27429
2.04546
2.50611
2.36599
1.67903
1.10852
1.00452
1.00009
1
1
1
1
1
1
1
0.928542
1.51027
2.16301
2.35066
2.15398
1.43722
1.04408
1.00111
1.00001
1
1
1
1
1
1
0.774906
1.14146
1.72967
2.2284
2.22164
1.85025
1.2055
1.0105
1.00015
1
1
1
1
1
1
0.705585
0.897507
1.36357
1.93407
2.19303
2.11597
1.55309
1.07866
1.00245
1.00003
1
1
1
1
1
0.680649
0.836772
1.05816
1.57031
2.0634
2.1142
1.85984
1.26998
1.01939
1.00034
1
1
1
1
1
0.664879
0.820581
0.923321
1.25372
1.76928
2.07184
2.01741
1.57041
1.09908
1.00376
1.00004
1
1
1
1
0.604798
0.759041
0.839046
1.06568
1.48214
1.93161
2.01365
1.82411
1.28923
1.02438
1.00049
1
1
1
1
0.529115
0.663747
0.762592
0.950778
1.24585
1.69155
1.97513
1.93601
1.55561
1.10879
1.00477
1.00006
1
1
1
0.503774
0.594447
0.70791
0.893234
1.09109
1.43436
1.83578
1.92958
1.77172
1.28753
1.02642
1.00057
1.00001
1
1
0.497677
0.55543
0.658647
0.815536
0.963532
1.24874
1.62976
1.88738
1.85891
1.52056
1.10663
1.005
1.00007
1
1
0.494295
0.544993
0.652969
0.756194
0.842256
1.07569
1.41132
1.77025
1.85242
1.70506
1.26454
1.02487
1.00056
1.00001
1
0.486535
0.5459
0.642611
0.713379
0.787946
0.968706
1.21008
1.58099
1.8144
1.78891
1.47653
1.09521
1.00431
1.00006
1
0.476558
0.530972
0.613753
0.662404
0.751625
0.91881
1.07308
1.38246
1.71474
1.78419
1.63448
1.23283
1.02241
1.00053
1.00001
0.46499
0.514092
0.575499
0.614193
0.705356
0.859871
0.971535
1.21401
1.55551
1.75602
1.72619
1.4278
1.07861
1.0032
1.00004
0.476313
0.495354
0.546446
0.590333
0.692475
0.800427
0.888927
1.08105
1.37714
1.67882
1.72403
1.57101
1.19891
1.01834
1.00043
0.561068
0.492389
0.521226
0.580087
0.6758
0.743385
0.829904
1.0087
1.22051
1.53871
1.70434
1.66277
1.36755
1.06376
1.00254
0.746574
0.528525
0.526886
0.570408
0.649717
0.691044
0.775296
0.947983
1.10468
1.38078
1.6451
1.66463
1.51738
1.1618
1.01389
0.891964
0.642265
0.535943
0.560504
0.619062
0.653961
0.731181
0.884179
1.00543
1.23132
1.52957
1.65342
1.59884
1.31473
1.05161
0.938604
0.785549
0.575847
0.548343
0.573017
0.630667
0.724242
0.828832
0.923732
1.12557
1.39766
1.6174
1.61099
1.44606
1.137
0.951328
0.909014
0.746819
0.581674
0.574476
0.611095
0.695338
0.758268
0.82984
0.998787
1.19663
1.46484
1.58919
1.54998
1.38878
0.860699
0.751163
0.692592
0.627521
0.566924
0.520714
0.488885
0.47509
0.457744
0.456043
0.446627
0.434154
0.43685
0.459187
0.607007
0.822974
0.873266
0.933146
0.973779
0.962042
0.662618
0.619632
0.58162
0.524824
0.480994
0.456826
0.443716
0.442708
0.438049
0.431007
0.41867
0.414098
0.450274
0.624549
0.822252
0.932784
0.910186
0.926073
0.965256
0.964654
0.504176
0.507135
0.492949
0.449028
0.407439
0.396929
0.395836
0.399907
0.402775
0.395533
0.398024
0.443524
0.641125
0.826505
0.893086
0.94642
0.939949
0.936041
0.956525
0.964977
0.39216
0.416407
0.411473
0.376416
0.360975
0.360594
0.363052
0.373693
0.381248
0.388029
0.46441
0.671896
0.82205
0.888117
0.936633
0.96407
0.963003
0.945945
0.949133
0.963009
0.314199
0.33695
0.337159
0.316603
0.304231
0.30507
0.315636
0.330359
0.379782
0.531863
0.734043
0.844586
0.862514
0.909356
0.959089
0.973255
0.970948
0.951643
0.945699
0.958469
0.243021
0.261736
0.283315
0.278109
0.274372
0.278261
0.298493
0.394509
0.631383
0.836541
0.881987
0.8863
0.896003
0.927452
0.968542
0.979555
0.974596
0.953336
0.94365
0.954918
0.189345
0.215501
0.232096
0.233212
0.250316
0.324499
0.517863
0.741118
0.837429
0.909167
0.92335
0.913187
0.917742
0.939797
0.964299
0.968743
0.966538
0.952683
0.945624
0.954194
0.135673
0.158236
0.237245
0.347147
0.522653
0.694619
0.782287
0.864764
0.897541
0.903201
0.914108
0.929966
0.944031
0.952867
0.956093
0.955838
0.955515
0.952579
0.950141
0.954218
0.280985
0.41491
0.540476
0.657117
0.768847
0.850785
0.867615
0.883184
0.880149
0.884681
0.909827
0.949827
0.966769
0.962203
0.943959
0.936157
0.941242
0.954983
0.959838
0.957874
0.561807
0.653648
0.695469
0.772876
0.833612
0.888427
0.88802
0.877691
0.863466
0.871096
0.904993
0.959094
0.974381
0.960679
0.931853
0.927078
0.94261
0.970118
0.974644
0.963148
)
;

boundaryField
{
    inlet
    {
        type            fixedValue;
        value           uniform 1;
    }
    outlet
    {
        type            zeroGradient;
    }
    airfoil
    {
        type            zeroGradient;
    }
    top
    {
        type            symmetryPlane;
    }
    bottom
    {
        type            symmetryPlane;
    }
    defaultFaces
    {
        type            empty;
    }
}


// ************************************************************************* //
