/*--------------------------------*- C++ -*----------------------------------*\
  =========                 |
  \\      /  F ield         | OpenFOAM: The Open Source CFD Toolbox
   \\    /   O peration     | Website:  https://openfoam.org
    \\  /    A nd           | Version:  7
     \\/     M anipulation  |
\*---------------------------------------------------------------------------*/
FoamFile
{
    version     2.0;
    format      ascii;
    class       volScalarField;
    location    "7.6";
    object      rho;
}
// * * * * * * * * * * * * * * * * * * * * * * * * * * * * * * * * * * * * * //

dimensions      [1 -3 0 0 0 0 0];

internalField   nonuniform List<scalar> 
3700
(
0.148169
0.258219
0.316696
0.396523
0.418153
0.445416
0.497069
0.5551
0.586104
0.596908
0.625421
0.649169
0.660351
0.678918
0.705217
0.704039
0.696835
0.725132
0.73192
0.727474
0.114107
0.119038
0.139074
0.163205
0.1459
0.13835
0.151364
0.170064
0.167138
0.14514
0.145671
0.16443
0.201357
0.24802
0.289519
0.302868
0.30647
0.314237
0.326479
0.316151
0.130397
0.118018
0.10934
0.0978061
0.0853641
0.0800367
0.072261
0.072686
0.0773281
0.082265
0.0874086
0.0961959
0.107618
0.122926
0.13929
0.154874
0.16902
0.176358
0.181225
0.180046
0.155004
0.116402
0.101336
0.0860257
0.0798504
0.0844931
0.0886153
0.101214
0.11259
0.123762
0.118966
0.124093
0.129036
0.140921
0.157168
0.17743
0.202372
0.227358
0.251836
0.26506
0.170114
0.11237
0.0862064
0.0725727
0.0712296
0.0815713
0.0934855
0.122478
0.144548
0.158994
0.169307
0.180548
0.177526
0.17899
0.180271
0.189197
0.213554
0.251654
0.291008
0.342937
0.167571
0.0975256
0.0675369
0.0626706
0.0654773
0.0747838
0.0891852
0.122662
0.153961
0.17974
0.207726
0.226268
0.247772
0.264655
0.269653
0.266038
0.270298
0.28679
0.327261
0.420858
0.150208
0.0806439
0.0608127
0.0595534
0.0660965
0.0749371
0.0879679
0.116906
0.14917
0.184343
0.226261
0.254534
0.295897
0.33238
0.363929
0.388184
0.406147
0.421716
0.440594
0.531438
0.124032
0.0716527
0.0597282
0.0617897
0.0769902
0.0950436
0.118278
0.139047
0.157829
0.185301
0.228971
0.268171
0.328832
0.384964
0.439082
0.499122
0.550831
0.605497
0.633167
0.749006
0.104885
0.0647802
0.0575123
0.0655635
0.0861558
0.125899
0.171532
0.207875
0.236155
0.262299
0.279723
0.313608
0.369081
0.440155
0.514464
0.601677
0.696784
0.797141
0.8671
1.03221
0.0868067
0.0559454
0.0493414
0.0590589
0.0830065
0.136482
0.196832
0.255838
0.320796
0.389568
0.442586
0.499832
0.554172
0.619795
0.677708
0.756465
0.873327
1.01504
1.16734
1.35264
0.0652191
0.0451153
0.042202
0.0547462
0.0770248
0.132744
0.19353
0.261051
0.359352
0.481445
0.587759
0.689125
0.798742
0.897823
0.982734
1.0773
1.18448
1.31422
1.60449
1.59514
0.0457524
0.0339941
0.035632
0.0530901
0.0761336
0.130781
0.183438
0.244502
0.365614
0.540479
0.71159
0.873629
1.05046
1.19425
1.3549
1.51887
1.67878
1.83206
2.12926
2.08116
0.0335499
0.0263624
0.0278165
0.049544
0.0846611
0.197029
0.279664
0.395399
0.589158
0.797539
1.01256
1.20609
1.40766
1.59065
1.82496
2.09037
2.34316
2.57137
2.90331
2.87854
0.026964
0.022385
0.0227537
0.0529482
0.165227
0.381136
0.573526
0.824828
1.1206
1.4115
1.6527
1.86972
2.08851
2.30335
2.58595
2.9181
3.25475
3.59639
3.88357
4.15953
0.0221869
0.0211838
0.0250706
0.115848
0.345162
0.598956
0.907023
1.27448
1.69324
2.1081
2.42138
2.72581
3.03208
3.36304
3.7802
4.18056
4.55999
4.88895
5.07831
5.2444
0.0162225
0.0247368
0.0801406
0.269137
0.588673
0.924301
1.40799
1.97732
2.61686
3.14785
3.5488
3.93412
4.32266
4.75234
5.21164
5.50706
5.68173
5.74166
5.61199
5.43751
0.0119547
0.0433776
0.225119
0.550137
1.14933
1.98633
2.76525
3.56442
4.39891
4.92929
5.24399
5.56977
5.8602
6.09859
6.21826
6.11217
5.80874
5.06521
3.87623
2.63443
0.0372806
0.19411
0.705388
1.67302
2.90775
4.00003
4.9397
5.91975
6.63862
6.69572
6.56066
6.57244
6.52231
6.30131
5.60442
4.27895
2.92085
1.86121
1.42439
1.39005
0.440205
1.24866
2.78754
4.45698
5.8687
6.74258
7.49226
8.14801
7.96091
7.34214
6.73594
5.98786
4.72143
3.24291
1.99092
1.44001
1.38515
1.39294
1.39628
1.39923
3.23273
5.05596
6.79914
7.95188
8.66445
8.92663
9.11572
8.66735
6.32222
4.46888
3.31176
2.1981
1.518
1.38295
1.39021
1.39483
1.39882
1.39997
1.40003
1.40002
9.67373
9.60699
9.54142
9.61275
9.78427
9.4212
8.33499
3.13781
0.919723
1.40001
1.40001
1.40001
1.40001
1.40001
1.40001
1.40001
1.40001
1.40001
1.40001
1.40001
9.57657
9.52961
9.38842
9.27867
9.60523
8.0074
3.58308
1.41403
1.40001
1.40001
1.40001
1.40001
1.40001
1.40001
1.40001
1.40001
1.40001
1.40001
1.40001
1.40001
9.3985
9.48814
9.36656
9.1041
8.72494
4.78382
1.48118
1.39858
1.40001
1.40001
1.40001
1.40001
1.40001
1.40001
1.40001
1.40001
1.40001
1.40001
1.40001
1.40001
9.22668
9.48306
9.50975
9.06008
6.59502
2.09706
1.38954
1.40018
1.4
1.40001
1.40001
1.40001
1.40001
1.40001
1.40001
1.40001
1.40001
1.40001
1.40001
1.40001
9.00484
9.45169
9.51474
8.78973
3.73276
1.36522
1.40052
1.4
1.40001
1.40001
1.40001
1.40001
1.40001
1.40001
1.40001
1.40001
1.40001
1.40001
1.40001
1.40001
8.86081
9.3132
9.35027
6.76282
1.9218
1.40001
1.40001
1.40001
1.40001
1.40001
1.40001
1.40001
1.40001
1.40001
1.40001
1.40001
1.40001
1.40001
1.40001
1.40001
8.82502
9.25451
9.11837
4.95414
1.3969
1.40001
1.40001
1.40001
1.40001
1.40001
1.40001
1.40001
1.40001
1.40001
1.40001
1.40001
1.40001
1.40001
1.40001
1.40001
9.01721
9.32619
8.54568
2.84991
1.40001
1.40001
1.40001
1.40001
1.40001
1.40001
1.40001
1.40001
1.40001
1.40001
1.40001
1.40001
1.40001
1.40001
1.40001
1.40001
9.62717
9.23805
6.79068
1.68195
1.4
1.40001
1.40001
1.40001
1.40001
1.40001
1.40001
1.40001
1.40001
1.40001
1.40001
1.40001
1.40001
1.40001
1.40001
1.40001
10.0499
8.83152
4.8617
1.3824
1.40001
1.40001
1.40001
1.40001
1.40001
1.40001
1.40001
1.40001
1.40001
1.40001
1.40001
1.40001
1.40001
1.40001
1.40001
1.40001
10.3333
8.38558
3.16337
1.40001
1.40001
1.40001
1.40001
1.40001
1.40001
1.40001
1.40001
1.40001
1.40001
1.40001
1.40001
1.40001
1.40001
1.40001
1.40001
1.40001
10.4211
7.45427
2.23476
1.40001
1.40001
1.40001
1.40001
1.40001
1.40001
1.40001
1.40001
1.40001
1.40001
1.40001
1.40001
1.40001
1.40001
1.40001
1.40001
1.40001
10.498
6.54252
1.62293
1.40001
1.40001
1.40001
1.40001
1.40001
1.40001
1.40001
1.40001
1.40001
1.40001
1.40001
1.40001
1.40001
1.40001
1.40001
1.40001
1.40001
10.2337
5.50515
1.40013
1.40001
1.40001
1.40001
1.40001
1.40001
1.40001
1.40001
1.40001
1.40001
1.40001
1.40001
1.40001
1.40001
1.40001
1.40001
1.40001
1.40001
9.85182
4.55942
1.40001
1.40001
1.40001
1.40001
1.40001
1.40001
1.40001
1.40001
1.40001
1.40001
1.40001
1.40001
1.40001
1.40001
1.40001
1.40001
1.40001
1.40001
9.67278
3.56485
1.40001
1.40001
1.40001
1.40001
1.40001
1.40001
1.40001
1.40001
1.40001
1.40001
1.40001
1.40001
1.40001
1.40001
1.40001
1.40001
1.40001
1.40001
9.34023
2.59182
1.40001
1.40001
1.40001
1.40001
1.40001
1.40001
1.40001
1.40001
1.40001
1.40001
1.40001
1.40001
1.40001
1.40001
1.40001
1.40001
1.40001
1.40001
8.69458
1.85367
1.40001
1.40001
1.40001
1.40001
1.40001
1.40001
1.40001
1.40001
1.40001
1.40001
1.40001
1.40001
1.40001
1.40001
1.40001
1.40001
1.40001
1.40001
7.95027
1.40623
1.40001
1.40001
1.40001
1.40001
1.40001
1.40001
1.40001
1.40001
1.40001
1.40001
1.40001
1.40001
1.40001
1.40001
1.40001
1.40001
1.40001
1.40001
6.47143
1.40021
1.40001
1.40001
1.40001
1.40001
1.40001
1.40001
1.40001
1.40001
1.40001
1.40001
1.40001
1.40001
1.40001
1.40001
1.40001
1.40001
1.40001
1.40001
6.46268
1.4002
1.40001
1.40001
1.40001
1.40001
1.40001
1.40001
1.40001
1.40001
1.40001
1.40001
1.40001
1.40001
1.40001
1.40001
1.40001
1.40001
1.40001
1.40001
7.96763
1.40644
1.40001
1.40001
1.40001
1.40001
1.40001
1.40001
1.40001
1.40001
1.40001
1.40001
1.40001
1.40001
1.40001
1.40001
1.40001
1.40001
1.40001
1.40001
8.69897
1.86006
1.40001
1.40001
1.40001
1.40001
1.40001
1.40001
1.40001
1.40001
1.40001
1.40001
1.40001
1.40001
1.40001
1.40001
1.40001
1.40001
1.40001
1.40001
9.30389
2.57945
1.40001
1.40001
1.40001
1.40001
1.40001
1.40001
1.40001
1.40001
1.40001
1.40001
1.40001
1.40001
1.40001
1.40001
1.40001
1.40001
1.40001
1.40001
9.71275
3.53804
1.40001
1.40001
1.40001
1.40001
1.40001
1.40001
1.40001
1.40001
1.40001
1.40001
1.40001
1.40001
1.40001
1.40001
1.40001
1.40001
1.40001
1.40001
9.85909
4.57817
1.40001
1.40001
1.40001
1.40001
1.40001
1.40001
1.40001
1.40001
1.40001
1.40001
1.40001
1.40001
1.40001
1.40001
1.40001
1.40001
1.40001
1.40001
10.2119
5.52688
1.40007
1.40001
1.40001
1.40001
1.40001
1.40001
1.40001
1.40001
1.40001
1.40001
1.40001
1.40001
1.40001
1.40001
1.40001
1.40001
1.40001
1.40001
10.4956
6.54878
1.61903
1.40001
1.40001
1.40001
1.40001
1.40001
1.40001
1.40001
1.40001
1.40001
1.40001
1.40001
1.40001
1.40001
1.40001
1.40001
1.40001
1.40001
10.4251
7.44331
2.23517
1.40001
1.40001
1.40001
1.40001
1.40001
1.40001
1.40001
1.40001
1.40001
1.40001
1.40001
1.40001
1.40001
1.40001
1.40001
1.40001
1.40001
10.3369
8.37755
3.16419
1.40001
1.40001
1.40001
1.40001
1.40001
1.40001
1.40001
1.40001
1.40001
1.40001
1.40001
1.40001
1.40001
1.40001
1.40001
1.40001
1.40001
10.0632
8.84164
4.84065
1.38247
1.40001
1.40001
1.40001
1.40001
1.40001
1.40001
1.40001
1.40001
1.40001
1.40001
1.40001
1.40001
1.40001
1.40001
1.40001
1.40001
9.63695
9.21129
6.76479
1.68993
1.4
1.40001
1.40001
1.40001
1.40001
1.40001
1.40001
1.40001
1.40001
1.40001
1.40001
1.40001
1.40001
1.40001
1.40001
1.40001
9.04158
9.34422
8.54123
2.83186
1.40001
1.40001
1.40001
1.40001
1.40001
1.40001
1.40001
1.40001
1.40001
1.40001
1.40001
1.40001
1.40001
1.40001
1.40001
1.40001
8.83825
9.27151
9.14
4.98374
1.39904
1.40001
1.40001
1.40001
1.40001
1.40001
1.40001
1.40001
1.40001
1.40001
1.40001
1.40001
1.40001
1.40001
1.40001
1.40001
8.87524
9.30368
9.31706
6.76057
1.95328
1.40001
1.40001
1.40001
1.40001
1.40001
1.40001
1.40001
1.40001
1.40001
1.40001
1.40001
1.40001
1.40001
1.40001
1.40001
9.00569
9.42976
9.49528
8.7358
3.70316
1.36579
1.40052
1.4
1.40001
1.40001
1.40001
1.40001
1.40001
1.40001
1.40001
1.40001
1.40001
1.40001
1.40001
1.40001
9.22677
9.48521
9.50617
9.1338
6.57954
2.0768
1.38941
1.40019
1.4
1.40001
1.40001
1.40001
1.40001
1.40001
1.40001
1.40001
1.40001
1.40001
1.40001
1.40001
9.40394
9.49366
9.38206
9.11435
8.70889
4.81403
1.48706
1.39843
1.40001
1.40001
1.40001
1.40001
1.40001
1.40001
1.40001
1.40001
1.40001
1.40001
1.40001
1.40001
9.56495
9.52135
9.36978
9.27226
9.59049
8.0184
3.60684
1.41609
1.40001
1.40001
1.40001
1.40001
1.40001
1.40001
1.40001
1.40001
1.40001
1.40001
1.40001
1.40001
9.66358
9.5976
9.52114
9.6116
9.79789
9.41522
8.32117
3.12855
0.922853
1.40001
1.40001
1.40001
1.40001
1.40001
1.40001
1.40001
1.40001
1.40001
1.40001
1.40001
3.23225
5.06059
6.81898
7.97464
8.69072
8.9182
9.10835
8.65594
6.31462
4.4648
3.30985
2.19882
1.51922
1.38286
1.39038
1.39487
1.39882
1.39997
1.40003
1.40002
0.427218
1.19487
2.6998
4.40571
5.89608
6.78233
7.52286
8.1548
7.96323
7.34076
6.73557
5.98765
4.72261
3.24487
1.99243
1.44022
1.38514
1.39293
1.39627
1.39923
0.0618364
0.249841
0.736304
1.65939
2.87526
3.99162
4.95226
5.9317
6.64792
6.69873
6.56063
6.56789
6.5173
6.2976
5.60342
4.28012
2.92276
1.86237
1.42466
1.39007
0.00960602
0.0659599
0.236902
0.52558
1.13365
1.97974
2.7629
3.56636
4.40284
4.93481
5.24382
5.56563
5.85357
6.09312
6.21751
6.11233
5.81026
5.06809
3.87856
2.63433
0.0101093
0.0241767
0.0789969
0.282672
0.581691
0.907215
1.39539
1.97119
2.61647
3.15041
3.54967
3.93304
4.31991
4.74771
5.20707
5.50694
5.68535
5.74418
5.6142
5.43808
0.0182598
0.0200045
0.0256709
0.137323
0.343224
0.595673
0.899116
1.26746
1.69089
2.10975
2.42401
2.72688
3.03065
3.35907
3.77469
4.17763
4.56229
4.89286
5.08009
5.24427
0.0297857
0.0210204
0.0217742
0.0584772
0.174784
0.393748
0.578409
0.825016
1.12125
1.41342
1.65448
1.87009
2.087
2.29959
2.58111
2.91558
3.25638
3.5991
3.88535
4.15983
0.0398445
0.0245343
0.0241126
0.0466249
0.0982749
0.211145
0.287623
0.405356
0.597199
0.800396
1.01216
1.20467
1.40657
1.58995
1.82512
2.09169
2.34557
2.57328
2.90351
2.87712
0.0514021
0.0320279
0.0302864
0.0502263
0.0869973
0.135137
0.187711
0.247659
0.366466
0.539352
0.710049
0.872535
1.04973
1.19445
1.35564
1.51998
1.67968
1.83273
2.12875
2.08069
0.0675401
0.0437422
0.0402671
0.0543292
0.0866211
0.134763
0.200187
0.26086
0.356483
0.478849
0.585609
0.687448
0.796856
0.89658
0.981689
1.07632
1.18317
1.31261
1.60384
1.59538
0.0892512
0.0560628
0.0527331
0.0648023
0.0900011
0.135561
0.201283
0.253334
0.316926
0.386391
0.43992
0.497448
0.551612
0.617276
0.675694
0.755002
0.872582
1.0147
1.16739
1.35354
0.113342
0.0677067
0.0609461
0.07408
0.0879362
0.121753
0.170138
0.202314
0.231064
0.259043
0.277778
0.312798
0.369296
0.440323
0.514662
0.601842
0.696979
0.797902
0.867896
1.03281
0.130783
0.0745321
0.0602864
0.0686988
0.0772598
0.0882008
0.112294
0.13387
0.154571
0.183972
0.229578
0.269632
0.330328
0.386152
0.440027
0.499808
0.551544
0.60648
0.634221
0.748759
0.142772
0.0778891
0.0587515
0.0612976
0.0661475
0.0722233
0.0871687
0.116691
0.148747
0.184607
0.227378
0.256004
0.297214
0.333435
0.364808
0.388948
0.406882
0.422368
0.44147
0.531415
0.154296
0.0833727
0.0607997
0.06167
0.0652792
0.0726933
0.090152
0.123603
0.155137
0.181068
0.208564
0.226984
0.248525
0.265173
0.270228
0.266905
0.271264
0.287876
0.328383
0.42084
0.161808
0.0974489
0.0718112
0.0679257
0.0700314
0.0811623
0.0960703
0.124996
0.147008
0.159976
0.169429
0.180141
0.177863
0.179522
0.181174
0.190541
0.214926
0.252246
0.291118
0.341999
0.158865
0.117285
0.0943037
0.0803293
0.0795353
0.0857046
0.0914652
0.104645
0.113596
0.121948
0.117898
0.123433
0.128908
0.141339
0.157824
0.178088
0.202747
0.227156
0.251206
0.263943
0.148876
0.120902
0.110495
0.097808
0.0867538
0.0833246
0.0745895
0.0749439
0.0781461
0.0812723
0.0858418
0.0947271
0.106358
0.122191
0.138893
0.15458
0.168592
0.175878
0.180469
0.179881
0.133496
0.130632
0.145003
0.155621
0.174578
0.194792
0.18936
0.198357
0.224972
0.247014
0.26542
0.261667
0.232449
0.216354
0.22323
0.244616
0.283558
0.300836
0.293085
0.268754
0.172289
0.286268
0.33381
0.378539
0.439283
0.504651
0.530656
0.578161
0.636373
0.647121
0.670603
0.673076
0.658038
0.639581
0.665778
0.688122
0.698
0.711058
0.708592
0.704213
0.775642
0.907013
0.968067
1.07313
1.15093
1.22628
1.22123
1.20371
1.18492
1.19611
1.25738
1.34058
1.36262
1.34303
1.29455
1.28945
1.31447
1.35604
1.35779
1.33523
0.39551
0.586232
0.77275
0.916798
1.04319
1.18849
1.20757
1.22732
1.21803
1.22462
1.25806
1.31719
1.33931
1.33407
1.30937
1.30246
1.321
1.35136
1.35349
1.34024
0.189156
0.228048
0.346285
0.487059
0.683401
0.948641
1.09642
1.20446
1.2411
1.24832
1.26645
1.28885
1.30996
1.326
1.33002
1.33034
1.33421
1.33369
1.33068
1.33316
0.264776
0.305747
0.318602
0.321698
0.334016
0.429915
0.722001
1.03548
1.16055
1.2523
1.27533
1.25875
1.27083
1.30808
1.33894
1.34485
1.34297
1.32575
1.31758
1.32921
0.33896
0.365966
0.398494
0.392373
0.384091
0.387216
0.417581
0.565241
0.890868
1.15792
1.22453
1.22947
1.2452
1.29299
1.34812
1.35833
1.34899
1.31469
1.30713
1.32604
0.438252
0.467173
0.475849
0.448495
0.428891
0.428741
0.442268
0.460204
0.531025
0.744268
1.03464
1.18954
1.20054
1.27531
1.33679
1.34893
1.34245
1.31041
1.30778
1.3307
0.547006
0.58088
0.572779
0.519842
0.497188
0.498104
0.505434
0.517252
0.52699
0.539198
0.651077
0.956427
1.14901
1.2733
1.30679
1.33626
1.33166
1.31055
1.31513
1.34101
0.70125
0.706425
0.692155
0.636458
0.572108
0.552627
0.554599
0.562078
0.565922
0.556529
0.56019
0.626591
0.914089
1.16928
1.25724
1.3193
1.30899
1.30436
1.33305
1.34562
0.923758
0.861225
0.81389
0.739211
0.670259
0.62943
0.616447
0.618271
0.613334
0.591626
0.585992
0.585299
0.638505
0.867647
1.16391
1.30705
1.27126
1.29318
1.34845
1.34504
1.20841
1.04587
0.961744
0.880589
0.799041
0.727432
0.681295
0.668759
0.650506
0.632944
0.617536
0.607977
0.613393
0.643233
0.845056
1.1537
1.21833
1.30476
1.36148
1.34146
1.78866
1.30875
1.05365
0.97029
0.958458
0.936879
0.845312
0.74903
0.709321
0.687392
0.680574
0.676224
0.665276
0.651557
0.667521
0.790562
1.05149
1.24968
1.31473
1.32742
2.83902
2.10756
1.59321
1.23691
1.16743
1.15013
1.06015
0.934324
0.844803
0.780939
0.747214
0.749796
0.734299
0.710203
0.685511
0.687938
0.7426
0.904476
1.10164
1.26856
3.48301
3.01234
2.4198
1.89419
1.45901
1.29704
1.17236
1.05205
1.00802
0.948292
0.911889
0.889149
0.852434
0.79725
0.761273
0.731353
0.738677
0.75045
0.804892
1.04215
3.29527
3.27252
3.10324
2.70281
2.1815
1.75042
1.49702
1.2934
1.23313
1.15811
1.06728
0.997449
0.926071
0.851814
0.831787
0.815838
0.795238
0.776456
0.763682
0.812516
2.34511
3.00306
3.09791
3.05728
2.87509
2.45732
2.07463
1.73786
1.5018
1.34205
1.18414
1.10469
1.04956
0.993595
0.969801
0.941833
0.904245
0.863656
0.805528
0.803944
1.5515
2.01005
2.58409
2.95232
2.94831
2.88667
2.68942
2.36553
1.99964
1.73308
1.49782
1.3495
1.27944
1.20276
1.12503
1.04529
0.968231
0.914281
0.880452
0.853205
1.40631
1.46172
1.68669
2.17117
2.59817
2.81456
2.8084
2.75536
2.56109
2.27007
1.97349
1.68771
1.49928
1.35542
1.23693
1.16193
1.09318
1.02404
1.0114
0.973314
1.40013
1.40156
1.41467
1.50987
1.77737
2.19528
2.5482
2.70358
2.6938
2.63374
2.47091
2.20723
1.93431
1.70031
1.49932
1.40637
1.33417
1.24167
1.15651
1.0564
1.40001
1.40002
1.40021
1.40343
1.4272
1.5384
1.80345
2.17512
2.47594
2.59646
2.58683
2.5348
2.39448
2.17379
1.92547
1.70442
1.54468
1.40988
1.29198
1.15641
1.40001
1.40001
1.40001
1.40004
1.40048
1.40526
1.43401
1.55185
1.80161
2.12536
2.3834
2.50032
2.49308
2.45322
2.34682
2.15141
1.92798
1.72235
1.57847
1.39799
1.40001
1.40001
1.40001
1.40001
1.40001
1.40007
1.40069
1.40668
1.43681
1.54906
1.76905
2.06475
2.28387
2.41298
2.40979
2.38219
2.29982
2.13884
1.95567
1.67415
1.40001
1.40001
1.40001
1.40001
1.40001
1.40001
1.40001
1.40009
1.40079
1.40707
1.43448
1.53303
1.7247
1.99694
2.19749
2.32153
2.32606
2.31116
2.26189
2.04891
1.40001
1.40001
1.40001
1.40001
1.40001
1.40001
1.40001
1.40001
1.40001
1.4001
1.40077
1.40604
1.43141
1.5092
1.67745
1.91365
2.12192
2.23448
2.25201
2.22166
1.40001
1.40001
1.40001
1.40001
1.40001
1.40001
1.40001
1.40001
1.40001
1.40001
1.40001
1.40009
1.40075
1.40445
1.42557
1.48944
1.62585
1.83882
2.02224
2.16712
1.40001
1.40001
1.40001
1.40001
1.40001
1.40001
1.40001
1.40001
1.40001
1.40001
1.40001
1.40001
1.40001
1.40006
1.4006
1.40358
1.41939
1.47191
1.59115
1.9425
2.25593
3.42847
3.59809
2.9074
1.83086
1.45143
1.40263
1.40007
1.40001
1.40001
1.40001
1.40001
1.40001
1.40001
1.40001
3.26244
3.91924
3.52151
2.15175
1.4669
1.40113
1.40001
1.4
1.40001
1.40001
1.40001
1.40001
1.40001
1.40001
1.40001
4.07566
3.99534
2.76308
1.61162
1.4072
1.40007
1.40001
1.40001
1.40001
1.40001
1.40001
1.40001
1.40001
1.40001
1.40001
4.51871
3.55881
1.90796
1.42708
1.40027
1.40001
1.40001
1.40001
1.40001
1.40001
1.40001
1.40001
1.40001
1.40001
1.40001
4.61407
2.35282
1.46608
1.40071
1.40001
1.40001
1.40001
1.40001
1.40001
1.40001
1.40001
1.40001
1.40001
1.40001
1.40001
2.88564
1.50227
1.40069
1.4
1.4
1.40001
1.40001
1.40001
1.40001
1.40001
1.40001
1.40001
1.40001
1.40001
1.40001
1.54256
1.40081
1.4
1.4
1.40001
1.40001
1.40001
1.40001
1.40001
1.40001
1.40001
1.40001
1.40001
1.40001
1.40001
1.3974
1.39982
1.4
1.40001
1.40001
1.40001
1.40001
1.40001
1.40001
1.40001
1.40001
1.40001
1.40001
1.40001
1.40001
1.39996
1.40001
1.40001
1.40001
1.40001
1.40001
1.40001
1.40001
1.40001
1.40001
1.40001
1.40001
1.40001
1.40001
1.40001
1.40001
1.40001
1.40001
1.40001
1.40001
1.40001
1.40001
1.40001
1.40001
1.40001
1.40001
1.40001
1.40001
1.40001
1.40001
1.40001
1.40001
1.40001
1.40001
1.40001
1.40001
1.40001
1.40001
1.40001
1.40001
1.40001
1.40001
1.40001
1.40001
1.40001
1.40001
1.40001
1.40001
1.40001
1.40001
1.40001
1.40001
1.40001
1.40001
1.40001
1.40001
1.40001
1.40001
1.40001
1.40001
1.40001
1.40001
1.40001
1.40001
1.40001
1.40001
1.40001
1.40001
1.40001
1.40001
1.40001
1.40001
1.40001
1.40001
1.40001
1.40001
1.40001
1.40001
1.40001
1.40001
1.40001
1.40001
1.40001
1.40001
1.40001
1.40001
1.40001
1.40001
1.40001
1.40001
1.40001
1.40001
1.40001
1.40001
1.40001
1.40001
1.40001
1.40001
1.40001
1.40001
1.40001
1.40001
1.40001
1.40001
1.40001
1.40001
1.40001
1.40001
1.40001
1.40001
1.40001
1.40001
1.40001
1.40001
1.40001
1.40001
1.40001
1.40001
1.40001
1.40001
1.40001
1.40001
1.40001
1.40001
1.40001
1.40001
1.40001
1.40001
1.40001
1.40001
1.40001
1.40001
1.40001
1.40001
1.40001
1.40001
1.40001
1.40001
1.40001
1.40001
1.40001
1.40001
1.40001
1.40001
1.40001
1.40001
1.40001
1.40001
1.40001
1.40001
1.40001
1.40001
1.40001
1.40001
1.40001
1.40001
1.40001
1.40001
1.40001
1.40001
1.40001
1.40001
1.40001
1.40001
1.40001
1.40001
1.40001
1.40001
1.40001
1.40001
1.40001
1.40001
1.40001
1.40001
1.40001
1.40001
1.40001
1.40001
1.40001
1.40001
1.40001
1.40001
1.40001
1.40001
1.40001
1.40001
1.40001
1.40001
1.40001
1.40001
1.40001
1.40001
1.40001
1.40001
1.40001
1.40001
1.40001
1.40001
1.40001
1.40001
1.40001
1.40001
1.40001
1.40001
1.40001
1.40001
1.40001
1.40001
1.40001
1.40001
1.40001
1.40001
1.40001
1.40001
1.40001
1.40001
1.40001
1.40001
1.40001
1.40001
1.40001
1.40001
1.40001
1.40001
1.40001
1.40001
1.40001
1.40001
1.40001
1.40001
1.40001
1.40001
1.40001
1.40001
1.40001
1.40001
1.40001
1.40001
1.40001
1.40001
1.40001
1.40001
1.40001
1.40001
1.40001
1.40001
1.40001
1.40001
1.40001
1.40001
1.40001
1.40001
1.40001
1.40001
1.40001
1.40001
1.40001
1.40001
1.40001
1.40001
1.40001
1.40001
1.40001
1.40001
1.40001
1.40001
1.40001
1.40001
1.40001
1.40001
1.40001
1.40001
1.40001
1.40001
1.40001
1.40001
1.40001
1.40001
1.40001
1.40001
1.40001
1.40001
1.40001
1.40001
1.40001
1.40001
1.40001
1.40001
1.40001
1.40001
1.40001
1.40001
1.40001
1.40001
1.40001
1.40001
1.40001
1.40001
1.40001
1.40001
1.40001
1.40001
1.40001
1.40001
1.40001
1.40001
1.40001
1.40001
1.40001
1.40001
1.40001
1.40001
1.40001
1.40001
1.40001
1.40001
1.40001
1.40001
1.40001
1.40001
1.40001
1.40001
1.40001
1.40001
1.40001
1.40001
1.40001
1.40001
1.40001
1.40001
1.40001
1.40001
1.40001
1.40001
1.40001
1.40001
1.40001
1.40001
1.40001
1.40001
1.40001
1.40001
1.40001
1.40001
1.40001
1.40001
1.40001
1.40001
1.40001
1.40001
1.40001
1.40001
1.40001
1.40001
1.40001
1.40001
1.40001
1.40001
1.40001
1.40001
1.40001
1.40001
1.40001
1.40001
1.40001
1.40001
1.40001
1.40001
1.40001
1.40001
1.40001
1.40001
1.40001
1.40001
1.40001
1.40001
1.40001
1.40001
1.40001
1.40001
1.40001
1.40001
1.40001
1.40001
1.40001
1.40001
1.40001
1.40001
1.40001
1.40001
1.40001
1.40001
1.40001
1.40001
1.40001
1.40001
1.40001
1.40001
1.40001
1.40001
1.40001
1.40001
1.40001
1.40001
1.40001
1.40001
1.40001
1.40001
1.40001
1.40001
1.40001
1.40001
1.40001
1.40001
1.40001
1.40001
1.40001
1.40001
1.40001
1.40001
1.40001
1.40001
1.40001
1.40001
1.40001
1.40001
1.40001
1.40001
1.40001
1.40001
1.40001
1.40001
1.40001
1.40001
1.40001
1.40001
1.40001
1.40001
1.40001
1.40001
1.40001
1.40001
1.40001
1.40001
1.40001
1.40001
1.40001
1.40001
1.40001
1.40001
1.40001
1.40001
1.40001
1.40001
1.40001
1.40001
1.40001
1.40001
1.40001
1.40001
1.40001
1.40001
1.40001
1.40001
1.40001
1.40001
1.40001
1.40001
1.40001
1.40001
1.40001
1.40001
1.40001
1.40001
1.40001
1.40001
1.40001
1.40001
1.40001
1.40001
1.40001
1.40001
1.40001
1.40001
1.40001
1.40001
1.40001
1.40001
1.40001
1.40001
1.40001
1.40001
1.40001
1.40001
1.40001
1.40001
1.40001
1.40001
1.40001
1.40001
1.40001
1.40001
1.40001
1.40001
1.40001
1.40001
1.40001
1.40001
1.40001
1.40001
1.40001
1.40001
1.40001
1.40001
1.40001
1.40001
1.40001
1.40001
1.40001
1.40001
1.40001
1.40001
1.40001
1.40001
1.40001
1.40001
1.40001
1.40001
1.40001
1.40001
1.40001
1.40001
1.40001
1.40001
1.40001
1.40001
1.40001
1.40001
1.40001
1.40001
1.40001
1.40001
1.40001
1.40001
1.40001
1.40001
1.40001
1.40001
1.40001
1.40001
1.40001
1.40001
1.40001
1.40001
1.40001
1.40001
1.40001
1.40001
1.40001
1.40001
1.40001
1.40001
1.40001
1.40001
1.40001
1.40001
1.40001
1.40001
1.40001
1.40001
1.40001
1.40001
1.40001
1.40001
1.40001
1.40001
1.40001
1.40001
1.40001
1.40001
1.40001
1.40001
1.40001
1.40001
1.40001
1.40001
1.40001
1.40001
1.40001
1.40001
1.40001
1.40001
1.40001
1.40001
1.40001
1.40001
1.40001
1.40001
1.40001
1.40001
1.40001
1.40001
1.40001
1.40001
1.40001
1.40001
1.40001
1.40001
1.40001
1.40001
1.40001
1.40001
1.40001
1.40001
1.40001
1.40001
1.40001
1.40001
1.40001
1.40001
1.40001
1.40001
1.40001
1.40001
1.40001
1.40001
1.40001
1.40001
1.40001
1.40001
1.40001
1.40001
1.40001
1.40001
1.40001
1.40001
1.40001
1.40001
1.40001
1.40001
1.40001
1.40001
1.40001
1.40001
1.40001
1.40001
1.40001
1.40001
1.40001
1.40001
1.40001
1.40001
1.40001
1.40001
1.40001
1.40001
1.40001
1.40001
1.40001
1.40001
1.40001
1.40001
1.40001
1.40001
1.40001
1.40001
1.40001
1.40001
1.40001
1.40001
1.40001
1.40001
1.40001
1.40001
1.40001
1.40001
1.40001
1.40001
1.40001
1.40001
1.40001
1.40001
1.40001
1.40001
1.40001
1.40001
1.40001
1.40001
1.40001
1.40001
1.40001
1.40001
1.40001
1.40001
1.40001
1.40001
1.40001
1.40001
1.40001
1.40001
1.40001
1.40001
1.40001
1.40001
1.40001
1.40001
1.40001
1.40001
1.40001
1.40001
1.40001
1.40001
1.40001
1.40001
1.40001
1.40001
1.40001
1.40001
1.40001
1.40001
1.40001
1.40001
1.40001
1.40001
1.40001
1.40001
1.40001
1.40001
1.40001
1.40001
1.40001
1.40001
1.40001
1.40001
1.40001
1.40001
1.40001
1.40001
1.40001
1.40001
1.40001
1.40001
1.40001
1.40001
1.40001
1.40001
1.40001
1.40001
1.40001
1.40001
1.40001
1.40001
1.40001
1.40001
1.40001
1.40001
1.40001
1.40001
1.40001
1.40001
1.40001
1.40001
1.40001
1.40001
1.40001
1.40001
1.40001
1.40001
1.40001
1.40001
1.40001
1.40001
1.40001
1.40001
1.40001
1.40001
1.40001
1.40001
1.40001
1.40001
1.40001
1.40001
1.40001
1.40001
1.40001
1.40001
1.40001
1.40001
1.40001
1.40001
1.40001
1.40001
1.40001
1.40001
1.40001
1.40001
1.40001
1.40001
1.40001
1.40001
1.40001
1.40001
1.40001
1.40001
1.40001
1.40001
1.40001
1.40001
1.40001
1.40001
1.40001
1.40001
1.40001
1.40001
1.40001
1.40001
1.40001
1.40001
1.40001
1.40001
1.40001
1.40001
1.40001
1.40001
1.40001
1.40001
1.40001
1.40001
1.40001
1.40001
1.40001
1.40001
1.40001
1.40001
1.40001
1.40001
1.40001
1.40001
1.40001
1.40001
1.40001
1.40001
1.40001
1.40001
1.40001
1.39996
1.40001
1.40001
1.40001
1.40001
1.40001
1.40001
1.40001
1.40001
1.40001
1.40001
1.40001
1.40001
1.40001
1.40001
1.3974
1.39982
1.4
1.40001
1.40001
1.40001
1.40001
1.40001
1.40001
1.40001
1.40001
1.40001
1.40001
1.40001
1.40001
1.54227
1.4008
1.4
1.4
1.40001
1.40001
1.40001
1.40001
1.40001
1.40001
1.40001
1.40001
1.40001
1.40001
1.40001
2.88482
1.50217
1.40069
1.4
1.4
1.40001
1.40001
1.40001
1.40001
1.40001
1.40001
1.40001
1.40001
1.40001
1.40001
4.61364
2.35322
1.4661
1.4007
1.40001
1.40001
1.40001
1.40001
1.40001
1.40001
1.40001
1.40001
1.40001
1.40001
1.40001
4.51797
3.55808
1.90793
1.42723
1.40028
1.40001
1.40001
1.40001
1.40001
1.40001
1.40001
1.40001
1.40001
1.40001
1.40001
4.07607
3.99474
2.76386
1.61151
1.40718
1.40007
1.40001
1.40001
1.40001
1.40001
1.40001
1.40001
1.40001
1.40001
1.40001
3.2601
3.91954
3.52114
2.15238
1.467
1.40113
1.40001
1.4
1.40001
1.40001
1.40001
1.40001
1.40001
1.40001
1.40001
2.25937
3.42941
3.59691
2.90677
1.83083
1.45145
1.40263
1.40007
1.40001
1.40001
1.40001
1.40001
1.40001
1.40001
1.40001
1.77451
2.84604
3.48734
3.29631
2.34478
1.55126
1.40631
1.40013
1.40001
1.40001
1.40001
1.40001
1.40001
1.40001
1.40001
1.29421
2.10288
3.01058
3.27304
3.00424
2.0092
1.4615
1.40155
1.40002
1.40001
1.40001
1.40001
1.40001
1.40001
1.40001
1.08064
1.59043
2.40848
3.10301
3.09651
2.5838
1.6866
1.41466
1.40021
1.40001
1.40001
1.40001
1.40001
1.40001
1.40001
0.984265
1.25139
1.89981
2.69381
3.05551
2.95242
2.17095
1.50975
1.40342
1.40004
1.40001
1.40001
1.40001
1.40001
1.40001
0.949603
1.16705
1.47528
2.18811
2.87512
2.94841
2.59772
1.77658
1.42706
1.40048
1.40001
1.40001
1.40001
1.40001
1.40001
0.927668
1.14458
1.28784
1.74794
2.46597
2.88862
2.81622
2.19531
1.53825
1.40525
1.40007
1.40001
1.40001
1.40001
1.40001
0.844084
1.05899
1.17063
1.4864
2.06657
2.69335
2.80988
2.54846
1.80349
1.43402
1.40069
1.40001
1.40001
1.40001
1.40001
0.738805
0.926401
1.06424
1.32656
1.73787
2.3592
2.75556
2.70367
2.17484
1.5518
1.40666
1.40009
1.40001
1.40001
1.40001
0.703593
0.829989
0.988162
1.24654
1.52254
2.00124
2.5614
2.69389
2.47577
1.80114
1.43688
1.4008
1.40001
1.40001
1.40001
0.695152
0.77573
0.919629
1.13845
1.345
1.74285
2.27447
2.63466
2.59685
2.12607
1.54879
1.40698
1.4001
1.40001
1.40001
0.690481
0.761243
0.911821
1.0559
1.17617
1.50191
1.97025
2.47138
2.58717
2.38305
1.76908
1.43472
1.40078
1.40001
1.40001
0.679705
0.762544
0.897474
0.996361
1.1006
1.35295
1.68995
2.20765
2.534
2.49968
2.06471
1.53287
1.40602
1.40008
1.40001
0.665851
0.74181
0.857352
0.925405
1.05005
1.2835
1.49911
1.93104
2.39501
2.49263
2.28478
1.72485
1.43128
1.40074
1.40001
0.649822
0.71838
0.804129
0.858265
0.985611
1.20144
1.35764
1.6963
2.17303
2.4533
2.41248
1.99677
1.5097
1.40448
1.40007
0.665646
0.69234
0.763722
0.825085
0.96775
1.11867
1.24253
1.51097
1.92442
2.34562
2.40916
2.19635
1.67753
1.4256
1.4006
0.783752
0.688286
0.728631
0.810908
0.944608
1.03922
1.16028
1.41013
1.70605
2.15027
2.38169
2.3242
1.91274
1.48898
1.40355
1.04197
0.738681
0.736599
0.797515
0.908342
0.966298
1.08416
1.32548
1.54455
1.93009
2.29907
2.32658
2.1216
1.62577
1.41939
1.24422
0.897161
0.749319
0.783794
0.865693
0.914645
1.02267
1.23653
1.40614
1.72169
2.13797
2.31094
2.23512
1.83907
1.47202
1.30917
1.09674
0.805011
0.766911
0.8015
0.882208
1.01306
1.15938
1.2922
1.57422
1.95406
2.26071
2.25194
2.02219
1.59115
1.32684
1.26857
1.04324
0.813472
0.803683
0.855006
0.97284
1.061
1.16122
1.39734
1.67365
2.04795
2.22153
2.16701
1.94225
1.19983
1.04749
0.966037
0.875529
0.791195
0.726873
0.682622
0.663506
0.63941
0.637072
0.623986
0.606633
0.610451
0.641645
0.847516
1.148
1.2179
1.30112
1.35763
1.34132
0.924346
0.864535
0.811636
0.73257
0.67152
0.637888
0.619699
0.618372
0.611933
0.60215
0.584981
0.578651
0.629101
0.871789
1.14685
1.30047
1.26903
1.2911
1.34556
1.34473
0.703794
0.70795
0.688218
0.627048
0.569081
0.55447
0.552996
0.558716
0.562748
0.552683
0.556168
0.619579
0.894663
1.15254
1.2451
1.31919
1.3102
1.30476
1.33323
1.34497
0.547751
0.581575
0.574729
0.52591
0.504378
0.503866
0.507309
0.52217
0.532708
0.542166
0.648531
0.937289
1.14615
1.23798
1.30537
1.34349
1.34201
1.31829
1.32271
1.34197
0.439063
0.470834
0.471154