/*--------------------------------*- C++ -*----------------------------------*\
  =========                 |
  \\      /  F ield         | OpenFOAM: The Open Source CFD Toolbox
   \\    /   O peration     | Website:  https://openfoam.org
    \\  /    A nd           | Version:  7
     \\/     M anipulation  |
\*---------------------------------------------------------------------------*/
FoamFile
{
    version     2.0;
    format      ascii;
    class       volScalarField;
    location    "1.8";
    object      p;
}
// * * * * * * * * * * * * * * * * * * * * * * * * * * * * * * * * * * * * * //

dimensions      [1 -1 -2 0 0 0 0];

internalField   nonuniform List<scalar> 
3700
(
0.216872
0.275317
0.321711
0.346467
0.334768
0.333267
0.343722
0.371396
0.38868
0.405107
0.437285
0.46276
0.474856
0.471881
0.479029
0.492155
0.502703
0.502446
0.513544
0.516855
0.145169
0.112811
0.112498
0.102197
0.083074
0.0874127
0.105203
0.131014
0.14515
0.151171
0.159626
0.170616
0.166101
0.156536
0.15759
0.169071
0.183273
0.191407
0.203241
0.204023
0.137106
0.100975
0.0797773
0.0558835
0.0488896
0.0516855
0.0570813
0.0664211
0.0730658
0.078326
0.0787371
0.0793658
0.0799051
0.0834104
0.0900485
0.0998994
0.110102
0.118475
0.125762
0.129397
0.124551
0.0925294
0.072312
0.0477032
0.0430694
0.0463006
0.0539611
0.0682275
0.0797911
0.0940182
0.10846
0.113766
0.117939
0.12138
0.123855
0.128025
0.136737
0.148991
0.163435
0.186593
0.103947
0.0836637
0.0635815
0.042192
0.0410993
0.044658
0.0526602
0.0658225
0.0783379
0.0958304
0.119265
0.132687
0.147327
0.158246
0.166673
0.165369
0.166987
0.173432
0.189127
0.230249
0.0854899
0.0735107
0.0495503
0.0383492
0.0408536
0.0462187
0.0567634
0.0667298
0.0777637
0.093221
0.118935
0.13867
0.164187
0.188588
0.209755
0.226868
0.235529
0.245063
0.250465
0.283652
0.0719451
0.0574625
0.0370478
0.0372659
0.0461604
0.0622437
0.078876
0.0876966
0.0973467
0.109689
0.120745
0.137257
0.170578
0.204915
0.237821
0.274994
0.305836
0.338373
0.351361
0.392314
0.0559403
0.0426278
0.0341743
0.0374639
0.0512308
0.0761994
0.101366
0.124633
0.147096
0.167094
0.171351
0.181203
0.196896
0.227369
0.266699
0.317013
0.37272
0.429924
0.47308
0.558428
0.0392257
0.0343961
0.0357323
0.0379502
0.0518294
0.0803739
0.108427
0.14423
0.188416
0.225153
0.253417
0.281536
0.307049
0.338836
0.363226
0.400035
0.45665
0.540437
0.613211
0.751923
0.0263838
0.0299266
0.0362527
0.0388156
0.0510641
0.0806768
0.10546
0.144722
0.202808
0.262009
0.319343
0.372635
0.432145
0.484097
0.52655
0.575616
0.627605
0.705306
0.81152
0.960074
0.0190268
0.0239784
0.0337048
0.0395261
0.0572438
0.0960716
0.114751
0.144697
0.200348
0.281426
0.370023
0.455538
0.554085
0.63022
0.712354
0.795435
0.880483
0.964729
1.14261
1.12915
0.014867
0.0196438
0.0310324
0.0441328
0.0834329
0.141754
0.182971
0.238081
0.304013
0.389897
0.500003
0.604521
0.721664
0.822825
0.94181
1.07831
1.21888
1.34222
1.55165
1.50658
0.0132404
0.018705
0.0335417
0.0667336
0.133795
0.205989
0.286572
0.398471
0.534498
0.68176
0.81143
0.929596
1.05097
1.16276
1.29527
1.46838
1.66006
1.84478
2.10599
2.09068
0.0140538
0.025099
0.0471852
0.103162
0.181496
0.256136
0.373765
0.538045
0.756395
0.986327
1.16472
1.34349
1.51256
1.67939
1.87925
2.10052
2.3235
2.56829
2.79397
3.00188
0.0162242
0.0335897
0.0680412
0.127917
0.216976
0.317848
0.510186
0.759524
1.07522
1.40276
1.66571
1.91087
2.14812
2.3992
2.70333
2.98324
3.24968
3.50446
3.66624
3.78825
0.0147048
0.0402717
0.0884248
0.145037
0.304106
0.655041
1.05616
1.4819
1.93818
2.30877
2.58842
2.85503
3.13237
3.44423
3.76422
3.95122
4.06239
4.12043
4.03133
3.91256
0.00765676
0.0376298
0.134868
0.345581
0.821282
1.46164
2.05802
2.64785
3.25905
3.61599
3.79855
4.00939
4.22133
4.39423
4.48004
4.40059
4.1768
3.63609
2.77728
1.88364
0.0323567
0.151951
0.486272
1.19809
2.12464
2.88142
3.5451
4.24054
4.81967
4.86446
4.76251
4.74744
4.70126
4.52886
4.01636
3.05945
2.08564
1.32794
1.017
0.992882
0.304029
0.861327
1.98549
3.16019
4.14894
4.83946
5.44886
5.92223
5.78507
5.32915
4.88764
4.33253
3.40315
2.32879
1.42542
1.02913
0.989504
0.995007
0.997355
0.999449
2.3086
3.62267
4.84279
5.66611
6.19605
6.4427
6.60597
6.2655
4.56412
3.21868
2.37368
1.56447
1.0812
0.987514
0.992925
0.996318
0.999174
0.999973
1.00002
1.00001
6.9336
6.87285
6.81778
6.87303
6.99516
6.78685
5.98947
2.23209
0.672101
1
1
1
1
1
1
1
1
1
1
1
6.94983
6.88678
6.77564
6.70813
6.75577
5.68511
2.66556
1.02387
1
1
1
1
1
1
1
1
1
1
1
1
6.83417
6.86536
6.83869
6.66633
6.38244
3.43545
1.05564
0.998683
1
1
1
1
1
1
1
1
1
1
1
1
6.7012
6.85237
6.84258
6.63521
4.66935
1.37383
0.993993
1.00012
0.999999
1
1
1
1
1
1
1
1
1
1
1
6.56032
6.80479
6.80844
6.07389
2.64173
0.976781
1.00034
0.999994
1
1
1
1
1
1
1
1
1
1
1
1
6.4457
6.74479
6.74481
4.95306
1.45878
1
1
1
1
1
1
1
1
1
1
1
1
1
1
1
6.3915
6.67769
6.66679
3.57138
0.973119
1
1
1
1
1
1
1
1
1
1
1
1
1
1
1
6.50266
6.63065
6.03188
2.07255
1
1
1
1
1
1
1
1
1
1
1
1
1
1
1
1
7.00423
6.71882
4.91977
1.16695
1
1
1
1
1
1
1
1
1
1
1
1
1
1
1
1
7.26872
6.37272
3.49357
0.987829
1
1
1
1
1
1
1
1
1
1
1
1
1
1
1
1
7.46193
6.01066
2.3053
1
1
1
1
1
1
1
1
1
1
1
1
1
1
1
1
1
7.53289
5.36555
1.6111
1
1
1
1
1
1
1
1
1
1
1
1
1
1
1
1
1
7.57625
4.74505
1.15171
1
1
1
1
1
1
1
1
1
1
1
1
1
1
1
1
1
7.38678
3.95525
1
1
1
1
1
1
1
1
1
1
1
1
1
1
1
1
1
1
7.15125
3.17789
1
1
1
1
1
1
1
1
1
1
1
1
1
1
1
1
1
1
6.93301
2.47937
1
1
1
1
1
1
1
1
1
1
1
1
1
1
1
1
1
1
6.61692
1.94414
1
1
1
1
1
1
1
1
1
1
1
1
1
1
1
1
1
1
6.4015
1.40145
1
1
1
1
1
1
1
1
1
1
1
1
1
1
1
1
1
1
5.68497
1.00659
1
1
1
1
1
1
1
1
1
1
1
1
1
1
1
1
1
1
4.62277
1.00005
1
1
1
1
1
1
1
1
1
1
1
1
1
1
1
1
1
1
4.62282
1.00005
1
1
1
1
1
1
1
1
1
1
1
1
1
1
1
1
1
1
5.68494
1.00659
1
1
1
1
1
1
1
1
1
1
1
1
1
1
1
1
1
1
6.40148
1.40143
1
1
1
1
1
1
1
1
1
1
1
1
1
1
1
1
1
1
6.61692
1.94414
1
1
1
1
1
1
1
1
1
1
1
1
1
1
1
1
1
1
6.93304
2.47938
1
1
1
1
1
1
1
1
1
1
1
1
1
1
1
1
1
1
7.15121
3.17793
1
1
1
1
1
1
1
1
1
1
1
1
1
1
1
1
1
1
7.38679
3.95525
1
1
1
1
1
1
1
1
1
1
1
1
1
1
1
1
1
1
7.57627
4.74507
1.15171
1
1
1
1
1
1
1
1
1
1
1
1
1
1
1
1
1
7.53291
5.36556
1.61111
1
1
1
1
1
1
1
1
1
1
1
1
1
1
1
1
1
7.46194
6.01066
2.30531
1
1
1
1
1
1
1
1
1
1
1
1
1
1
1
1
1
7.26872
6.3727
3.49356
0.98783
1
1
1
1
1
1
1
1
1
1
1
1
1
1
1
1
7.00424
6.71883
4.91972
1.16693
1
1
1
1
1
1
1
1
1
1
1
1
1
1
1
1
6.50271
6.63066
6.03191
2.07253
1
1
1
1
1
1
1
1
1
1
1
1
1
1
1
1
6.3915
6.67769
6.66674
3.57136
0.973119
1
1
1
1
1
1
1
1
1
1
1
1
1
1
1
6.44569
6.74474
6.74481
4.95308
1.45875
1
1
1
1
1
1
1
1
1
1
1
1
1
1
1
6.5603
6.80478
6.80847
6.07393
2.64172
0.976782
1.00034
0.999994
1
1
1
1
1
1
1
1
1
1
1
1
6.70122
6.8524
6.8426
6.63519
4.66929
1.37382
0.993993
1.00012
0.999999
1
1
1
1
1
1
1
1
1
1
1
6.83421
6.86536
6.83869
6.66634
6.38261
3.43544
1.05564
0.998683
1
1
1
1
1
1
1
1
1
1
1
1
6.94981
6.88677
6.77562
6.70812
6.75579
5.68511
2.66558
1.02387
1
1
1
1
1
1
1
1
1
1
1
1
6.93357
6.87282
6.81775
6.87298
6.99508
6.78684
5.98961
2.23236
0.672043
1
1
1
1
1
1
1
1
1
1
1
2.3087
3.62199
4.84184
5.66635
6.19696
6.44258
6.60569
6.26535
4.56413
3.21873
2.37363
1.56441
1.08117
0.987513
0.992926
0.996318
0.999174
0.999973
1.00002
1.00001
0.304267
0.86459
1.98743
3.15795
4.14743
4.84058
5.44991
5.92226
5.78503
5.32915
4.88765
4.33251
3.40313
2.32877
1.42539
1.02912
0.989504
0.995007
0.997355
0.999448
0.031403
0.146522
0.486548
1.2012
2.12558
2.88
3.54493
4.2417
4.8212
4.86438
4.76232
4.74732
4.70119
4.52887
4.01642
3.05949
2.08565
1.32795
1.017
0.992881
0.00859298
0.0400514
0.132585
0.345063
0.81885
1.46044
2.05746
2.6478
3.25939
3.61618
3.7989
4.00981
4.22154
4.39422
4.47997
4.40053
4.17676
3.63608
2.7773
1.88367
0.0156302
0.0408318
0.0874258
0.14473
0.307457
0.654981
1.05386
1.47948
1.93649
2.30789
2.58805
2.85486
3.13211
3.44383
3.76384
3.95105
4.0624
4.12045
4.03135
3.91256
0.0163721
0.0338071
0.0679693
0.12794
0.218434
0.319335
0.511243
0.76044
1.07584
1.40325
1.66584
1.91086
2.14806
2.39909
2.70326
2.98332
3.24986
3.50463
3.66632
3.78821
0.0138539
0.0247003
0.0471729
0.102266
0.180748
0.257782
0.375769
0.539633
0.757746
0.987175
1.16539
1.34383
1.51274
1.67952
1.87935
2.10062
2.32365
2.56839
2.79406
3.0019
0.0131857
0.0183507
0.033268
0.065234
0.131898
0.206309
0.287027
0.398727
0.534859
0.681983
0.81156
0.929658
1.05096
1.16269
1.29519
1.46832
1.66007
1.84484
2.10592
2.09057
0.0149358
0.0194382
0.0307849
0.0433285
0.0818552
0.140912
0.182114
0.237592
0.303406
0.389448
0.499694
0.6045
0.721744
0.822847
0.941813
1.07831
1.21886
1.34217
1.55155
1.50643
0.0191505
0.0238118
0.0334363
0.039112
0.0564182
0.0955219
0.114365
0.144622
0.200325
0.281729
0.370475
0.455872
0.554283
0.630266
0.712327
0.795367
0.880351
0.964579
1.14248
1.12909
0.0265278
0.0297392
0.036121
0.0386235
0.0505605
0.0802634
0.10556
0.144901
0.203265
0.262388
0.319663
0.372733
0.432072
0.483954
0.526285
0.575311
0.627341
0.705171
0.811526
0.960141
0.039355
0.0343392
0.0358236
0.0379826
0.0514329
0.0802582
0.108646
0.144459
0.188871
0.225267
0.253316
0.28126
0.306523
0.33825
0.362799
0.399854
0.456713
0.540545
0.61334
0.752079
0.056254
0.0428703
0.0344697
0.0376021
0.0509714
0.076234
0.101584
0.124732
0.14711
0.166932
0.170718
0.180555
0.196725
0.227624
0.267071
0.317295
0.372902
0.430025
0.473154
0.558583
0.072554
0.0581042
0.0375447
0.0374905
0.0460783
0.0621794
0.079019
0.0877436
0.0972398
0.109443
0.120882
0.137807
0.171205
0.20538
0.238159
0.275196
0.305946
0.338447
0.351423
0.392316
0.0862936
0.0741242
0.0499199
0.0386038
0.0407571
0.0462327
0.0568794
0.0669487
0.0780124
0.0936838
0.119604
0.139238
0.164554
0.188814
0.209853
0.226886
0.235507
0.245045
0.250398
0.283448
0.103522
0.083301
0.0636054
0.0422168
0.0409827
0.044733
0.0527978
0.0661214
0.0787135
0.0964097
0.119801
0.132935
0.147365
0.158148
0.166481
0.165196
0.166782
0.173186
0.188899
0.229992
0.124311
0.0930259
0.0718233
0.0471087
0.043004
0.0465111
0.0541986
0.0685701
0.0801917
0.0943674
0.108557
0.113673
0.117683
0.12102
0.123535
0.127854
0.136606
0.14885
0.163328
0.186496
0.135151
0.098723
0.0794874
0.0565453
0.0489494
0.0517732
0.057034
0.0665717
0.0732078
0.078471
0.078448
0.0789306
0.0795436
0.0832866
0.0900597
0.0998731
0.110121
0.118589
0.125907
0.129617
0.143924
0.115301
0.110517
0.100797
0.108924
0.114621
0.109237
0.118221
0.137323
0.161394
0.169756
0.157867
0.152926
0.161003
0.167056
0.167843
0.174604
0.188623
0.21192
0.206191
0.21674
0.284642
0.320507
0.336238
0.36666
0.376892
0.354407
0.362097
0.37972
0.40619
0.436273
0.452017
0.467088
0.478389
0.486695
0.486375
0.497098
0.504741
0.515498
0.515127
0.565611
0.641942
0.703695
0.784654
0.8403
0.824559
0.782728
0.773884
0.7735
0.784246
0.784749
0.781411
0.762309
0.754142
0.76858
0.800284
0.84657
0.90688
0.902039
0.887013
0.275661
0.412003
0.545683
0.664992
0.776228
0.797652
0.790463
0.783958
0.783422
0.786264
0.783289
0.779891
0.761486
0.760337
0.782584
0.826876
0.87878
0.902289
0.89542
0.881398
0.134343
0.162418
0.240245
0.343601
0.502189
0.665811
0.723105
0.744282
0.7955
0.792864
0.785353
0.780561
0.756716
0.751557
0.773401
0.822432
0.882682
0.922657
0.908139
0.888093
0.190673
0.217443
0.223673
0.231966
0.247031
0.320893
0.468691
0.616428
0.735437
0.767744
0.784758
0.777217
0.749674
0.745815
0.765986
0.811609
0.882379
0.926106
0.907755
0.88723
0.244123
0.262699
0.276872
0.280348
0.287064
0.290632
0.293655
0.331676
0.482853
0.68526
0.761126
0.753645
0.745815
0.744351
0.754354
0.797067
0.879096
0.92094
0.903727
0.885088
0.309395
0.330995
0.338777
0.322917
0.312461
0.320128
0.322853
0.316123
0.325204
0.433721
0.658468
0.7158
0.742826
0.741536
0.747704
0.795555
0.876325
0.911496
0.897141
0.88208
0.390324
0.413368
0.40133
0.359789
0.353964
0.362523
0.35975
0.350549
0.34767
0.343537
0.414971
0.608117
0.720777
0.720201
0.739873
0.794962
0.866284
0.898772
0.888579
0.87775
0.515351
0.503016
0.486473
0.433922
0.392628
0.399206
0.397843
0.380548
0.369463
0.356548
0.343266
0.421762
0.598539
0.697511
0.751063
0.820468
0.868468
0.882561
0.874926
0.870255
0.673951
0.616402
0.572354
0.500718
0.445162
0.457748
0.448683
0.421449
0.39694
0.3755
0.355635
0.352057
0.415362
0.59699
0.730703
0.802886
0.86081
0.873543
0.863175
0.859572
0.85566
0.756681
0.696421
0.613747
0.52296
0.505096
0.485217
0.457256
0.425033
0.407871
0.381973
0.364319
0.356419
0.409353
0.553262
0.699551
0.817269
0.866677
0.856646
0.851302
1.26947
0.911893
0.816879
0.749098
0.67553
0.613702
0.553727
0.485283
0.453962
0.446995
0.431548
0.387952
0.375089
0.380841
0.401902
0.460031
0.572473
0.719069
0.799778
0.84228
2.05664
1.48349
1.11309
0.949864
0.880862
0.81188
0.728439
0.622967
0.53375
0.497711
0.46662
0.433326
0.407152
0.403447
0.415811
0.446035
0.497912
0.596815
0.701422
0.812646
2.50138
2.18374
1.71082
1.33446
1.08918
0.90863
0.821108
0.771382
0.711362
0.638374
0.561355
0.480531
0.446584
0.448512
0.457837
0.475754
0.5191
0.60631
0.707451
0.823425
2.36986
2.35198
2.23482
1.93471
1.58212
1.22445
1.02059
0.937914
0.834995
0.74879
0.698196
0.625024
0.545367
0.514688
0.500384
0.498784
0.52188
0.594832
0.700408
0.833535
1.68412
2.14608
2.22308
2.19185
2.05102
1.76986
1.4573
1.21701
0.980837
0.829509
0.792118
0.732423
0.648624
0.593904
0.592663
0.601661
0.622079
0.660711
0.723944
0.849698
1.10555
1.44024
1.85893
2.1107
2.10201
2.04901
1.88539
1.63892
1.39388
1.15143
0.97187
0.860635
0.757049
0.716453
0.721789
0.736465
0.76563
0.809452
0.857226
0.934244
1.00436
1.04564
1.21205
1.55441
1.86703
1.98781
1.96276
1.88731
1.75112
1.55136
1.32685
1.16209
1.02768
0.902452
0.861919
0.865274
0.887241
0.933158
0.98433
1.01329
1.00009
1.00113
1.01133
1.0805
1.27557
1.55648
1.79163
1.83699
1.79867
1.72223
1.61841
1.48058
1.34735
1.21735
1.12243
1.08974
1.09035
1.09572
1.09348
1.05107
1
1.00001
1.00018
1.00239
1.02072
1.09727
1.27154
1.48735
1.64476
1.65915
1.61658
1.54999
1.4712
1.3861
1.30509
1.24161
1.19339
1.1482
1.10102
1.03956
1
1
1
1.00002
1.00038
1.00338
1.02316
1.08303
1.21081
1.34818
1.44205
1.45573
1.43231
1.38213
1.3162
1.24868
1.18704
1.12824
1.07091
1.01754
1
1
1
1
1
1.00004
1.00042
1.00291
1.01544
1.04901
1.11284
1.17352
1.2182
1.2185
1.19985
1.16025
1.10932
1.05911
1.02128
1.00277
1
1
1
1
1
1
1
1.00003
1.00024
1.00135
1.00559
1.01504
1.02874
1.03819
1.03829
1.03267
1.02068
1.00852
1.00185
1.00012
1
1
1
1
1
1
1
1
1
1.00001
1.00006
1.00025
1.00069
1.00124
1.00142
1.00128
1.00081
1.00028
1.00004
1
1
1
1
1
1
1
1
1
1
1
1
1
1.00001
1.00001
1.00001
1.00001
1.00001
1
1
1
1
1
1
1
1
1
1
1
1
1
1
1
1
1
1
1
1
1
1
1
1.62728
2.46422
2.58394
2.08352
1.30916
1.03706
1.0019
1.00005
1
1
1
1
1
1
1
2.34839
2.81932
2.52693
1.54085
1.04817
1.0008
1
1
1
1
1
1
1
1
1
2.93742
2.87273
1.98081
1.15147
1.00514
1.00005
1
1
1
1
1
1
1
1
1
3.25408
2.55531
1.36352
1.01938
1.00019
1
1
1
1
1
1
1
1
1
1
3.32469
1.68534
1.04727
1.0005
1
1
1
1
1
1
1
1
1
1
1
2.07187
1.07383
1.00049
0.999999
1
1
1
1
1
1
1
1
1
1
1
1.10196
1.00058
0.999997
1
1
1
1
1
1
1
1
1
1
1
1
0.998132
0.999864
0.999996
1
1
1
1
1
1
1
1
1
1
1
1
0.999967
1
1
1
1
1
1
1
1
1
1
1
1
1
1
1
1
1
1
1
1
1
1
1
1
1
1
1
1
1
1
1
1
1
1
1
1
1
1
1
1
1
1
1
1
1
1
1
1
1
1
1
1
1
1
1
1
1
1
1
1
1
1
1
1
1
1
1
1
1
1
1
1
1
1
1
1
1
1
1
1
1
1
1
1
1
1
1
1
1
1
1
1
1
1
1
1
1
1
1
1
1
1
1
1
1
1
1
1
1
1
1
1
1
1
1
1
1
1
1
1
1
1
1
1
1
1
1
1
1
1
1
1
1
1
1
1
1
1
1
1
1
1
1
1
1
1
1
1
1
1
1
1
1
1
1
1
1
1
1
1
1
1
1
1
1
1
1
1
1
1
1
1
1
1
1
1
1
1
1
1
1
1
1
1
1
1
1
1
1
1
1
1
1
1
1
1
1
1
1
1
1
1
1
1
1
1
1
1
1
1
1
1
1
1
1
1
1
1
1
1
1
1
1
1
1
1
1
1
1
1
1
1
1
1
1
1
1
1
1
1
1
1
1
1
1
1
1
1
1
1
1
1
1
1
1
1
1
1
1
1
1
1
1
1
1
1
1
1
1
1
1
1
1
1
1
1
1
1
1
1
1
1
1
1
1
1
1
1
1
1
1
1
1
1
1
1
1
1
1
1
1
1
1
1
1
1
1
1
1
1
1
1
1
1
1
1
1
1
1
1
1
1
1
1
1
1
1
1
1
1
1
1
1
1
1
1
1
1
1
1
1
1
1
1
1
1
1
1
1
1
1
1
1
1
1
1
1
1
1
1
1
1
1
1
1
1
1
1
1
1
1
1
1
1
1
1
1
1
1
1
1
1
1
1
1
1
1
1
1
1
1
1
1
1
1
1
1
1
1
1
1
1
1
1
1
1
1
1
1
1
1
1
1
1
1
1
1
1
1
1
1
1
1
1
1
1
1
1
1
1
1
1
1
1
1
1
1
1
1
1
1
1
1
1
1
1
1
1
1
1
1
1
1
1
1
1
1
1
1
1
1
1
1
1
1
1
1
1
1
1
1
1
1
1
1
1
1
1
1
1
1
1
1
1
1
1
1
1
1
1
1
1
1
1
1
1
1
1
1
1
1
1
1
1
1
1
1
1
1
1
1
1
1
1
1
1
1
1
1
1
1
1
1
1
1
1
1
1
1
1
1
1
1
1
1
1
1
1
1
1
1
1
1
1
1
1
1
1
1
1
1
1
1
1
1
1
1
1
1
1
1
1
1
1
1
1
1
1
1
1
1
1
1
1
1
1
1
1
1
1
1
1
1
1
1
1
1
1
1
1
1
1
1
1
1
1
1
1
1
1
1
1
1
1
1
1
1
1
1
1
1
1
1
1
1
1
1
1
1
1
1
1
1
1
1
1
1
1
1
1
1
1
1
1
1
1
1
1
1
1
1
1
1
1
1
1
1
1
1
1
1
1
1
1
1
1
1
1
1
1
1
1
1
1
1
1
1
1
1
1
1
1
1
1
1
1
1
1
1
1
1
1
1
1
1
1
1
1
1
1
1
1
1
1
1
1
1
1
1
1
1
1
1
1
1
1
1
1
1
1
1
1
1
1
1
1
1
1
1
1
1
1
1
1
1
1
1
1
1
1
1
1
1
1
1
1
1
1
1
1
1
1
1
1
1
1
1
1
1
1
1
1
1
1
1
1
1
1
1
1
1
1
1
1
1
1
1
1
1
1
1
1
1
1
1
1
1
1
1
1
1
1
1
1
1
1
1
1
1
1
1
1
1
1
1
1
1
1
1
1
1
1
1
1
1
1
1
1
1
1
1
1
1
1
1
1
1
1
1
1
1
1
1
1
1
1
1
1
1
1
1
1
1
1
1
1
1
1
1
1
1
1
1
1
0.999967
1
1
1
1
1
1
1
1
1
1
1
1
1
1
0.998131
0.999864
0.999996
1
1
1
1
1
1
1
1
1
1
1
1
1.10197
1.00058
0.999997
1
1
1
1
1
1
1
1
1
1
1
1
2.07185
1.07382
1.00049
0.999999
1
1
1
1
1
1
1
1
1
1
1
3.32464
1.68532
1.04727
1.0005
1
1
1
1
1
1
1
1
1
1
1
3.25403
2.55526
1.3635
1.01938
1.00019
1
1
1
1
1
1
1
1
1
1
2.93737
2.87268
1.98079
1.15147
1.00514
1.00005
1
1
1
1
1
1
1
1
1
2.3483
2.81931
2.52694
1.54085
1.04817
1.0008
1
1
1
1
1
1
1
1
1
1.62731
2.46429
2.58397
2.0835
1.30914
1.03706
1.0019
1.00005
1
1
1
1
1
1
1
1.26909
2.0564
2.50137
2.36997
1.68423
1.10555
1.00436
1.00009
1
1
1
1
1
1
1
0.912627
1.48449
2.18379
2.35191
2.14596
1.44031
1.04566
1.00113
1.00001
1
1
1
1
1
1
0.816941
1.11408
1.71064
2.235
2.22312
1.85886
1.21203
1.01133
1.00018
1
1
1
1
1
1
0.747827
0.948702
1.33444
1.93486
2.19201
2.11067
1.55427
1.08046
1.00239
1.00002
1
1
1
1
1
0.674497
0.880083
1.08955
1.58239
2.05075
2.10194
1.8669
1.27545
1.02071
1.00038
1
1
1
1
1
0.613857
0.811812
0.908561
1.2249
1.76992
2.04903
1.98779
1.55641
1.09724
1.00338
1.00004
1
1
1
1
0.554635
0.728393
0.819787
1.02082
1.45846
1.88543
1.96276
1.79163
1.27156
1.02316
1.00042
1
1
1
1
0.485273
0.623272
0.771943
0.937972
1.21745
1.63939
1.8874
1.83703
1.48739
1.08304
1.00291
1.00003
1
1
1
0.453877
0.537218
0.712058
0.834204
0.980224
1.39404
1.75115
1.79869
1.6448
1.21083
1.01544
1.00024
1
1
1
0.445672
0.497834
0.639684
0.748934
0.828562
1.15157
1.55117
1.72221
1.65915
1.34819
1.04901
1.00135
1.00001
1
1
0.429759
0.463788
0.562895
0.699152
0.791649
0.972109
1.32679
1.61838
1.61657
1.44204
1.11283
1.00559
1.00006
1
1
0.386602
0.430052
0.481387
0.627744
0.732378
0.859336
1.16207
1.4806
1.54998
1.45572
1.17351
1.01504
1.00025
1
1
0.374693
0.40659
0.445348
0.548563
0.649259
0.754889
1.02739
1.34724
1.47119
1.4323
1.21819
1.02874
1.00069
1.00001
1
0.380914
0.402875
0.446538
0.515122
0.595192
0.715214
0.902611
1.21743
1.38611
1.38213
1.21849
1.03818
1.00124
1.00001
1
0.402177
0.414955
0.455071
0.499885
0.594595
0.720807
0.861795
1.12254
1.30511
1.3162
1.19984
1.03829
1.00142
1.00001
1
0.46222
0.445582
0.47294
0.498578
0.60452
0.735851
0.865016
1.08967
1.24159
1.24866
1.16024
1.03267
1.00128
1.00001
1
0.575415
0.499334
0.517302
0.521888
0.625095
0.765527
0.886763
1.09008
1.19332
1.187
1.10931
1.02068
1.00081
1.00001
1
0.719915
0.599882
0.606109
0.595116
0.66272
0.809649
0.932411
1.09533
1.14809
1.12819
1.05911
1.00852
1.00028
1
1
0.797428
0.703917
0.709274
0.700325
0.72462
0.857044
0.983373
1.0931
1.1009
1.07088
1.02129
1.00186
1.00004
1
1
0.84128
0.81309
0.824546
0.833903
0.84935
0.93349
1.01266
1.05089
1.03947
1.01753
1.00277
1.00012
1
1
1
0.855638
0.755917
0.696278
0.613221
0.523033
0.505648
0.485865
0.457376
0.4243
0.407252
0.381332
0.363182
0.356487
0.411696
0.553033
0.703139
0.818233
0.869075
0.859858
0.852181
0.673812
0.615693
0.572199
0.500398
0.445943
0.458451
0.449227
0.420857
0.39648
0.375248
0.354707
0.351583
0.415666
0.599468
0.733667
0.802945
0.862691
0.876981
0.86497
0.858899
0.515195
0.502798
0.486561
0.433976
0.392802
0.399753
0.39829
0.379766
0.368376
0.355731
0.343349
0.419908
0.601075
0.701615
0.754499
0.82018
0.869975
0.87928
0.870933
0.867496
0.39028
0.413175
0.401464
0.360481
0.354631
0.362603
0.359918
0.34951
0.346858
0.343892
0.415916
0.610444
0.720766
0.720247
0.739971
0.791571
0.860492
0.891895
0.884465
0.876115
0.309264
0.33027
0.339558
0.323673
0.313065
0.320887
0.322275
0.31505
0.324589
0.436342
0.662874
0.721171
0.741722
0.737781
0.743037
0.787165
0.867407
0.908474
0.895287
0.881624
0.244151
0.261875
0.276884
0.281089
0.287827
0.29128
0.293555
0.330803
0.484949
0.685167
0.762537
0.755677
0.745826
0.742428
0.751661
0.79616
0.88
0.9202
0.903568
0.885752
0.190734
0.217169
0.223594
0.2325
0.247417
0.321107
0.468481
0.615389
0.736857
0.765118
0.78369
0.776506
0.75157
0.748078
0.767029
0.812034
0.884656
0.92844
0.910004
0.888786
0.134394
0.162939
0.240994
0.343679
0.501189
0.665689
0.723367
0.744291
0.794939
0.791581
0.783725
0.779409
0.757437
0.753828
0.775798
0.82459
0.886337
0.928257
0.912431
0.889736
0.272161
0.412891
0.546952
0.665324
0.776537
0.797607
0.789553
0.782865
0.781681
0.782288
0.780235
0.779651
0.762965
0.762027
0.784203
0.829293
0.881447
0.907787
0.898307
0.881708
0.564867
0.642293
0.703822
0.784697
0.840609
0.824449
0.793588
0.786763
0.783089
0.783117
0.783312
0.781534
0.763678
0.765385
0.788189
0.828528
0.871238
0.911022
0.903005
0.887228
)
;

boundaryField
{
    inlet
    {
        type            fixedValue;
        value           uniform 1;
    }
    outlet
    {
        type            zeroGradient;
    }
    airfoil
    {
        type            zeroGradient;
    }
    top
    {
        type            symmetryPlane;
    }
    bottom
    {
        type            symmetryPlane;
    }
    defaultFaces
    {
        type            empty;
    }
}


// ************************************************************************* //
