/*--------------------------------*- C++ -*----------------------------------*\
  =========                 |
  \\      /  F ield         | OpenFOAM: The Open Source CFD Toolbox
   \\    /   O peration     | Website:  https://openfoam.org
    \\  /    A nd           | Version:  7
     \\/     M anipulation  |
\*---------------------------------------------------------------------------*/
FoamFile
{
    version     2.0;
    format      ascii;
    class       volScalarField;
    location    "1.8";
    object      T;
}
// * * * * * * * * * * * * * * * * * * * * * * * * * * * * * * * * * * * * * //

dimensions      [0 0 0 1 0 0 0];

internalField   nonuniform List<scalar> 
3700
(
100.77
100.857
100.923
100.911
100.859
100.846
100.904
101
101.076
101.124
101.158
101.159
101.15
101.121
101.086
101.088
101.089
101.081
101.075
101.07
100.361
100.294
100.321
100.31
100.184
100.22
100.429
100.57
100.563
100.537
100.573
100.638
100.625
100.526
100.439
100.456
100.459
100.436
100.446
100.443
100.368
100.242
100.133
100.001
99.9567
99.9681
99.9936
100.021
100.025
100.019
100.003
99.9885
99.9768
99.9814
99.9913
100.007
100.019
100.025
100.029
100.026
100.354
100.223
100.093
99.9347
99.8921
99.9108
99.9586
100.021
100.043
100.063
100.079
100.07
100.063
100.052
100.039
100.035
100.041
100.054
100.067
100.092
100.252
100.153
100.025
99.8685
99.8538
99.8775
99.9257
99.9786
100.018
100.065
100.1
100.102
100.115
100.12
100.117
100.098
100.076
100.073
100.085
100.132
100.117
100.064
99.928
99.8263
99.8424
99.8705
99.9183
99.9632
99.9955
100.04
100.086
100.106
100.13
100.15
100.162
100.17
100.167
100.161
100.152
100.166
100.025
99.9667
99.8327
99.8154
99.8543
99.9259
99.9685
99.9783
100
100.04
100.069
100.09
100.125
100.152
100.177
100.205
100.222
100.233
100.233
100.251
99.9335
99.8721
99.8108
99.8268
99.9194
100.02
100.073
100.095
100.109
100.127
100.117
100.123
100.13
100.149
100.178
100.218
100.257
100.284
100.296
100.331
99.8166
99.807
99.831
99.8545
99.9591
100.073
100.13
100.175
100.206
100.223
100.229
100.235
100.243
100.248
100.248
100.258
100.286
100.327
100.351
100.396
99.6951
99.7769
99.8619
99.9006
100.022
100.132
100.154
100.203
100.247
100.274
100.297
100.312
100.333
100.338
100.344
100.352
100.363
100.385
100.414
100.453
99.6088
99.7432
99.895
99.9767
100.124
100.194
100.192
100.215
100.256
100.296
100.329
100.356
100.388
100.399
100.412
100.425
100.441
100.46
100.5
100.495
99.5506
99.7212
99.9074
100.032
100.176
100.236
100.251
100.287
100.326
100.36
100.387
100.409
100.434
100.45
100.47
100.493
100.516
100.539
100.58
100.571
99.5301
99.7528
99.9197
100.08
100.218
100.286
100.333
100.386
100.431
100.472
100.49
100.506
100.518
100.528
100.543
100.564
100.591
100.619
100.657
100.656
99.6084
99.8348
99.9394
100.145
100.255
100.319
100.385
100.449
100.507
100.546
100.561
100.58
100.596
100.615
100.638
100.661
100.682
100.705
100.724
100.736
99.7294
99.8316
99.9869
100.169
100.284
100.358
100.446
100.514
100.571
100.608
100.628
100.648
100.671
100.699
100.73
100.753
100.771
100.783
100.78
100.775
99.7262
99.8378
100.032
100.169
100.356
100.537
100.616
100.666
100.7
100.714
100.726
100.742
100.765
100.793
100.813
100.822
100.819
100.813
100.788
100.747
99.4251
99.7769
100.14
100.401
100.595
100.693
100.741
100.778
100.801
100.812
100.82
100.834
100.851
100.856
100.855
100.843
100.79
100.675
100.513
100.276
99.5067
100.116
100.465
100.662
100.769
100.81
100.841
100.864
100.876
100.882
100.881
100.882
100.881
100.857
100.77
100.619
100.356
100.1
100.005
99.9978
100.119
100.52
100.738
100.832
100.882
100.905
100.925
100.925
100.92
100.909
100.895
100.841
100.726
100.47
100.147
100.01
99.9967
99.9985
99.9992
99.9998
100.693
100.833
100.909
100.944
100.961
100.957
100.956
100.931
100.849
100.768
100.58
100.235
100.03
99.9958
99.9978
99.9989
99.9998
100
100
100
100.995
100.992
100.989
100.986
100.981
100.957
100.887
100.441
99.8577
100
100
100
100
100
100
100
100
100
100
100
100.997
100.994
100.986
100.973
100.956
100.858
100.502
100.017
100
100
100
100
100
100
100
100
100
100
100
100
100.994
100.994
100.988
100.964
100.916
100.637
100.044
99.9991
100
100
100
100
100
100
100
100
100
100
100
100
100.989
100.994
100.988
100.95
100.776
100.213
99.9967
100
100
100
100
100
100
100
100
100
100
100
100
100
100.984
100.994
100.986
100.916
100.552
99.9924
100
100
100
100
100
100
100
100
100
100
100
100
100
100
100.979
100.99
100.984
100.837
100.274
100
100
100
100
100
100
100
100
100
100
100
100
100
100
100
100.976
100.983
100.973
100.703
99.9926
100
100
100
100
100
100
100
100
100
100
100
100
100
100
100
100.98
100.973
100.914
100.475
100
100
100
100
100
100
100
100
100
100
100
100
100
100
100
100
101.002
100.969
100.818
100.126
100
100
100
100
100
100
100
100
100
100
100
100
100
100
100
100
101.013
100.94
100.685
99.9964
100
100
100
100
100
100
100
100
100
100
100
100
100
100
100
100
101.023
100.906
100.506
100
100
100
100
100
100
100
100
100
100
100
100
100
100
100
100
100
101.028
100.852
100.32
100
100
100
100
100
100
100
100
100
100
100
100
100
100
100
100
100
101.032
100.797
100.105
100
100
100
100
100
100
100
100
100
100
100
100
100
100
100
100
100
101.023
100.73
100
100
100
100
100
100
100
100
100
100
100
100
100
100
100
100
100
100
101.006
100.661
100
100
100
100
100
100
100
100
100
100
100
100
100
100
100
100
100
100
100.988
100.558
100
100
100
100
100
100
100
100
100
100
100
100
100
100
100
100
100
100
100.96
100.455
100
100
100
100
100
100
100
100
100
100
100
100
100
100
100
100
100
100
100.922
100.257
100
100
100
100
100
100
100
100
100
100
100
100
100
100
100
100
100
100
100.855
100.006
100
100
100
100
100
100
100
100
100
100
100
100
100
100
100
100
100
100
100.804
100
100
100
100
100
100
100
100
100
100
100
100
100
100
100
100
100
100
100
100.804
100
100
100
100
100
100
100
100
100
100
100
100
100
100
100
100
100
100
100
100.855
100.006
100
100
100
100
100
100
100
100
100
100
100
100
100
100
100
100
100
100
100.922
100.257
100
100
100
100
100
100
100
100
100
100
100
100
100
100
100
100
100
100
100.96
100.455
100
100
100
100
100
100
100
100
100
100
100
100
100
100
100
100
100
100
100.988
100.558
100
100
100
100
100
100
100
100
100
100
100
100
100
100
100
100
100
100
101.006
100.661
100
100
100
100
100
100
100
100
100
100
100
100
100
100
100
100
100
100
101.023
100.73
100
100
100
100
100
100
100
100
100
100
100
100
100
100
100
100
100
100
101.032
100.797
100.105
100
100
100
100
100
100
100
100
100
100
100
100
100
100
100
100
100
101.028
100.852
100.32
100
100
100
100
100
100
100
100
100
100
100
100
100
100
100
100
100
101.023
100.906
100.506
100
100
100
100
100
100
100
100
100
100
100
100
100
100
100
100
100
101.013
100.94
100.685
99.9964
100
100
100
100
100
100
100
100
100
100
100
100
100
100
100
100
101.002
100.969
100.818
100.126
100
100
100
100
100
100
100
100
100
100
100
100
100
100
100
100
100.98
100.973
100.914
100.475
100
100
100
100
100
100
100
100
100
100
100
100
100
100
100
100
100.976
100.983
100.973
100.703
99.9926
100
100
100
100
100
100
100
100
100
100
100
100
100
100
100
100.979
100.99
100.984
100.837
100.274
100
100
100
100
100
100
100
100
100
100
100
100
100
100
100
100.984
100.994
100.986
100.916
100.552
99.9924
100
100
100
100
100
100
100
100
100
100
100
100
100
100
100.989
100.994
100.988
100.95
100.776
100.213
99.9967
100
100
100
100
100
100
100
100
100
100
100
100
100
100.994
100.994
100.988
100.964
100.916
100.637
100.044
99.9991
100
100
100
100
100
100
100
100
100
100
100
100
100.997
100.994
100.986
100.973
100.956
100.858
100.502
100.017
100
100
100
100
100
100
100
100
100
100
100
100
100.995
100.992
100.989
100.986
100.981
100.957
100.887
100.441
99.8577
100
100
100
100
100
100
100
100
100
100
100
100.693
100.833
100.909
100.944
100.961
100.957
100.956
100.931
100.849
100.768
100.58
100.235
100.03
99.9958
99.9978
99.9989
99.9998
100
100
100
100.119
100.521
100.739
100.832
100.882
100.905
100.925
100.925
100.92
100.909
100.895
100.841
100.726
100.47
100.147
100.01
99.9967
99.9985
99.9992
99.9998
99.4937
100.102
100.464
100.662
100.769
100.81
100.841
100.864
100.876
100.882
100.881
100.882
100.881
100.857
100.77
100.619
100.356
100.1
100.005
99.9978
99.4688
99.7777
100.134
100.402
100.595
100.693
100.741
100.778
100.801
100.812
100.82
100.834
100.851
100.856
100.855
100.843
100.79
100.675
100.513
100.276
99.7344
99.8315
100.026
100.169
100.361
100.537
100.615
100.665
100.7
100.714
100.725
100.742
100.765
100.793
100.813
100.822
100.819
100.813
100.788
100.747
99.7303
99.8322
99.9845
100.169
100.287
100.359
100.447
100.514
100.571
100.608
100.628
100.648
100.671
100.699
100.73
100.753
100.771
100.783
100.78
100.775
99.5963
99.8338
99.9369
100.14
100.255
100.321
100.387
100.45
100.508
100.547
100.562
100.58
100.596
100.615
100.638
100.661
100.682
100.705
100.724
100.736
99.5265
99.7459
99.9152
100.071
100.216
100.288
100.334
100.386
100.431
100.473
100.49
100.506
100.518
100.528
100.543
100.564
100.591
100.619
100.657
100.656
99.5504
99.7211
99.9039
100.024
100.174
100.236
100.252
100.289
100.327
100.361
100.387
100.409
100.434
100.45
100.47
100.493
100.516
100.539
100.58
100.571
99.6101
99.745
99.8935
99.9694
100.119
100.193
100.192
100.216
100.256
100.297
100.33
100.356
100.388
100.398
100.412
100.425
100.441
100.46
100.5
100.495
99.697
99.7776
99.8618
99.896
100.014
100.127
100.153
100.204
100.248
100.275
100.297
100.311
100.333
100.338
100.344
100.352
100.363
100.385
100.414
100.453
99.8184
99.8081
99.8333
99.8542
99.9552
100.071
100.13
100.175
100.206
100.222
100.229
100.234
100.242
100.247
100.248
100.258
100.286
100.327
100.351
100.396
99.9365
99.8754
99.8145
99.8278
99.9184
100.02
100.073
100.095
100.108
100.126
100.116
100.122
100.13
100.149
100.179
100.219
100.257
100.284
100.296
100.331
100.031
99.972
99.8372
99.8176
99.8548
99.9268
99.9702
99.9792
100.001
100.041
100.07
100.091
100.126
100.153
100.178
100.206
100.223
100.233
100.233
100.251
100.125
100.07
99.9309
99.8286
99.8426
99.872
99.9202
99.9649
99.9966
100.041
100.088
100.107
100.131
100.151
100.162
100.17
100.167
100.161
100.151
100.166
100.257
100.156
100.027
99.8696
99.854
99.879
99.9275
99.9806
100.02
100.067
100.101
100.103
100.116
100.12
100.117
100.098
100.075
100.072
100.084
100.132
100.357
100.228
100.093
99.931
99.893
99.9134
99.961
100.023
100.044
100.063
100.079
100.07
100.062
100.05
100.037
100.034
100.041
100.054
100.067
100.092
100.367
100.24
100.133
100.004
99.9558
99.9688
99.9932
100.022
100.025
100.02
100.001
99.9865
99.9756
99.9809
99.9915
100.007
100.019
100.026
100.03
100.027
100.365
100.317
100.291
100.282
100.411
100.454
100.393
100.389
100.519
100.657
100.667
100.589
100.513
100.53
100.516
100.439
100.415
100.435
100.478
100.452
100.779
100.89
100.892
100.882
100.917
100.941
100.919
100.943
101.055
101.161
101.173
101.157
101.136
101.115
101.1
101.085
101.084
101.084
101.079
101.071
101.055
101.035
101.019
100.992
100.962
100.93
100.888
100.845
100.827
100.829
100.829
100.805
100.693
100.466
100.232
100.082
100.013
99.9935
99.975
99.9697
100.562
100.638
100.716
100.738
100.756
100.773
100.769
100.749
100.747
100.761
100.782
100.771
100.686
100.499
100.29
100.132
100.037
99.9931
99.9712
99.9676
100.023
100.062
100.188
100.295
100.395
100.489
100.536
100.557
100.585
100.619
100.676
100.691
100.651
100.531
100.373
100.21
100.078
100.008
99.9739
99.969
100.082
100.094
100.09
100.089
100.098
100.182
100.301
100.383
100.439
100.483
100.551
100.596
100.585
100.528
100.417
100.268
100.122
100.023
99.973
99.9672
100.136
100.14
100.137
100.128
100.126
100.128
100.133
100.176
100.293
100.395
100.458
100.508
100.511
100.491
100.415
100.286
100.146
100.036
99.9727
99.9646
100.184
100.187
100.183
100.162
100.148
100.155
100.157
100.152
100.159
100.249
100.374
100.438
100.449
100.435
100.384
100.28
100.152
100.042
99.9736
99.9626
100.235
100.238
100.224
100.189
100.185
100.191
100.188
100.177
100.166
100.158
100.217
100.352
100.392
100.374
100.334
100.254
100.143
100.042
99.9746
99.961
100.3
100.285
100.274
100.245
100.217
100.219
100.214
100.195
100.179
100.157
100.142
100.203
100.31
100.32
100.295
100.231
100.132
100.038
99.9735
99.959
100.364
100.34
100.32
100.288
100.255
100.256
100.244
100.218
100.193
100.167
100.141
100.128
100.167
100.262
100.253
100.2
100.119
100.036
99.9727
99.9559
100.427
100.397
100.373
100.339
100.298
100.28
100.259
100.235
100.207
100.185
100.153
100.129
100.104
100.123
100.158
100.141
100.098
100.033
99.9747
99.9532
100.533
100.439
100.404
100.378
100.35
100.321
100.284
100.241
100.217
100.202
100.177
100.133
100.106
100.078
100.038
99.9846
99.977
99.9729
99.9578
99.9487
100.621
100.545
100.471
100.42
100.394
100.369
100.336
100.294
100.251
100.217
100.18
100.144
100.108
100.065
100.015
99.9428
99.9009
99.9077
99.9184
99.9383
100.609
100.589
100.54
100.477
100.422
100.369
100.338
100.322
100.299
100.26
100.211
100.155
100.106
100.064
100.012
99.9362
99.8971
99.9016
99.9147
99.942
100.489
100.547
100.541
100.516
100.474
100.411
100.362
100.334
100.299
100.262
100.23
100.184
100.125
100.069
100.003
99.9206
99.8858
99.8898
99.9066
99.9449
100.251
100.376
100.446
100.482
100.473
100.447
100.404
100.356
100.298
100.245
100.216
100.174
100.123
100.069
100.008
99.9466
99.9136
99.9091
99.9149
99.9505
100.042
100.147
100.257
100.336
100.389
100.41
100.398
100.37
100.331
100.276
100.219
100.166
100.113
100.067
100.02
99.9726
99.9528
99.9534
99.9584
99.9788
100.002
100.015
100.067
100.156
100.234
100.286
100.326
100.328
100.317
100.288
100.241
100.19
100.137
100.082
100.035
99.9956
99.9855
99.9885
99.9964
100.003
100
100
100.004
100.025
100.08
100.147
100.2
100.237
100.248
100.244
100.228
100.197
100.16
100.117
100.075
100.046
100.034
100.03
100.026
100.014
100
100
100
100.001
100.006
100.03
100.075
100.126
100.16
100.176
100.172
100.161
100.142
100.117
100.091
100.069
100.053
100.04
100.028
100.011
100
100
100
100
100
100.001
100.007
100.025
100.059
100.092
100.112
100.113
100.108
100.098
100.082
100.066
100.05
100.035
100.02
100.005
100
100
100
100
100
100
100
100.001
100.005
100.015
100.033
100.048
100.057
100.057
100.053
100.043
100.03
100.017
100.006
100.001
100
100
100
100
100
100
100
100
100
100
100.002
100.005
100.009
100.011
100.011
100.01
100.006
100.002
100.001
100
100
100
100
100
100
100
100
100
100
100
100
100
100
100
100
100
100
100
100
100
100
100
100
100
100
100
100
100
100
100
100
100
100
100
100
100
100
100
100
100
100
100
100
100
100
100
100
100
100
100
100
100
100
100
100
100
100
100
100
100
100.597
100.652
100.609
100.415
100.142
100.017
100.001
100
100
100
100
100
100
100
100
100.671
100.662
100.517
100.217
100.022
100
100
100
100
100
100
100
100
100
100
100.705
100.636
100.373
100.073
100.002
100
100
100
100
100
100
100
100
100
100
100.72
100.518
100.167
100.009
100
100
100
100
100
100
100
100
100
100
100
100.653
100.285
100.024
100
100
100
100
100
100
100
100
100
100
100
100
100.397
100.038
100
100
100
100
100
100
100
100
100
100
100
100
100
100.042
100
100
100
100
100
100
100
100
100
100
100
100
100
100
99.9995
100
100
100
100
100
100
100
100
100
100
100
100
100
100
100
100
100
100
100
100
100
100
100
100
100
100
100
100
100
100
100
100
100
100
100
100
100
100
100
100
100
100
100
100
100
100
100
100
100
100
100
100
100
100
100
100
100
100
100
100
100
100
100
100
100
100
100
100
100
100
100
100
100
100
100
100
100
100
100
100
100
100
100
100
100
100
100
100
100
100
100
100
100
100
100
100
100
100
100
100
100
100
100
100
100
100
100
100
100
100
100
100
100
100
100
100
100
100
100
100
100
100
100
100
100
100
100
100
100
100
100
100
100
100
100
100
100
100
100
100
100
100
100
100
100
100
100
100
100
100
100
100
100
100
100
100
100
100
100
100
100
100
100
100
100
100
100
100
100
100
100
100
100
100
100
100
100
100
100
100
100
100
100
100
100
100
100
100
100
100
100
100
100
100
100
100
100
100
100
100
100
100
100
100
100
100
100
100
100
100
100
100
100
100
100
100
100
100
100
100
100
100
100
100
100
100
100
100
100
100
100
100
100
100
100
100
100
100
100
100
100
100
100
100
100
100
100
100
100
100
100
100
100
100
100
100
100
100
100
100
100
100
100
100
100
100
100
100
100
100
100
100
100
100
100
100
100
100
100
100
100
100
100
100
100
100
100
100
100
100
100
100
100
100
100
100
100
100
100
100
100
100
100
100
100
100
100
100
100
100
100
100
100
100
100
100
100
100
100
100
100
100
100
100
100
100
100
100
100
100
100
100
100
100
100
100
100
100
100
100
100
100
100
100
100
100
100
100
100
100
100
100
100
100
100
100
100
100
100
100
100
100
100
100
100
100
100
100
100
100
100
100
100
100
100
100
100
100
100
100
100
100
100
100
100
100
100
100
100
100
100
100
100
100
100
100
100
100
100
100
100
100
100
100
100
100
100
100
100
100
100
100
100
100
100
100
100
100
100
100
100
100
100
100
100
100
100
100
100
100
100
100
100
100
100
100
100
100
100
100
100
100
100
100
100
100
100
100
100
100
100
100
100
100
100
100
100
100
100
100
100
100
100
100
100
100
100
100
100
100
100
100
100
100
100
100
100
100
100
100
100
100
100
100
100
100
100
100
100
100
100
100
100
100
100
100
100
100
100
100
100
100
100
100
100
100
100
100
100
100
100
100
100
100
100
100
100
100
100
100
100
100
100
100
100
100
100
100
100
100
100
100
100
100
100
100
100
100
100
100
100
100
100
100
100
100
100
100
100
100
100
100
100
100
100
100
100
100
100
100
100
100
100
100
100
100
100
100
100
100
100
100
100
100
100
100
100
100
100
100
100
100
100
100
100
100
100
100
100
100
100
100
100
100
100
100
100
100
100
100
100
100
100
100
100
100
100
100
100
100
100
100
100
100
100
100
100
100
100
100
100
100
100
100
100
100
100
100
100
100
100
100
100
100
100
100
100
100
100
100
100
100
100
100
100
100
100
100
100
100
100
100
100
100
100
100
100
100
100
100
100
100
100
100
100
100
100
100
100
100
100
100
100
100
100
100
100
100
100
100
100
100
100
100
100
100
100
100
100
100
100
100
100
100
100
100
100
100
100
100
100
100
100
100
100
100
100
100
100
100
100
100
100
100
100
100
100
100
100
100
100
100
100
100
100
100
100
100
100
100
100
100
100
100
100
100
100
100
100
100
100
100
100
100
100
100
100
100
100
100
100
100
100
100
100
100
100
100
100
100
100
100
100
100
100
100
100
100
100
100
100
100
100
100
100
100
100
100
100
100
100
100
100
100
100
100
100
100
100
100
100
100
100
100
100
100
100
100
100
100
100
100
100
100
100
100
100
100
100
100
100
100
100
100
100
100
100
100
100
100
100
100
100
100
100
100
100
100
100
100
100
100
100
100
100
100
100
100
100
100
100
100
100
100
100
100
100
100
100
100
100
100
100
100
100
100
100
100
100
100
100
100
100
100
100
100
100
100
100
100
100
100
100
100
99.9995
100
100
100
100
100
100
100
100
100
100
100
100
100
100
100.042
100
100
100
100
100
100
100
100
100
100
100
100
100
100
100.397
100.038
100
100
100
100
100
100
100
100
100
100
100
100
100
100.653
100.285
100.024
100
100
100
100
100
100
100
100
100
100
100
100
100.72
100.518
100.167
100.009
100
100
100
100
100
100
100
100
100
100
100
100.705
100.636
100.373
100.073
100.002
100
100
100
100
100
100
100
100
100
100
100.671
100.662
100.517
100.217
100.022
100
100
100
100
100
100
100
100
100
100
100.597
100.652
100.609
100.415
100.142
100.017
100.001
100
100
100
100
100
100
100
100
100.533
100.621
100.609
100.489
100.251
100.042
100.002
100
100
100
100
100
100
100
100
100.439
100.545
100.589
100.547
100.376
100.147
100.015
100
100
100
100
100
100
100
100
100.404
100.471
100.54
100.541
100.446
100.257
100.067
100.004
100
100
100
100
100
100
100
100.377
100.419
100.477
100.517
100.482
100.336
100.156
100.025
100.001
100
100
100
100
100
100
100.35
100.393
100.422
100.474
100.473
100.388
100.234
100.08
100.006
100
100
100
100
100
100
100.321
100.369
100.369
100.411
100.447
100.41
100.286
100.147
100.03
100.001
100
100
100
100
100
100.285
100.336
100.338
100.362
100.404
100.398
100.326
100.2
100.075
100.007
100
100
100
100
100
100.241
100.294
100.322
100.334
100.356
100.37
100.328
100.237
100.126
100.025
100.001
100
100
100
100
100.217
100.253
100.299
100.299
100.298
100.331
100.317
100.248
100.16
100.059
100.005
100
100
100
100
100.201
100.217
100.261
100.262
100.245
100.276
100.288
100.244
100.175
100.092
100.015
100
100
100
100
100.175
100.179
100.212
100.23
100.216
100.219
100.241
100.228
100.172
100.112
100.033
100.002
100
100
100
100.132
100.143
100.156
100.185
100.174
100.166
100.19
100.197
100.161
100.113
100.048
100.005
100
100
100
100.105
100.107
100.106
100.126
100.123
100.113
100.137
100.159
100.142
100.108
100.057
100.009
100
100
100
100.077
100.064
100.063
100.07
100.069
100.067
100.082
100.117
100.117
100.098
100.057
100.011
100
100
100
100.037
100.014
100.01
100.003
100.009
100.02
100.034
100.075
100.091
100.082
100.053
100.011
100
100
100
99.986
99.9423
99.9343
99.9206
99.9484
99.9726
99.9956
100.046
100.069
100.066
100.043
100.01
100
100
100
99.9785
99.9016
99.8966
99.8863
99.9151
99.9528
99.9853
100.034
100.053
100.05
100.03
100.006
100
100
100
99.9731
99.9085
99.9014
99.8903
99.9101
99.9534
99.9883
100.029
100.04
100.035
100.017
100.002
100
100
100
99.9569
99.9192
99.9153
99.9067
99.9154
99.9584
99.9962
100.026
100.028
100.02
100.006
100.001
100
100
100
99.9484
99.9386
99.9424
99.945
99.9504
99.9786
100.003
100.014
100.011
100.005
100.001
100
100
100
100
100.427
100.397
100.373
100.339
100.298
100.28
100.259
100.235
100.206
100.184
100.152
100.127
100.104
100.125
100.158
100.142
100.1
100.034
99.9758
99.9533
100.364
100.34
100.32
100.287
100.256
100.256
100.244
100.218
100.193
100.166
100.139
100.127
100.167
100.264
100.254
100.201
100.12
100.037
99.9732
99.9557
100.3
100.285
100.274
100.245
100.217
100.219
100.215
100.195
100.178
100.156
100.141
100.2
100.312
100.323
100.297
100.232
100.132
100.037
99.9721
99.9584
100.235
100.238
100.224
100.189
100.185
100.191
100.188
100.176
100.165
100.158
100.218
100.353
100.393
100.375
100.335
100.253
100.141
100.04
99.9735
99.9607
100.184
100.187
100.183
100.162
100.149
100.156
100.156
100.151
100.159
100.251
100.376
100.441
100.448
100.434
100.383
100.278
100.15
100.041
99.9732
99.9626
100.136
100.14
100.137
100.128
100.126
100.129
100.133
100.175
100.295
100.396
100.459
100.508
100.511
100.49
100.415
100.288
100.147
100.036
99.9729
99.9651
100.082
100.093
100.09
100.089
100.098
100.182
100.301
100.382
100.44
100.483
100.55
100.595
100.585
100.528
100.416
100.269
100.125
100.026
99.9739
99.9679
100.023
100.065
100.189
100.294
100.394
100.489
100.536
100.557
100.586
100.619
100.675
100.691
100.65
100.529
100.371
100.209
100.08
100.01
99.9752
99.9695
100.553
100.639
100.718
100.738
100.756
100.773
100.77
100.752
100.748
100.761
100.782
100.771
100.684
100.497
100.289
100.133
100.039
99.9951
99.9719
99.9675
101.052
101.035
101.02
100.992
100.962
100.93
100.894
100.855
100.832
100.83
100.829
100.805
100.693
100.468
100.239
100.094
100.022
99.9949
99.9748
99.9696
)
;

boundaryField
{
    inlet
    {
        type            fixedValue;
        value           uniform 100;
    }
    outlet
    {
        type            inletOutlet;
        inletValue      uniform 100;
        value           nonuniform List<scalar> 
50
(
99.9487
99.9384
99.9421
99.9451
99.9508
99.979
100.004
100.014
100.011
100.005
100.001
100
100
100
100
99.9696
99.9675
99.9689
99.9672
99.9646
99.9626
99.961
99.959
99.9559
99.9531
99.9532
99.9557
99.9584
99.9607
99.9626
99.9651
99.9679
99.9694
99.9675
99.9696
99.9484
99.9386
99.9425
99.9452
99.9507
99.9788
100.003
100.014
100.011
100.005
100.001
100
100
100
100
)
;
    }
    airfoil
    {
        type            zeroGradient;
    }
    top
    {
        type            symmetryPlane;
    }
    bottom
    {
        type            symmetryPlane;
    }
    defaultFaces
    {
        type            empty;
    }
}


// ************************************************************************* //
