/*--------------------------------*- C++ -*----------------------------------*\
  =========                 |
  \\      /  F ield         | OpenFOAM: The Open Source CFD Toolbox
   \\    /   O peration     | Website:  https://openfoam.org
    \\  /    A nd           | Version:  7
     \\/     M anipulation  |
\*---------------------------------------------------------------------------*/
FoamFile
{
    version     2.0;
    format      ascii;
    class       volVectorField;
    location    "1.8";
    object      U;
}
// * * * * * * * * * * * * * * * * * * * * * * * * * * * * * * * * * * * * * //

dimensions      [0 1 -1 0 0 0 0];

internalField   nonuniform List<vector> 
3700
(
(1.41593 -0.537191 0)
(1.35274 -0.591753 0)
(1.29331 -0.440936 0)
(1.33507 -0.401528 0)
(1.47786 -0.461277 0)
(1.49578 -0.436719 0)
(1.44884 -0.294976 0)
(1.47756 -0.176988 0)
(1.52641 -0.202736 0)
(1.58328 -0.25824 0)
(1.57089 -0.229382 0)
(1.56051 -0.145961 0)
(1.61143 -0.12816 0)
(1.6519 -0.201953 0)
(1.69845 -0.275081 0)
(1.71584 -0.250017 0)
(1.75809 -0.216557 0)
(1.81625 -0.240357 0)
(1.84539 -0.213884 0)
(1.89278 -0.182331 0)
(1.62535 -1.48462 0)
(1.78145 -1.56767 0)
(1.89637 -1.79698 0)
(1.97564 -1.99571 0)
(2.00425 -2.26687 0)
(1.92324 -2.13496 0)
(1.79989 -1.71772 0)
(1.75478 -1.43966 0)
(1.82453 -1.36618 0)
(1.88523 -1.32495 0)
(1.89065 -1.21693 0)
(1.90427 -1.11114 0)
(1.9739 -1.0956 0)
(2.08038 -1.27132 0)
(2.10762 -1.37948 0)
(2.1131 -1.35896 0)
(2.14384 -1.31849 0)
(2.18346 -1.21954 0)
(2.25247 -1.16771 0)
(2.3397 -1.07973 0)
(1.67901 -1.4462 0)
(2.00363 -1.39803 0)
(2.16436 -1.91892 0)
(2.15769 -2.16644 0)
(2.0746 -2.26565 0)
(2.03313 -2.32799 0)
(2.05491 -2.22376 0)
(2.01212 -2.20214 0)
(2.05301 -2.13728 0)
(2.11991 -2.07699 0)
(2.22365 -1.9901 0)
(2.32791 -1.96243 0)
(2.4343 -1.89062 0)
(2.467 -1.88587 0)
(2.48355 -1.87175 0)
(2.48022 -1.81686 0)
(2.46554 -1.80878 0)
(2.47254 -1.6909 0)
(2.506 -1.66721 0)
(2.58595 -1.54305 0)
(1.79989 -1.46591 0)
(2.12563 -1.33363 0)
(2.26708 -1.82603 0)
(2.14679 -2.14486 0)
(2.10095 -2.22781 0)
(2.0706 -2.28717 0)
(2.1381 -2.15392 0)
(2.0684 -2.15282 0)
(2.1246 -2.08503 0)
(2.16964 -2.01556 0)
(2.22512 -1.91383 0)
(2.35371 -1.81883 0)
(2.47737 -1.67702 0)
(2.61405 -1.59663 0)
(2.69851 -1.52243 0)
(2.73648 -1.48566 0)
(2.69203 -1.54635 0)
(2.66161 -1.47038 0)
(2.5974 -1.50646 0)
(2.60008 -1.37444 0)
(1.93984 -1.52974 0)
(2.16776 -1.36163 0)
(2.12881 -1.838 0)
(1.98197 -2.14557 0)
(2.01053 -2.20539 0)
(2.06754 -2.24259 0)
(2.15068 -2.12904 0)
(2.15582 -2.05048 0)
(2.24216 -1.94961 0)
(2.31056 -1.91084 0)
(2.26302 -1.92813 0)
(2.35255 -1.77438 0)
(2.42478 -1.68321 0)
(2.54224 -1.59621 0)
(2.65654 -1.44737 0)
(2.72168 -1.22808 0)
(2.78889 -1.11349 0)
(2.83209 -1.03296 0)
(2.78163 -1.06556 0)
(2.6965 -1.13753 0)
(1.8838 -1.56812 0)
(1.94336 -1.53793 0)
(1.82309 -1.95635 0)
(1.78889 -2.15803 0)
(1.91329 -2.2043 0)
(2.00558 -2.14934 0)
(2.10642 -2.07141 0)
(2.20879 -1.96685 0)
(2.28783 -1.89541 0)
(2.42485 -1.71593 0)
(2.44051 -1.78794 0)
(2.51128 -1.66167 0)
(2.51501 -1.58163 0)
(2.54159 -1.50979 0)
(2.59129 -1.41746 0)
(2.63564 -1.27225 0)
(2.72178 -1.14683 0)
(2.8232 -0.97908 0)
(2.8528 -0.750966 0)
(2.79016 -0.688917 0)
(1.69159 -1.56951 0)
(1.64167 -1.70709 0)
(1.54997 -2.00611 0)
(1.68456 -2.07333 0)
(1.68924 -2.09684 0)
(1.88305 -1.95101 0)
(1.98685 -1.96256 0)
(2.21174 -1.69841 0)
(2.37039 -1.67006 0)
(2.52249 -1.51585 0)
(2.5696 -1.51663 0)
(2.67172 -1.35327 0)
(2.66609 -1.33701 0)
(2.66116 -1.29819 0)
(2.66752 -1.19317 0)
(2.6644 -1.10689 0)
(2.67707 -1.01465 0)
(2.76296 -0.952766 0)
(2.76298 -0.743152 0)
(2.79681 -0.528651 0)
(1.46174 -1.46298 0)
(1.44016 -1.61443 0)
(1.43464 -1.96269 0)
(1.65274 -2.03198 0)
(1.67404 -2.05868 0)
(1.81985 -1.95368 0)
(1.93017 -1.88795 0)
(2.10461 -1.68432 0)
(2.2576 -1.57875 0)
(2.43371 -1.47893 0)
(2.57331 -1.24656 0)
(2.69548 -1.06492 0)
(2.72077 -0.927551 0)
(2.73536 -0.878218 0)
(2.75451 -0.798899 0)
(2.74233 -0.7824 0)
(2.72477 -0.697577 0)
(2.72553 -0.737071 0)
(2.72695 -0.658382 0)
(2.7198 -0.430491 0)
(1.32608 -1.25253 0)
(1.33646 -1.44474 0)
(1.41635 -1.84217 0)
(1.64527 -1.998 0)
(1.76402 -1.97562 0)
(1.81783 -1.97711 0)
(1.99959 -1.86336 0)
(2.13328 -1.6789 0)
(2.22532 -1.54863 0)
(2.34672 -1.46211 0)
(2.47857 -1.26002 0)
(2.60287 -1.10758 0)
(2.65885 -0.83155 0)
(2.755 -0.704979 0)
(2.75216 -0.466465 0)
(2.75022 -0.404152 0)
(2.73812 -0.302421 0)
(2.7093 -0.335103 0)
(2.70178 -0.410956 0)
(2.65993 -0.260128 0)
(1.25663 -1.04063 0)
(1.24771 -1.3463 0)
(1.45494 -1.7823 0)
(1.67811 -2.00228 0)
(1.86025 -1.93043 0)
(2.03941 -1.94335 0)
(2.22326 -1.67805 0)
(2.38011 -1.52466 0)
(2.40776 -1.44923 0)
(2.4648 -1.32855 0)
(2.52405 -1.14885 0)
(2.57948 -1.00158 0)
(2.60386 -0.794309 0)
(2.69992 -0.696031 0)
(2.69399 -0.439723 0)
(2.72666 -0.303346 0)
(2.70562 -0.105474 0)
(2.67172 -0.0204972 0)
(2.63434 -0.0577121 0)
(2.61095 -0.0449134 0)
(1.13042 -0.929764 0)
(1.18334 -1.29006 0)
(1.55855 -1.82107 0)
(1.76441 -2.15389 0)
(2.38273 -1.90089 0)
(2.4722 -1.98265 0)
(2.64504 -1.47594 0)
(2.67902 -1.16899 0)
(2.73603 -0.992489 0)
(2.72251 -0.909811 0)
(2.71271 -0.762736 0)
(2.70202 -0.615766 0)
(2.67129 -0.488164 0)
(2.68304 -0.41264 0)
(2.6565 -0.274335 0)
(2.66202 -0.200111 0)
(2.64268 -0.0485622 0)
(2.60787 0.103518 0)
(2.54407 0.214483 0)
(2.56061 0.151701 0)
(0.993724 -0.858279 0)
(1.19584 -1.28868 0)
(1.65986 -1.91997 0)
(2.15483 -2.25379 0)
(2.53902 -1.79885 0)
(2.45952 -1.75778 0)
(2.61432 -1.34174 0)
(2.7169 -1.0381 0)
(2.76528 -0.708936 0)
(2.73162 -0.44133 0)
(2.73748 -0.325389 0)
(2.69305 -0.126345 0)
(2.67249 -0.037516 0)
(2.6415 0.061898 0)
(2.61013 0.115486 0)
(2.58013 0.12255 0)
(2.55543 0.133582 0)
(2.523 0.202912 0)
(2.44777 0.358111 0)
(2.46072 0.335288 0)
(0.876816 -0.818088 0)
(1.30172 -1.39217 0)
(1.93042 -2.12037 0)
(2.26762 -1.93876 0)
(2.27227 -1.70874 0)
(2.30643 -1.47876 0)
(2.414 -1.16138 0)
(2.47706 -0.924815 0)
(2.52046 -0.745552 0)
(2.55779 -0.475386 0)
(2.62258 -0.296597 0)
(2.58881 -0.0254966 0)
(2.58448 0.141324 0)
(2.52388 0.325116 0)
(2.4778 0.4357 0)
(2.43981 0.472371 0)
(2.40066 0.489469 0)
(2.39557 0.449146 0)
(2.32575 0.540324 0)
(2.32089 0.524815 0)
(0.835931 -0.89463 0)
(1.63737 -1.95177 0)
(2.02672 -2.0715 0)
(2.1019 -1.66456 0)
(2.14051 -1.55351 0)
(2.32931 -1.13276 0)
(2.43854 -0.869948 0)
(2.49738 -0.576247 0)
(2.49865 -0.391364 0)
(2.50638 -0.229433 0)
(2.5169 -0.0340522 0)
(2.48431 0.15001 0)
(2.46121 0.290137 0)
(2.40447 0.438732 0)
(2.34711 0.564835 0)
(2.30959 0.626079 0)
(2.2253 0.727919 0)
(2.19356 0.741658 0)
(2.17612 0.763938 0)
(2.1486 0.778837 0)
(0.868061 -1.07123 0)
(1.52718 -2.03653 0)
(1.84443 -1.86029 0)
(2.03542 -1.45756 0)
(2.26092 -1.19316 0)
(2.3928 -0.441008 0)
(2.50233 -0.181005 0)
(2.52271 0.0499372 0)
(2.46824 0.247899 0)
(2.45502 0.332767 0)
(2.39533 0.482386 0)
(2.3381 0.587596 0)
(2.28406 0.659781 0)
(2.22666 0.728758 0)
(2.18072 0.763834 0)
(2.14143 0.793508 0)
(2.08066 0.856261 0)
(2.05124 0.89826 0)
(2.02724 0.940993 0)
(2.05691 0.958367 0)
(0.869334 -1.04686 0)
(1.39344 -1.81052 0)
(1.86295 -1.58458 0)
(2.21492 -0.718972 0)
(2.38397 -0.131076 0)
(2.45748 -0.11943 0)
(2.44203 0.143786 0)
(2.40457 0.31922 0)
(2.35316 0.456854 0)
(2.29852 0.637055 0)
(2.2038 0.785247 0)
(2.12311 0.887605 0)
(2.06106 0.941959 0)
(2.00721 0.990991 0)
(1.97806 0.983021 0)
(1.95955 0.987476 0)
(1.95772 1.00645 0)
(1.97086 0.991682 0)
(1.99458 0.992908 0)
(2.06718 0.979463 0)
(1.15142 -0.525772 0)
(1.74895 -0.738679 0)
(2.2441 -0.550409 0)
(2.36714 0.0757303 0)
(2.35956 0.297154 0)
(2.33104 0.354073 0)
(2.28168 0.488697 0)
(2.20474 0.643874 0)
(2.14776 0.72997 0)
(2.09604 0.875247 0)
(1.98184 0.989439 0)
(1.92629 1.05049 0)
(1.88641 1.07786 0)
(1.8691 1.091 0)
(1.86954 1.0578 0)
(1.89594 1.0491 0)
(1.96301 1.01983 0)
(2.16784 0.89796 0)
(2.38439 0.784965 0)
(2.77861 0.436284 0)
(1.14201 -0.0633617 0)
(1.9484 -0.188037 0)
(2.22363 0.421449 0)
(2.22855 0.564689 0)
(2.2045 0.573248 0)
(2.13228 0.740964 0)
(2.03624 0.896534 0)
(1.97038 0.972086 0)
(1.90375 1.04082 0)
(1.8487 1.13388 0)
(1.78893 1.15992 0)
(1.79377 1.15343 0)
(1.81214 1.13139 0)
(1.85327 1.08693 0)
(2.04511 0.948822 0)
(2.26137 0.828085 0)
(2.66598 0.502123 0)
(3.03625 0.0907891 0)
(3.05471 -0.023967 0)
(3.00399 -0.00464264 0)
(1.00633 0.0291328 0)
(1.91221 0.822771 0)
(2.10571 0.819583 0)
(2.01466 0.930106 0)
(1.94461 0.999097 0)
(1.86266 1.09028 0)
(1.80081 1.13262 0)
(1.76809 1.14841 0)
(1.76448 1.16461 0)
(1.73937 1.20537 0)
(1.71522 1.19942 0)
(1.85803 1.0744 0)
(2.09695 0.888211 0)
(2.50555 0.57847 0)
(2.98876 0.136178 0)
(3.07338 -0.029091 0)
(3.00798 -0.00758913 0)
(3.00286 -0.00378876 0)
(3.0012 -0.00217117 0)
(3.00008 -0.000479469 0)
(1.15779 0.782634 0)
(1.83586 1.14854 0)
(1.84234 1.15642 0)
(1.73125 1.20726 0)
(1.71678 1.20144 0)
(1.66328 1.24764 0)
(1.66542 1.21996 0)
(1.73208 1.17162 0)
(1.76465 1.23032 0)
(1.7913 1.14233 0)
(2.27039 0.741368 0)
(2.85921 0.209662 0)
(3.09786 -0.0280232 0)
(3.0208 -0.0124738 0)
(3.00448 -0.00542317 0)
(3.00182 -0.00299311 0)
(3.00006 -0.000594219 0)
(2.99998 -2.32149e-05 0)
(2.99999 1.42131e-05 0)
(3 5.88611e-06 0)
(1.58278 1.25964 0)
(1.58571 1.26756 0)
(1.58968 1.27592 0)
(1.59698 1.26884 0)
(1.61604 1.25802 0)
(1.60652 1.26956 0)
(1.89804 1.16382 0)
(2.95903 0.357788 0)
(3.31975 -0.54834 0)
(3 4.40391e-11 0)
(3 1.37017e-11 0)
(3 5.9365e-15 0)
(3 1.65971e-13 0)
(3 -2.95148e-13 0)
(3 3.69882e-15 0)
(3 2.1974e-15 0)
(3 8.67786e-16 0)
(3 -1.36472e-15 0)
(3 3.70096e-15 0)
(3 3.36633e-15 0)
(1.58597 1.25392 0)
(1.59834 1.25935 0)
(1.60188 1.27049 0)
(1.60077 1.27621 0)
(1.64062 1.25489 0)
(1.68388 1.23429 0)
(2.26727 0.73168 0)
(2.99496 0.0189345 0)
(3 6.18934e-08 0)
(3 1.91782e-11 0)
(3 -1.6585e-12 0)
(3 9.0744e-16 0)
(3 -3.44257e-16 0)
(3 2.53527e-16 0)
(3 4.32954e-16 0)
(3 7.49931e-16 0)
(3 2.93276e-16 0)
(3 2.34694e-15 0)
(3 3.48539e-15 0)
(3 4.13107e-15 0)
(1.58945 1.24768 0)
(1.60775 1.25426 0)
(1.61601 1.25599 0)
(1.60133 1.27931 0)
(1.71789 1.20148 0)
(2.19291 0.802889 0)
(2.98997 0.000869811 0)
(3.00058 -0.000993414 0)
(3 2.41027e-07 0)
(3 7.41514e-11 0)
(3 -1.19868e-12 0)
(3 -9.89897e-16 0)
(3 -7.50687e-16 0)
(3 -5.4187e-16 0)
(3 -1.02273e-15 0)
(3 -8.3276e-17 0)
(3 1.14117e-15 0)
(3 2.82702e-15 0)
(3 1.86843e-15 0)
(3 2.66724e-15 0)
(1.58642 1.2499 0)
(1.60951 1.2557 0)
(1.6273 1.25235 0)
(1.62889 1.27128 0)
(1.89518 1.05127 0)
(2.78607 0.182476 0)
(3.00436 -0.00185491 0)
(2.99991 8.26816e-05 0)
(3 -5.49495e-07 0)
(3 8.0341e-10 0)
(3 -4.46336e-12 0)
(3 -1.2521e-15 0)
(3 2.51932e-16 0)
(3 -2.49255e-16 0)
(3 -1.52471e-15 0)
(3 2.93198e-17 0)
(3 1.1574e-15 0)
(3 2.11404e-15 0)
(3 1.64366e-15 0)
(3 1.9585e-15 0)
(1.58257 1.26265 0)
(1.5983 1.26447 0)
(1.63195 1.25634 0)
(1.70305 1.22572 0)
(2.34039 0.642434 0)
(3.01988 -0.0162174 0)
(2.99975 0.000171574 0)
(3 -4.24819e-06 0)
(3 8.1032e-08 0)
(3 -8.594e-10 0)
(3 7.463e-12 0)
(3 -3.20565e-15 0)
(3 1.0466e-15 0)
(3 2.23544e-16 0)
(3 -5.80169e-16 0)
(3 6.68387e-16 0)
(3 1.83075e-15 0)
(3 8.5505e-16 0)
(3 1.50503e-15 0)
(3 7.4651e-16 0)
(1.58299 1.28206 0)
(1.58421 1.28537 0)
(1.64045 1.26516 0)
(1.77928 1.15486 0)
(2.69219 0.260647 0)
(3 -5.79921e-10 0)
(3 1.38601e-08 0)
(3 -1.24944e-08 0)
(3 5.28351e-10 0)
(3 2.80159e-12 0)
(3 -1.10276e-13 0)
(3 3.30066e-15 0)
(3 1.21117e-15 0)
(3 1.182e-15 0)
(3 1.50726e-15 0)
(3 1.08334e-15 0)
(3 2.18175e-15 0)
(3 2.13673e-15 0)
(3 2.4722e-15 0)
(3 3.58192e-16 0)
(1.58592 1.29732 0)
(1.55515 1.29825 0)
(1.67846 1.22796 0)
(2.17624 0.827718 0)
(3.02365 -0.0218653 0)
(3 4.70737e-12 0)
(3 -2.47934e-12 0)
(3 3.03468e-12 0)
(3 -1.26565e-12 0)
(3 3.81731e-14 0)
(3 3.38441e-15 0)
(3 1.8898e-15 0)
(3 1.63495e-15 0)
(3 1.80917e-15 0)
(3 1.70586e-15 0)
(3 2.03757e-15 0)
(3 3.70828e-15 0)
(3 3.40737e-15 0)
(3 2.77282e-15 0)
(3 7.42434e-16 0)
(1.59199 1.33152 0)
(1.50258 1.32779 0)
(1.72274 1.19262 0)
(2.3805 0.558006 0)
(3 -2.86844e-10 0)
(3 6.30602e-12 0)
(3 -1.31722e-13 0)
(3 -3.16197e-15 0)
(3 1.48522e-14 0)
(3 3.30472e-15 0)
(3 3.53496e-15 0)
(3 2.12437e-15 0)
(3 1.4816e-15 0)
(3 1.2521e-15 0)
(3 1.77328e-15 0)
(3 3.5678e-15 0)
(3 5.0321e-15 0)
(3 4.75667e-15 0)
(3 4.39572e-15 0)
(3 1.99157e-15 0)
(1.5891 1.30219 0)
(1.47622 1.33765 0)
(2.00944 1.0266 0)
(2.89645 0.106516 0)
(3 -7.13812e-11 0)
(3 -1.20058e-13 0)
(3 5.7808e-15 0)
(3 3.99907e-15 0)
(3 4.45122e-15 0)
(3 5.16125e-15 0)
(3 3.19083e-15 0)
(3 2.18508e-15 0)
(3 1.24549e-15 0)
(3 1.28038e-15 0)
(3 2.05673e-15 0)
(3 4.25441e-15 0)
(3 5.11249e-15 0)
(3 5.61631e-15 0)
(3 5.80338e-15 0)
(3 3.76287e-15 0)
(1.60228 1.29556 0)
(1.47557 1.39633 0)
(2.12504 0.853388 0)
(3.01094 -0.00872334 0)
(3 7.02218e-10 0)
(3 -5.17521e-13 0)
(3 4.18055e-15 0)
(3 4.20736e-15 0)
(3 3.93364e-15 0)
(3 3.77106e-15 0)
(3 2.83213e-15 0)
(3 2.57625e-15 0)
(3 2.29003e-15 0)
(3 2.16492e-15 0)
(3 2.48192e-15 0)
(3 4.32601e-15 0)
(3 5.08018e-15 0)
(3 5.80226e-15 0)
(3 6.36615e-15 0)
(3 5.21146e-15 0)
(1.621 1.2796 0)
(1.56539 1.31391 0)
(2.4257 0.533633 0)
(3 7.03677e-14 0)
(3 -9.08631e-13 0)
(3 1.24763e-14 0)
(3 3.86e-15 0)
(3 4.0438e-15 0)
(3 3.4928e-15 0)
(3 2.97292e-15 0)
(3 1.20732e-15 0)
(3 1.19707e-16 0)
(3 7.47109e-16 0)
(3 1.08882e-15 0)
(3 1.98828e-15 0)
(3 2.93201e-15 0)
(3 3.88368e-15 0)
(3 4.27681e-15 0)
(3 4.09918e-15 0)
(3 4.30213e-15 0)
(1.63865 1.26079 0)
(1.61837 1.25284 0)
(2.64278 0.296601 0)
(3 2.14085e-14 0)
(3 4.50067e-15 0)
(3 2.56977e-15 0)
(3 3.39255e-15 0)
(3 3.6324e-15 0)
(3 3.69769e-15 0)
(3 3.23216e-15 0)
(3 2.28531e-15 0)
(3 1.50589e-15 0)
(3 4.94824e-16 0)
(3 1.28008e-17 0)
(3 1.34445e-16 0)
(3 2.50297e-16 0)
(3 8.49485e-16 0)
(3 1.68317e-15 0)
(3 2.0614e-15 0)
(3 2.61156e-15 0)
(1.65457 1.2455 0)
(1.84136 1.09617 0)
(2.8825 0.0868097 0)
(3 -9.84658e-14 0)
(3 2.25791e-15 0)
(3 2.37493e-15 0)
(3 3.19105e-15 0)
(3 3.50039e-15 0)
(3 3.59269e-15 0)
(3 3.44881e-15 0)
(3 3.02128e-15 0)
(3 2.88204e-15 0)
(3 2.03431e-15 0)
(3 1.27152e-15 0)
(3 2.06081e-16 0)
(3 -3.44792e-16 0)
(3 -6.09845e-17 0)
(3 -1.00676e-16 0)
(3 -7.39981e-16 0)
(3 2.87943e-17 0)
(1.68177 1.19911 0)
(1.90023 0.973245 0)
(3 1.91339e-07 0)
(3 2.84017e-15 0)
(3 2.81007e-15 0)
(3 3.45291e-15 0)
(3 3.80518e-15 0)
(3 3.92336e-15 0)
(3 4.18777e-15 0)
(3 3.98602e-15 0)
(3 3.93498e-15 0)
(3 3.64772e-15 0)
(3 3.21992e-15 0)
(3 3.00717e-15 0)
(3 2.65331e-15 0)
(3 1.86986e-15 0)
(3 1.58873e-15 0)
(3 1.40545e-16 0)
(3 -4.67956e-16 0)
(3 -3.51378e-16 0)
(1.71095 1.16668 0)
(2.0717 0.812699 0)
(3 4.15753e-15 0)
(3 3.10592e-15 0)
(3 2.57189e-15 0)
(3 3.90368e-15 0)
(3 4.68356e-15 0)
(3 4.83753e-15 0)
(3 4.48615e-15 0)
(3 4.0214e-15 0)
(3 3.57181e-15 0)
(3 3.10248e-15 0)
(3 2.84916e-15 0)
(3 2.7205e-15 0)
(3 2.38545e-15 0)
(3 2.40429e-15 0)
(3 2.98353e-15 0)
(3 2.12949e-15 0)
(3 1.50011e-15 0)
(3 1.24961e-15 0)
(1.77979 1.09754 0)
(2.24085 0.652683 0)
(3 3.2066e-15 0)
(3 2.51084e-15 0)
(3 3.35978e-15 0)
(3 4.51237e-15 0)
(3 5.15895e-15 0)
(3 5.12974e-15 0)
(3 4.43232e-15 0)
(3 4.12716e-15 0)
(3 4.15736e-15 0)
(3 3.6101e-15 0)
(3 3.0044e-15 0)
(3 2.71658e-15 0)
(3 2.13004e-15 0)
(3 1.72149e-15 0)
(3 2.03097e-15 0)
(3 1.84451e-15 0)
(3 1.17452e-15 0)
(3 6.25499e-16 0)
(1.79396 1.01285 0)
(2.41897 0.460051 0)
(3 2.1767e-15 0)
(3 1.35243e-15 0)
(3 1.37536e-15 0)
(3 3.16461e-15 0)
(3 5.12463e-15 0)
(3 5.83955e-15 0)
(3 5.79389e-15 0)
(3 5.30873e-15 0)
(3 4.95473e-15 0)
(3 4.64124e-15 0)
(3 4.25275e-15 0)
(3 4.19588e-15 0)
(3 4.18789e-15 0)
(3 3.91914e-15 0)
(3 3.77447e-15 0)
(3 3.68613e-15 0)
(3 3.19808e-15 0)
(3 2.8768e-15 0)
(1.92796 0.891857 0)
(2.68419 0.229473 0)
(3 4.84321e-16 0)
(3 -1.94829e-15 0)
(3 -8.05901e-16 0)
(3 1.14649e-15 0)
(3 2.42424e-15 0)
(3 3.26566e-15 0)
(3 3.30965e-15 0)
(3 4.15106e-15 0)
(3 4.46442e-15 0)
(3 4.83e-15 0)
(3 3.76119e-15 0)
(3 3.19078e-15 0)
(3 2.9455e-15 0)
(3 2.76128e-15 0)
(3 2.52935e-15 0)
(3 2.67409e-15 0)
(3 2.50727e-15 0)
(3 2.09617e-15 0)
(2.1121 0.663022 0)
(2.98973 0.000243199 0)
(3 -4.12176e-15 0)
(3 -3.39432e-15 0)
(3 -1.63595e-15 0)
(3 -4.70468e-17 0)
(3 6.96145e-16 0)
(3 1.8508e-15 0)
(3 1.65707e-15 0)
(3 1.63241e-15 0)
(3 1.75033e-15 0)
(3 1.27147e-15 0)
(3 3.48412e-16 0)
(3 -6.29702e-16 0)
(3 -9.67375e-16 0)
(3 -1.1954e-15 0)
(3 -1.4536e-15 0)
(3 -1.06062e-15 0)
(3 -6.48167e-16 0)
(3 -4.82404e-16 0)
(1.99671 0.368733 0)
(2.99993 -7.58013e-06 0)
(3 -6.3536e-15 0)
(3 -4.94843e-15 0)
(3 -2.66322e-15 0)
(3 -9.84472e-16 0)
(3 3.50289e-16 0)
(3 7.56589e-16 0)
(3 4.62205e-16 0)
(3 3.63935e-16 0)
(3 4.34003e-16 0)
(3 9.97984e-16 0)
(3 8.18373e-16 0)
(3 7.68886e-17 0)
(3 -5.50229e-16 0)
(3 -7.59406e-16 0)
(3 -8.07103e-16 0)
(3 -6.63369e-16 0)
(3 -4.76964e-16 0)
(3 -4.11857e-16 0)
(1.99671 -0.368738 0)
(2.99993 7.57842e-06 0)
(3 -1.75703e-15 0)
(3 -2.67448e-15 0)
(3 -3.12493e-15 0)
(3 -2.71407e-15 0)
(3 -2.23549e-15 0)
(3 -1.60854e-15 0)
(3 -1.42819e-15 0)
(3 -1.34112e-15 0)
(3 -1.30247e-15 0)
(3 -1.43191e-15 0)
(3 -1.46755e-15 0)
(3 -1.02146e-15 0)
(3 -8.38215e-16 0)
(3 -8.37584e-16 0)
(3 -1.02932e-15 0)
(3 -1.3696e-15 0)
(3 -1.41571e-15 0)
(3 -1.20422e-15 0)
(2.11209 -0.662999 0)
(2.98973 -0.000243234 0)
(3 -3.57724e-16 0)
(3 -3.2258e-16 0)
(3 -1.4716e-15 0)
(3 -2.2855e-15 0)
(3 -3.17886e-15 0)
(3 -3.45816e-15 0)
(3 -3.71675e-15 0)
(3 -3.80866e-15 0)
(3 -4.01893e-15 0)
(3 -4.4402e-15 0)
(3 -3.64213e-15 0)
(3 -2.3085e-15 0)
(3 -1.51959e-15 0)
(3 -1.10464e-15 0)
(3 -1.29031e-15 0)
(3 -1.58574e-15 0)
(3 -1.32951e-15 0)
(3 -8.10916e-16 0)
(1.92798 -0.891854 0)
(2.68421 -0.229464 0)
(3 2.61062e-17 0)
(3 1.13479e-15 0)
(3 3.12092e-16 0)
(3 -6.75393e-16 0)
(3 -1.74042e-15 0)
(3 -3.45518e-15 0)
(3 -4.44744e-15 0)
(3 -4.65429e-15 0)
(3 -4.62117e-15 0)
(3 -3.88586e-15 0)
(3 -2.51679e-15 0)
(3 -1.55179e-15 0)
(3 -1.20027e-15 0)
(3 -1.12137e-15 0)
(3 -8.06909e-16 0)
(3 -1.57243e-16 0)
(3 5.86369e-16 0)
(3 1.20674e-15 0)
(1.79396 -1.01285 0)
(2.41897 -0.460051 0)
(3 -3.17188e-15 0)
(3 -3.03529e-15 0)
(3 -1.98048e-15 0)
(3 -1.55766e-15 0)
(3 -2.34875e-15 0)
(3 -3.8554e-15 0)
(3 -4.69002e-15 0)
(3 -5.03039e-15 0)
(3 -4.96123e-15 0)
(3 -4.08504e-15 0)
(3 -3.25058e-15 0)
(3 -2.86413e-15 0)
(3 -2.37945e-15 0)
(3 -1.52223e-15 0)
(3 -5.29174e-16 0)
(3 9.80721e-16 0)
(3 1.00203e-15 0)
(3 1.30344e-15 0)
(1.77979 -1.09754 0)
(2.24085 -0.652685 0)
(3 -3.57616e-15 0)
(3 -2.54633e-15 0)
(3 -1.72524e-15 0)
(3 -2.08601e-15 0)
(3 -3.15895e-15 0)
(3 -3.4886e-15 0)
(3 -3.73136e-15 0)
(3 -3.2511e-15 0)
(3 -1.66944e-15 0)
(3 -1.18691e-15 0)
(3 -8.08379e-16 0)
(3 -8.46511e-16 0)
(3 -4.15127e-16 0)
(3 1.01531e-15 0)
(3 1.90456e-15 0)
(3 2.35302e-15 0)
(3 2.51238e-15 0)
(3 2.64826e-15 0)
(1.71094 -1.16669 0)
(2.07169 -0.812708 0)
(3 -3.36566e-15 0)
(3 -1.77619e-15 0)
(3 -1.68049e-15 0)
(3 -2.52256e-15 0)
(3 -2.61741e-15 0)
(3 -2.65892e-15 0)
(3 -2.28523e-15 0)
(3 -1.52317e-15 0)
(3 -1.20678e-15 0)
(3 -1.00644e-15 0)
(3 -1.90824e-16 0)
(3 4.5631e-16 0)
(3 7.70109e-16 0)
(3 1.33011e-15 0)
(3 1.16687e-15 0)
(3 8.10356e-16 0)
(3 6.11723e-16 0)
(3 9.29575e-16 0)
(1.68178 -1.19911 0)
(1.90023 -0.973247 0)
(3 -1.91279e-07 0)
(3 9.08498e-16 0)
(3 1.43642e-15 0)
(3 -2.46506e-16 0)
(3 -1.14646e-15 0)
(3 -1.61119e-15 0)
(3 -9.2335e-16 0)
(3 -9.22833e-17 0)
(3 3.35359e-16 0)
(3 3.61547e-16 0)
(3 -5.56843e-16 0)
(3 -9.65969e-16 0)
(3 -8.89981e-16 0)
(3 -7.83214e-16 0)
(3 -1.0544e-15 0)
(3 -4.56584e-16 0)
(3 -3.16936e-16 0)
(3 -2.153e-16 0)
(1.65457 -1.24551 0)
(1.84136 -1.09617 0)
(2.8825 -0.0868092 0)
(3 1.03258e-13 0)
(3 9.72586e-16 0)
(3 -2.68127e-16 0)
(3 -8.95206e-16 0)
(3 -2.4135e-15 0)
(3 -5.19627e-16 0)
(3 1.62844e-15 0)
(3 1.11122e-15 0)
(3 2.27441e-16 0)
(3 -1.87975e-16 0)
(3 -5.02177e-17 0)
(3 -1.2745e-17 0)
(3 -4.46052e-16 0)
(3 -5.40976e-16 0)
(3 8.26616e-16 0)
(3 9.2366e-16 0)
(3 1.79841e-16 0)
(1.63865 -1.26079 0)
(1.61837 -1.25285 0)
(2.64277 -0.296608 0)
(3 -1.91893e-14 0)
(3 -2.97755e-15 0)
(3 -1.59442e-15 0)
(3 -2.44022e-15 0)
(3 -3.87046e-15 0)
(3 -1.89456e-16 0)
(3 7.67299e-16 0)
(3 1.32949e-16 0)
(3 -2.96868e-16 0)
(3 -5.34727e-16 0)
(3 -9.49232e-16 0)
(3 -4.14055e-16 0)
(3 -6.77891e-16 0)
(3 -4.61031e-16 0)
(3 3.56659e-16 0)
(3 -3.45005e-16 0)
(3 -1.53294e-15 0)
(1.621 -1.2796 0)
(1.56539 -1.31391 0)
(2.4257 -0.533632 0)
(3 -6.77785e-14 0)
(3 9.0716e-13 0)
(3 -1.27306e-14 0)
(3 -2.84217e-15 0)
(3 -2.31295e-15 0)
(3 -2.70222e-16 0)
(3 -9.39405e-16 0)
(3 -1.17273e-15 0)
(3 -1.3563e-15 0)
(3 -1.53749e-15 0)
(3 -1.36282e-15 0)
(3 -1.16491e-15 0)
(3 -1.49776e-15 0)
(3 -1.44816e-15 0)
(3 -2.09968e-15 0)
(3 -2.52652e-15 0)
(3 -4.64219e-15 0)
(1.60228 -1.29556 0)
(1.47557 -1.39634 0)
(2.12503 -0.853393 0)
(3.01094 0.00872324 0)
(3 -7.02778e-10 0)
(3 5.21688e-13 0)
(3 -3.77966e-15 0)
(3 -4.08432e-15 0)
(3 -2.57328e-15 0)
(3 -2.49046e-15 0)
(3 -2.47617e-15 0)
(3 -2.12585e-15 0)
(3 -1.87094e-15 0)
(3 -1.63304e-15 0)
(3 -2.33926e-15 0)
(3 -3.24006e-15 0)
(3 -3.57751e-15 0)
(3 -3.63474e-15 0)
(3 -4.47327e-15 0)
(3 -5.20225e-15 0)
(1.5891 -1.30219 0)
(1.47622 -1.33765 0)
(2.00946 -1.02659 0)
(2.89646 -0.106508 0)
(3 7.14374e-11 0)
(3 1.18788e-13 0)
(3 -6.06246e-15 0)
(3 -5.06525e-15 0)
(3 -4.29996e-15 0)
(3 -4.30913e-15 0)
(3 -3.17535e-15 0)
(3 -2.38582e-15 0)
(3 -2.37259e-15 0)
(3 -3.38632e-15 0)
(3 -3.66404e-15 0)
(3 -3.68803e-15 0)
(3 -2.92176e-15 0)
(3 -3.95938e-15 0)
(3 -4.23247e-15 0)
(3 -4.04133e-15 0)
(1.592 -1.33151 0)
(1.50258 -1.32779 0)
(1.72275 -1.19261 0)
(2.38051 -0.557986 0)
(3 2.87605e-10 0)
(3 -6.32649e-12 0)
(3 1.30714e-13 0)
(3 1.16216e-15 0)
(3 -1.45434e-14 0)
(3 -5.29679e-15 0)
(3 -3.9034e-15 0)
(3 -2.73613e-15 0)
(3 -2.52943e-15 0)
(3 -2.87983e-15 0)
(3 -3.26319e-15 0)
(3 -3.01294e-15 0)
(3 -2.88898e-15 0)
(3 -3.52067e-15 0)
(3 -3.97114e-15 0)
(3 -3.07803e-15 0)
(1.58593 -1.29732 0)
(1.55515 -1.29824 0)
(1.67846 -1.22796 0)
(2.17621 -0.827718 0)
(3.02365 0.0218639 0)
(3 -4.7068e-12 0)
(3 2.47398e-12 0)
(3 -3.02992e-12 0)
(3 1.25484e-12 0)
(3 -3.99209e-14 0)
(3 -4.39065e-15 0)
(3 -2.12827e-15 0)
(3 -1.76243e-15 0)
(3 -2.2655e-15 0)
(3 -1.75646e-15 0)
(3 -2.46467e-15 0)
(3 -3.7184e-15 0)
(3 -3.4852e-15 0)
(3 -3.75595e-15 0)
(3 -2.36213e-15 0)
(1.583 -1.28206 0)
(1.58421 -1.28537 0)
(1.64045 -1.26517 0)
(1.77929 -1.15484 0)
(2.69221 -0.260623 0)
(3 5.79937e-10 0)
(3 -1.38602e-08 0)
(3 1.24945e-08 0)
(3 -5.28349e-10 0)
(3 -2.80279e-12 0)
(3 1.0936e-13 0)
(3 -3.93483e-15 0)
(3 -4.9884e-16 0)
(3 -3.18542e-16 0)
(3 -5.48167e-16 0)
(3 -3.00349e-15 0)
(3 -4.72473e-15 0)
(3 -3.51755e-15 0)
(3 -2.88857e-15 0)
(3 -1.44108e-15 0)
(1.58257 -1.26266 0)
(1.5983 -1.26447 0)
(1.63195 -1.25633 0)
(1.70307 -1.22571 0)
(2.34038 -0.642443 0)
(3.01988 0.0162164 0)
(2.99975 -0.000171582 0)
(3 4.24809e-06 0)
(3 -8.10318e-08 0)
(3 8.59378e-10 0)
(3 -7.43175e-12 0)
(3 1.36687e-14 0)
(3 3.94313e-16 0)
(3 -3.76719e-16 0)
(3 -2.4476e-15 0)
(3 -1.63178e-15 0)
(3 -4.72801e-15 0)
(3 -3.24537e-15 0)
(3 -2.00931e-15 0)
(3 -1.19746e-15 0)
(1.58642 -1.2499 0)
(1.60951 -1.25569 0)
(1.62729 -1.25234 0)
(1.62889 -1.27129 0)
(1.89516 -1.05129 0)
(2.78608 -0.182462 0)
(3.00436 0.00185504 0)
(2.99991 -8.26776e-05 0)
(3 5.49256e-07 0)
(3 -8.03371e-10 0)
(3 4.41716e-12 0)
(3 -1.51472e-15 0)
(3 1.53453e-16 0)
(3 -6.50361e-16 0)
(3 -2.48159e-15 0)
(3 -2.38999e-15 0)
(3 -3.77772e-15 0)
(3 -3.55143e-15 0)
(3 -1.20736e-15 0)
(3 -1.16564e-16 0)
(1.58946 -1.24768 0)
(1.60775 -1.25426 0)
(1.61601 -1.25599 0)
(1.60133 -1.27931 0)
(1.71795 -1.20144 0)
(2.19289 -0.802917 0)
(2.98997 -0.000870354 0)
(3.00058 0.000993451 0)
(3 -2.40768e-07 0)
(3 -7.41685e-11 0)
(3 1.16854e-12 0)
(3 -2.94628e-15 0)
(3 -7.16057e-16 0)
(3 -9.83724e-16 0)
(3 -2.07227e-15 0)
(3 -3.22465e-15 0)
(3 -2.97643e-15 0)
(3 -2.21765e-15 0)
(3 -8.7626e-16 0)
(3 1.01726e-16 0)
(1.58598 -1.25392 0)
(1.59834 -1.25935 0)
(1.60188 -1.27049 0)
(1.60076 -1.27621 0)
(1.64061 -1.25489 0)
(1.68386 -1.23429 0)
(2.26728 -0.731674 0)
(2.99497 -0.0189294 0)
(3 -6.18825e-08 0)
(3 -1.91579e-11 0)
(3 1.67075e-12 0)
(3 -7.18262e-15 0)
(3 -1.38957e-15 0)
(3 -8.43201e-16 0)
(3 3.81356e-16 0)
(3 -7.40566e-16 0)
(3 -3.20188e-15 0)
(3 -2.01512e-15 0)
(3 -2.01864e-15 0)
(3 -1.40454e-15 0)
(1.58278 -1.25965 0)
(1.58571 -1.26756 0)
(1.58967 -1.27592 0)
(1.59697 -1.26884 0)
(1.61604 -1.25802 0)
(1.60654 -1.26956 0)
(1.89802 -1.16383 0)
(2.95895 -0.357887 0)
(3.31983 0.548475 0)
(3 -4.40728e-11 0)
(3 -1.36657e-11 0)
(3 -1.05993e-14 0)
(3 -1.57701e-13 0)
(3 2.87384e-13 0)
(3 -3.01344e-15 0)
(3 -1.16107e-15 0)
(3 -3.39767e-15 0)
(3 3.75489e-15 0)
(3 -3.79864e-15 0)
(3 1.20693e-16 0)
(1.15738 -0.783589 0)
(1.83627 -1.14819 0)
(1.84202 -1.1569 0)
(1.73109 -1.20746 0)
(1.71699 -1.20129 0)
(1.66339 -1.24754 0)
(1.66543 -1.21993 0)
(1.73207 -1.17161 0)
(1.76463 -1.23031 0)
(1.79134 -1.14229 0)
(2.27049 -0.741307 0)
(2.85927 -0.209621 0)
(3.09785 0.0280251 0)
(3.02079 0.0124719 0)
(3.00448 0.00542282 0)
(3.00182 0.00299306 0)
(3.00006 0.000594229 0)
(2.99998 2.32123e-05 0)
(2.99999 -1.42145e-05 0)
(3 -5.88653e-06 0)
(1.00532 -0.0313084 0)
(1.91376 -0.81599 0)
(2.10668 -0.815782 0)
(2.01488 -0.929855 0)
(1.94339 -1.00056 0)
(1.86294 -1.09013 0)
(1.8011 -1.1323 0)
(1.76811 -1.14837 0)
(1.76445 -1.1646 0)
(1.73932 -1.20538 0)
(1.71517 -1.19943 0)
(1.85806 -1.07441 0)
(2.09703 -0.888201 0)
(2.50563 -0.578441 0)
(2.9888 -0.13615 0)
(3.07338 0.0290943 0)
(3.00798 0.00758887 0)
(3.00286 0.00378887 0)
(3.0012 0.0021713 0)
(3.00008 0.00047948 0)
(1.12337 0.0630145 0)
(1.95082 0.116323 0)
(2.22721 -0.425249 0)
(2.22876 -0.56214 0)
(2.20506 -0.569896 0)
(2.13181 -0.741131 0)
(2.03591 -0.897101 0)
(1.97058 -0.971921 0)
(1.90357 -1.04065 0)
(1.84897 -1.13378 0)
(1.78899 -1.15987 0)
(1.79377 -1.15339 0)
(1.81213 -1.13137 0)
(1.85327 -1.08692 0)
(2.04508 -0.948832 0)
(2.26134 -0.828093 0)
(2.66598 -0.502122 0)
(3.03626 -0.0907823 0)
(3.05472 0.0239708 0)
(3.00399 0.00464318 0)
(1.15727 0.595168 0)
(1.69111 0.87884 0)
(2.24193 0.522765 0)
(2.37173 -0.070273 0)
(2.35933 -0.308518 0)
(2.33057 -0.355632 0)
(2.28176 -0.488293 0)
(2.2049 -0.643855 0)
(2.14756 -0.730267 0)
(2.09603 -0.875621 0)
(1.98183 -0.9897 0)
(1.92619 -1.05064 0)
(1.88634 -1.07793 0)
(1.86908 -1.09101 0)
(1.86954 -1.05779 0)
(1.89595 -1.04909 0)
(1.96301 -1.01981 0)
(2.16783 -0.897954 0)
(2.38438 -0.784976 0)
(2.7786 -0.436309 0)
(0.882591 1.06848 0)
(1.39183 1.83224 0)
(1.86465 1.58635 0)
(2.2138 0.698369 0)
(2.38715 0.158663 0)
(2.45758 0.118665 0)
(2.44136 -0.147471 0)
(2.40433 -0.321447 0)
(2.35261 -0.458595 0)
(2.29835 -0.637819 0)
(2.20379 -0.785539 0)
(2.12306 -0.887711 0)
(2.06105 -0.941964 0)
(2.00725 -0.990918 0)
(1.97812 -0.982908 0)
(1.95956 -0.987416 0)
(1.95769 -1.00646 0)
(1.97085 -0.991702 0)
(1.99458 -0.992928 0)
(2.06718 -0.979475 0)
(0.883008 1.07171 0)
(1.55612 2.04769 0)
(1.84598 1.86174 0)
(2.03217 1.45432 0)
(2.25334 1.1995 0)
(2.39168 0.447425 0)
(2.50186 0.185286 0)
(2.52217 -0.0463002 0)
(2.46768 -0.245567 0)
(2.45499 -0.330962 0)
(2.39536 -0.481318 0)
(2.33812 -0.586873 0)
(2.28413 -0.659198 0)
(2.22672 -0.728341 0)
(2.18073 -0.76364 0)
(2.14137 -0.793509 0)
(2.08062 -0.856343 0)
(2.05123 -0.898343 0)
(2.02726 -0.941014 0)
(2.05693 -0.958367 0)
(0.832224 0.875563 0)
(1.65437 1.93485 0)
(2.03188 2.07146 0)
(2.10281 1.66659 0)
(2.14548 1.54561 0)
(2.32924 1.13955 0)
(2.4375 0.874831 0)
(2.49639 0.576924 0)
(2.4979 0.392874 0)
(2.50597 0.229815 0)
(2.51684 0.0346934 0)
(2.48418 -0.149893 0)
(2.46113 -0.290342 0)
(2.40445 -0.439089 0)
(2.34708 -0.565274 0)
(2.30954 -0.626431 0)
(2.22533 -0.728109 0)
(2.19364 -0.741714 0)
(2.17615 -0.763975 0)
(2.14862 -0.778786 0)
(0.875173 0.818874 0)
(1.30815 1.38933 0)
(1.94924 2.13072 0)
(2.27779 1.94779 0)
(2.28792 1.69657 0)
(2.30881 1.48427 0)
(2.41728 1.16058 0)
(2.47974 0.922336 0)
(2.52232 0.743425 0)
(2.55887 0.473642 0)
(2.62313 0.294645 0)
(2.58907 0.0237573 0)
(2.58457 -0.142642 0)
(2.52403 -0.325911 0)
(2.47798 -0.436023 0)
(2.43996 -0.472372 0)
(2.40076 -0.489343 0)
(2.39566 -0.448967 0)
(2.32574 -0.540249 0)
(2.32084 -0.524767 0)
(0.995447 0.863518 0)
(1.20935 1.30078 0)
(1.68025 1.9404 0)
(2.15589 2.26128 0)
(2.55176 1.79075 0)
(2.46271 1.7672 0)
(2.6206 1.33602 0)
(2.72097 1.03928 0)
(2.76714 0.70639 0)
(2.73221 0.440275 0)
(2.73727 0.323769 0)
(2.69319 0.125959 0)
(2.67271 0.0378004 0)
(2.6417 -0.0613303 0)
(2.61017 -0.114767 0)
(2.5801 -0.121845 0)
(2.55534 -0.133125 0)
(2.52286 -0.202806 0)
(2.44768 -0.358129 0)
(2.46063 -0.335379 0)
(1.13276 0.936929 0)
(1.20253 1.30259 0)
(1.58214 1.84589 0)
(1.76809 2.16557 0)
(2.37012 1.89862 0)
(2.45944 1.98403 0)
(2.63061 1.47825 0)
(2.66709 1.17275 0)
(2.72862 0.993501 0)
(2.71873 0.91045 0)
(2.7107 0.76479 0)
(2.70072 0.617031 0)
(2.67037 0.489551 0)
(2.68241 0.413742 0)
(2.656 0.275097 0)
(2.66175 0.200461 0)
(2.64243 0.0482426 0)
(2.60767 -0.103946 0)
(2.5439 -0.214834 0)
(2.56051 -0.151879 0)
(1.26067 1.04904 0)
(1.25496 1.35519 0)
(1.46599 1.79404 0)
(1.6869 2.01436 0)
(1.86123 1.92654 0)
(2.02785 1.92907 0)
(2.21124 1.67644 0)
(2.3744 1.51833 0)
(2.40371 1.44907 0)
(2.46165 1.32786 0)
(2.52175 1.14945 0)
(2.57807 1.00196 0)
(2.6031 0.794257 0)
(2.69967 0.695805 0)
(2.69372 0.439023 0)
(2.72635 0.302323 0)
(2.70541 0.104624 0)
(2.67159 0.0202309 0)
(2.63439 0.0578234 0)
(2.61104 0.0450311 0)
(1.33315 1.26006 0)
(1.33648 1.45336 0)
(1.42069 1.85515 0)
(1.65598 2.00498 0)
(1.77416 1.9667 0)
(1.82492 1.96918 0)
(1.99739 1.85841 0)
(2.13272 1.67235 0)
(2.2235 1.5468 0)
(2.34609 1.46143 0)
(2.47828 1.25738 0)
(2.60307 1.10567 0)
(2.65888 0.829395 0)
(2.75464 0.703527 0)
(2.75205 0.46563 0)
(2.75025 0.404127 0)
(2.73842 0.3029 0)
(2.70962 0.335674 0)
(2.70194 0.411082 0)
(2.66007 0.260289 0)
(1.46955 1.46998 0)
(1.44102 1.62487 0)
(1.43627 1.97309 0)
(1.65905 2.03396 0)
(1.68592 2.05466 0)
(1.8269 1.94892 0)
(1.93272 1.88485 0)
(2.10705 1.68024 0)
(2.25924 1.57697 0)
(2.4366 1.47587 0)
(2.57352 1.24152 0)
(2.69605 1.06393 0)
(2.72088 0.929673 0)
(2.73611 0.880311 0)
(2.75536 0.800494 0)
(2.74283 0.783494 0)
(2.72498 0.698087 0)
(2.72576 0.737175 0)
(2.72714 0.658152 0)
(2.72006 0.430185 0)
(1.7005 1.57647 0)
(1.64644 1.71755 0)
(1.56135 2.01985 0)
(1.68939 2.07972 0)
(1.70093 2.09486 0)
(1.89128 1.94658 0)
(1.99179 1.96199 0)
(2.2157 1.69986 0)
(2.37267 1.67154 0)
(2.5236 1.51648 0)
(2.56948 1.52031 0)
(2.67302 1.35559 0)
(2.66626 1.33845 0)