/*--------------------------------*- C++ -*----------------------------------*\
  =========                 |
  \\      /  F ield         | OpenFOAM: The Open Source CFD Toolbox
   \\    /   O peration     | Website:  https://openfoam.org
    \\  /    A nd           | Version:  7
     \\/     M anipulation  |
\*---------------------------------------------------------------------------*/
FoamFile
{
    version     2.0;
    format      ascii;
    class       volScalarField;
    location    "8.3";
    object      T;
}
// * * * * * * * * * * * * * * * * * * * * * * * * * * * * * * * * * * * * * //

dimensions      [0 0 0 1 0 0 0];

internalField   nonuniform List<scalar> 
3700
(
100.503
100.652
100.699
100.694
100.719
100.801
100.945
101.046
101.112
101.117
101.118
101.103
101.081
101.085
101.112
101.118
101.113
101.093
101.07
101.047
100.187
100.177
100.204
100.212
100.206
100.275
100.451
100.556
100.616
100.64
100.641
100.56
100.464
100.469
100.517
100.582
100.585
100.518
100.463
100.426
100.231
100.168
100.128
100.092
100.049
100.008
99.9521
99.9235
99.9107
99.9053
99.9037
99.9215
99.9518
99.9891
100.02
100.037
100.044
100.041
100.033
100.02
100.302
100.187
100.119
100.061
100.042
100.042
100.027
100.028
100.029
100.021
99.9741
99.9575
99.9539
99.982
100.023
100.048
100.067
100.085
100.092
100.092
100.338
100.194
100.064
100.011
100.012
100.032
100.041
100.073
100.099
100.1
100.098
100.09
100.06
100.035
100.027
100.038
100.065
100.098
100.119
100.147
100.339
100.155
99.9586
99.9159
99.9234
99.9562
100.003
100.07
100.111
100.131
100.149
100.149
100.149
100.142
100.128
100.111
100.103
100.105
100.13
100.187
100.264
100.069
99.8985
99.8718
99.8958
99.9231
99.9717
100.041
100.083
100.126
100.16
100.17
100.19
100.195
100.2
100.205
100.204
100.202
100.202
100.234
100.109
99.995
99.8807
99.8627
99.894
99.9211
99.9776
100.039
100.071
100.11
100.145
100.167
100.201
100.22
100.238
100.259
100.272
100.282
100.287
100.322
100.01
99.9217
99.8645
99.8759
99.9407
100.014
100.079
100.117
100.128
100.154
100.162
100.18
100.204
100.232
100.259
100.289
100.319
100.342
100.355
100.395
99.9062
99.8386
99.8358
99.8757
99.9543
100.074
100.159
100.192
100.224
100.26
100.275
100.293
100.306
100.313
100.317
100.33
100.359
100.392
100.422
100.456
99.7752
99.7254
99.8136
99.8779
99.9525
100.108
100.203
100.226
100.27
100.322
100.35
100.37
100.39
100.397
100.406
100.416
100.432
100.451
100.499
100.496
99.6464
99.6301
99.8006
99.8881
99.9858
100.182
100.238
100.243
100.295
100.354
100.393
100.422
100.449
100.461
100.478
100.495
100.516
100.537
100.575
100.568
99.5523
99.5653
99.7942
99.9142
100.111
100.309
100.322
100.366
100.42
100.444
100.466
100.484
100.504
100.519
100.543
100.57
100.597
100.623
100.657
100.654
99.4933
99.533
99.7668
100.009
100.268
100.403
100.429
100.481
100.529
100.559
100.571
100.583
100.594
100.609
100.63
100.654
100.68
100.708
100.726
100.736
99.4496
99.5593
99.8851
100.185
100.393
100.462
100.51
100.559
100.603
100.632
100.645
100.661
100.68
100.704
100.732
100.753
100.77
100.783
100.779
100.774
99.415
99.7386
100.058
100.328
100.485
100.537
100.592
100.641
100.684
100.704
100.72
100.74
100.765
100.794
100.814
100.823
100.821
100.814
100.79
100.747
99.3653
99.8652
100.232
100.447
100.587
100.68
100.732
100.77
100.795
100.806
100.816
100.832
100.85
100.857
100.856
100.844
100.79
100.676
100.516
100.28
99.5274
100.125
100.463
100.657
100.76
100.81
100.843
100.868
100.879
100.881
100.881
100.882
100.881
100.859
100.774
100.623
100.358
100.1
100.005
99.9978
100.118
100.524
100.737
100.833
100.885
100.905
100.923
100.926
100.92
100.908
100.892
100.837
100.726
100.474
100.15
100.011
99.9967
99.9985
99.9992
99.9998
100.694
100.834
100.911
100.945
100.958
100.952
100.955
100.935
100.844
100.759
100.57
100.228
100.028
99.9956
99.9977
99.9989
99.9998
100
100
100
100.996
100.994
100.99
100.984
100.975
100.952
100.891
100.477
99.8332
100
100
100
100
100
100
100
100
100
100
100
100.997
100.994
100.988
100.974
100.948
100.853
100.495
100.019
100
100
100
100
100
100
100
100
100
100
100
100
100.993
100.994
100.989
100.97
100.918
100.616
100.025
99.9996
100
100
100
100
100
100
100
100
100
100
100
100
100.988
100.993
100.989
100.956
100.789
100.222
99.9969
100
100
100
100
100
100
100
100
100
100
100
100
100
100.982
100.993
100.987
100.918
100.584
99.9918
100
100
100
100
100
100
100
100
100
100
100
100
100
100
100.975
100.989
100.984
100.839
100.262
100
100
100
100
100
100
100
100
100
100
100
100
100
100
100
100.971
100.978
100.967
100.696
99.9927
100
100
100
100
100
100
100
100
100
100
100
100
100
100
100
100.978
100.971
100.913
100.472
100
100
100
100
100
100
100
100
100
100
100
100
100
100
100
100
101.005
100.971
100.817
100.125
100
100
100
100
100
100
100
100
100
100
100
100
100
100
100
100
101.017
100.943
100.684
99.9965
100
100
100
100
100
100
100
100
100
100
100
100
100
100
100
100
101.026
100.907
100.512
100
100
100
100
100
100
100
100
100
100
100
100
100
100
100
100
100
101.03
100.859
100.319
100
100
100
100
100
100
100
100
100
100
100
100
100
100
100
100
100
101.032
100.8
100.122
100
100
100
100
100
100
100
100
100
100
100
100
100
100
100
100
100
101.021
100.735
100.007
100
100
100
100
100
100
100
100
100
100
100
100
100
100
100
100
100
101.01
100.654
100
100
100
100
100
100
100
100
100
100
100
100
100
100
100
100
100
100
100.987
100.569
100
100
100
100
100
100
100
100
100
100
100
100
100
100
100
100
100
100
100.962
100.455
100
100
100
100
100
100
100
100
100
100
100
100
100
100
100
100
100
100
100.912
100.239
100
100
100
100
100
100
100
100
100
100
100
100
100
100
100
100
100
100
100.852
100.005
100
100
100
100
100
100
100
100
100
100
100
100
100
100
100
100
100
100
100.811
100
100
100
100
100
100
100
100
100
100
100
100
100
100
100
100
100
100
100
100.812
100
100
100
100
100
100
100
100
100
100
100
100
100
100
100
100
100
100
100
100.851
100.005
100
100
100
100
100
100
100
100
100
100
100
100
100
100
100
100
100
100
100.91
100.235
100
100
100
100
100
100
100
100
100
100
100
100
100
100
100
100
100
100
100.964
100.455
100
100
100
100
100
100
100
100
100
100
100
100
100
100
100
100
100
100
100.989
100.574
100
100
100
100
100
100
100
100
100
100
100
100
100
100
100
100
100
100
101.011
100.655
100
100
100
100
100
100
100
100
100
100
100
100
100
100
100
100
100
100
101.021
100.732
100.004
100
100
100
100
100
100
100
100
100
100
100
100
100
100
100
100
100
101.031
100.798
100.12
100
100
100
100
100
100
100
100
100
100
100
100
100
100
100
100
100
101.029
100.858
100.316
100
100
100
100
100
100
100
100
100
100
100
100
100
100
100
100
100
101.026
100.908
100.511
100
100
100
100
100
100
100
100
100
100
100
100
100
100
100
100
100
101.017
100.943
100.688
99.9965
100
100
100
100
100
100
100
100
100
100
100
100
100
100
100
100
101.005
100.973
100.819
100.123
100
100
100
100
100
100
100
100
100
100
100
100
100
100
100
100
100.98
100.972
100.913
100.474
100
100
100
100
100
100
100
100
100
100
100
100
100
100
100
100
100.97
100.977
100.965
100.693
99.9927
100
100
100
100
100
100
100
100
100
100
100
100
100
100
100
100.974
100.987
100.983
100.839
100.255
100
100
100
100
100
100
100
100
100
100
100
100
100
100
100
100.981
100.993
100.987
100.918
100.587
99.9918
100
100
100
100
100
100
100
100
100
100
100
100
100
100
100.988
100.993
100.989
100.954
100.792
100.23
99.9969
100
100
100
100
100
100
100
100
100
100
100
100
100
100.993
100.994
100.99
100.971
100.921
100.618
100.025
99.9996
100
100
100
100
100
100
100
100
100
100
100
100
100.998
100.995
100.989
100.975
100.95
100.852
100.489
100.017
100
100
100
100
100
100
100
100
100
100
100
100
100.997
100.995
100.991
100.984
100.974
100.951
100.891
100.478
99.833
100
100
100
100
100
100
100
100
100
100
100
100.695
100.834
100.912
100.945
100.957
100.951
100.954
100.935
100.845
100.76
100.571
100.23
100.029
99.9956
99.9977
99.9989
99.9998
100
100
100
100.12
100.522
100.736
100.832
100.884
100.904
100.922
100.927
100.921
100.909
100.892
100.837
100.724
100.472
100.15
100.011
99.9967
99.9985
99.9992
99.9998
99.5361
100.129
100.462
100.657
100.761
100.809
100.842
100.868
100.88
100.882
100.881
100.881
100.881
100.859
100.773
100.623
100.358
100.1
100.005
99.9978
99.3117
99.8758
100.226
100.44
100.583
100.676
100.731
100.77
100.797
100.807
100.816
100.832
100.85
100.857
100.856
100.844
100.791
100.676
100.516
100.28
99.4028
99.7216
100.049
100.316
100.478
100.536
100.593
100.641
100.684
100.704
100.719
100.739
100.764
100.793
100.814
100.824
100.821
100.815
100.79
100.747
99.5096
99.5829
99.9057
100.19
100.394
100.462
100.509
100.559
100.603
100.631
100.644
100.66
100.679
100.704
100.732
100.754
100.771
100.783
100.779
100.774
99.5878
99.5879
99.7661
100.029
100.272
100.404
100.428
100.479
100.528
100.559
100.571
100.582
100.594
100.608
100.63
100.655
100.681
100.708
100.726
100.736
99.6619
99.6156
99.7603
99.917
100.118
100.312
100.323
100.366
100.421
100.446
100.467
100.485
100.504
100.52
100.544
100.571
100.598
100.622
100.657
100.654
99.7456
99.6654
99.7571
99.887
99.9914
100.178
100.249
100.244
100.295
100.354
100.393
100.422
100.45
100.462
100.479
100.496
100.516
100.537
100.575
100.568
99.845
99.7489
99.7652
99.8743
99.9483
100.076
100.2
100.226
100.268
100.32
100.348
100.369
100.39
100.398
100.407
100.416
100.431
100.45
100.498
100.496
99.9493
99.857
99.8003
99.873
99.9487
100.05
100.152
100.19
100.22
100.256
100.272
100.29
100.304
100.312
100.317
100.33
100.358
100.39
100.421
100.456
100.057
99.9673
99.8609
99.8727
99.9304
99.9986
100.068
100.111
100.12
100.148
100.158
100.176
100.199
100.23
100.258
100.288
100.318
100.34
100.354
100.395
100.2
100.054
99.9006
99.8759
99.8767
99.9066
99.9623
100.021
100.056
100.101
100.137
100.162
100.199
100.22
100.238
100.259
100.271
100.281
100.287
100.323
100.313
100.122
99.9352
99.8827
99.8809
99.9079
99.9502
100.017
100.065
100.114
100.158
100.169
100.192
100.197
100.201
100.204
100.203
100.203
100.204
100.236
100.339
100.171
99.9794
99.9139
99.9121
99.9355
99.9687
100.037
100.1
100.133
100.153
100.153
100.154
100.145
100.127
100.111
100.102
100.106
100.131
100.187
100.327
100.184
100.055
99.9957
99.9994
100.016
100.014
100.059
100.1
100.114
100.11
100.1
100.065
100.036
100.024
100.035
100.063
100.097
100.118
100.145
100.276
100.18
100.118
100.079
100.058
100.043
100.02
100.033
100.045
100.043
99.9954
99.9669
99.9529
99.9758
100.017
100.044
100.064
100.081
100.087
100.086
100.216
100.166
100.147
100.118
100.085
100.029
99.9744
99.9447
99.92
99.9115
99.9007
99.9142
99.9447
99.9822
100.013
100.03
100.038
100.033
100.026
100.015
100.224
100.258
100.314
100.394
100.47
100.51
100.516
100.593
100.635
100.597
100.502
100.518
100.54
100.507
100.4
100.369
100.412
100.505
100.54
100.492
100.549
100.772
100.768
100.808
100.858
100.9
100.954
101.048
101.119
101.119
101.106
101.112
101.117
101.107
101.075
101.058
101.077
101.092
101.089
101.074
101.036
101.032
101.014
100.993
100.966
100.946
100.917
100.89
100.881
100.882
100.883
100.877
100.863
100.842
100.83
100.827
100.823
100.819
100.812
100.801
100.554
100.663
100.73
100.737
100.758
100.782
100.793
100.806
100.815
100.815
100.811
100.806
100.802
100.799
100.797
100.794
100.789
100.785
100.781
100.777
100.022
100.084
100.206
100.284
100.398
100.496
100.564
100.633
100.668
100.669
100.667
100.671
100.681
100.697
100.711
100.712
100.708
100.705
100.707
100.714
100.077
100.082
100.089
100.088
100.098
100.184
100.347
100.459
100.512
100.538
100.538
100.549
100.566
100.587
100.604
100.609
100.608
100.608
100.613
100.628
100.134
100.137
100.138
100.132
100.122
100.124
100.153
100.256
100.399
100.453
100.46
100.473
100.495
100.515
100.527
100.532
100.531
100.531
100.535
100.549
100.186
100.185
100.186
100.167
100.148
100.15
100.162
100.173
100.221
100.312
100.394
100.428
100.451
100.475
100.486
100.488
100.487
100.484
100.486
100.495
100.231
100.238
100.23
100.198
100.182
100.185
100.193
100.203
100.204
100.203
100.25
100.35
100.411
100.445
100.461
100.464
100.463
100.458
100.459
100.465
100.294
100.284
100.276
100.253
100.224
100.22
100.221
100.217
100.214
100.208
100.195
100.22
100.324
100.392
100.424
100.443
100.441
100.438
100.444
100.446
100.358
100.339
100.323
100.297
100.259
100.25
100.242
100.23
100.223
100.215
100.203
100.189
100.204
100.297
100.373
100.418
100.414
100.42
100.432
100.431
100.427
100.393
100.373
100.345
100.302
100.277
100.261
100.238
100.231
100.225
100.211
100.2
100.186
100.189
100.264
100.356
100.381
100.407
100.419
100.414
100.539
100.435
100.389
100.377
100.353
100.325
100.288
100.264
100.252
100.241
100.228
100.216
100.201
100.177
100.178
100.221
100.307
100.362
100.375
100.38
100.621
100.549
100.461
100.42
100.398
100.376
100.339
100.294
100.262
100.243
100.234
100.227
100.212
100.191
100.169
100.155
100.169
100.22
100.276
100.321
100.609
100.59
100.542
100.475
100.422
100.383
100.356
100.323
100.284
100.268
100.255
100.239
100.222
100.199
100.177
100.155
100.143
100.13
100.143
100.222
100.487
100.548
100.542
100.517
100.47
100.411
100.378
100.354
100.321
100.292
100.262
100.233
100.21
100.189
100.17
100.155
100.136
100.115
100.097
100.106
100.25
100.376
100.446
100.482
100.475
100.449
100.406
100.365
100.327
100.292
100.263
100.229
100.206
100.187
100.174
100.161
100.142
100.115
100.089
100.071
100.043
100.145
100.253
100.335
100.389
100.416
100.405
100.38
100.342
100.303
100.275
100.244
100.219
100.195
100.17
100.146
100.125
100.101
100.082
100.06
100.002
100.015
100.065
100.155
100.233
100.291
100.33
100.348
100.339
100.315
100.282
100.248
100.215
100.187
100.156
100.13
100.117
100.104
100.09
100.064
100
100
100.003
100.024
100.079
100.15
100.208
100.249
100.279
100.291
100.282
100.261
100.228
100.198
100.17
100.141
100.124
100.109
100.089
100.056
100
100
100
100.001
100.006
100.031
100.08
100.139
100.187
100.216
100.241
100.244
100.236
100.215
100.188
100.157
100.127
100.103
100.081
100.049
100
100
100
100
100
100.001
100.008
100.032
100.078
100.128
100.17
100.192
100.21
100.209
100.202
100.184
100.156
100.125
100.1
100.069
100
100
100
100
100
100
100
100.001
100.008
100.032
100.073
100.117
100.154
100.175
100.187
100.185
100.178
100.161
100.137
100.097
100
100
100
100
100
100
100
100
100
100.002
100.008
100.029
100.065
100.108
100.139
100.16
100.168
100.167
100.162
100.139
100
100
100
100
100
100
100
100
100
100
100
100.001
100.007
100.024
100.057
100.097
100.127
100.145
100.154
100.151
100
100
100
100
100
100
100
100
100
100
100
100
100
100.001
100.006
100.019
100.048
100.085
100.113
100.137
100
100
100
100
100
100
100
100
100
100
100
100
100
100
100
100.001
100.004
100.016
100.041
100.105
100.597
100.653
100.61
100.416
100.142
100.017
100.001
100
100
100
100
100
100
100
100
100.671
100.663
100.518
100.217
100.022
100
100
100
100
100
100
100
100
100
100
100.705
100.635
100.373
100.073
100.002
100
100
100
100
100
100
100
100
100
100
100.72
100.518
100.167
100.009
100
100
100
100
100
100
100
100
100
100
100
100.651
100.284
100.024
100
100
100
100
100
100
100
100
100
100
100
100
100.396
100.038
100
100
100
100
100
100
100
100
100
100
100
100
100
100.043
100
100
100
100
100
100
100
100
100
100
100
100
100
100
99.9995
100
100
100
100
100
100
100
100
100
100
100
100
100
100
100
100
100
100
100
100
100
100
100
100
100
100
100
100
100
100
100
100
100
100
100
100
100
100
100
100
100
100
100
100
100
100
100
100
100
100
100
100
100
100
100
100
100
100
100
100
100
100
100
100
100
100
100
100
100
100
100
100
100
100
100
100
100
100
100
100
100
100
100
100
100
100
100
100
100
100
100
100
100
100
100
100
100
100
100
100
100
100
100
100
100
100
100
100
100
100
100
100
100
100
100
100
100
100
100
100
100
100
100
100
100
100
100
100
100
100
100
100
100
100
100
100
100
100
100
100
100
100
100
100
100
100
100
100
100
100
100
100
100
100
100
100
100
100
100
100
100
100
100
100
100
100
100
100
100
100
100
100
100
100
100
100
100
100
100
100
100
100
100
100
100
100
100
100
100
100
100
100
100
100
100
100
100
100
100
100
100
100
100
100
100
100
100
100
100
100
100
100
100
100
100
100
100
100
100
100
100
100
100
100
100
100
100
100
100
100
100
100
100
100
100
100
100
100
100
100
100
100
100
100
100
100
100
100
100
100
100
100
100
100
100
100
100
100
100
100
100
100
100
100
100
100
100
100
100
100
100
100
100
100
100
100
100
100
100
100
100
100
100
100
100
100
100
100
100
100
100
100
100
100
100
100
100
100
100
100
100
100
100
100
100
100
100
100
100
100
100
100
100
100
100
100
100
100
100
100
100
100
100
100
100
100
100
100
100
100
100
100
100
100
100
100
100
100
100
100
100
100
100
100
100
100
100
100
100
100
100
100
100
100
100
100
100
100
100
100
100
100
100
100
100
100
100
100
100
100
100
100
100
100
100
100
100
100
100
100
100
100
100
100
100
100
100
100
100
100
100
100
100
100
100
100
100
100
100
100
100
100
100
100
100
100
100
100
100
100
100
100
100
100
100
100
100
100
100
100
100
100
100
100
100
100
100
100
100
100
100
100
100
100
100
100
100
100
100
100
100
100
100
100
100
100
100
100
100
100
100
100
100
100
100
100
100
100
100
100
100
100
100
100
100
100
100
100
100
100
100
100
100
100
100
100
100
100
100
100
100
100
100
100
100
100
100
100
100
100
100
100
100
100
100
100
100
100
100
100
100
100
100
100
100
100
100
100
100
100
100
100
100
100
100
100
100
100
100
100
100
100
100
100
100
100
100
100
100
100
100
100
100
100
100
100
100
100
100
100
100
100
100
100
100
100
100
100
100
100
100
100
100
100
100
100
100
100
100
100
100
100
100
100
100
100
100
100
100
100
100
100
100
100
100
100
100
100
100
100
100
100
100
100
100
100
100
100
100
100
100
100
100
100
100
100
100
100
100
100
100
100
100
100
100
100
100
100
100
100
100
100
100
100
100
100
100
100
100
100
100
100
100
100
100
100
100
100
100
100
100
100
100
100
100
100
100
100
100
100
100
100
100
100
100
100
100
100
100
100
100
100
100
100
100
100
100
100
100
100
100
100
100
100
100
100
100
100
100
100
100
100
100
100
100
100
100
100
100
100
100
100
100
100
100
100
100
100
100
100
100
100
100
100
100
100
100
100
100
100
100
100
100
100
100
100
100
100
100
100
100
100
100
100
100
100
100
100
100
100
100
100
100
100
100
100
100
100
100
100
100
100
100
100
100
100
100
100
100
100
100
100
100
100
100
100
100
100
100
100
100
100
100
100
100
100
100
100
100
100
100
100
100
100
100
100
100
100
100
100
100
100
100
100
100
100
100
100
100
100
100
100
100
100
100
100
100
100
100
100
100
100
100
100
100
100
100
100
100
100
100
100
100
100
100
100
100
100
100
100
100
100
100
100
100
100
100
100
100
100
100
100
100
100
100
100
100
100
100
100
100
100
100
100
100
100
100
100
100
100
100
100
100
100
100
100
100
100
100
100
100
100
100
100
100
100
100
100
100
100
100
100
100
100
100
100
100
100
100
100
100
100
100
100
99.9995
100
100
100
100
100
100
100
100
100
100
100
100
100
100
100.043
100
100
100
100
100
100
100
100
100
100
100
100
100
100
100.396
100.038
100
100
100
100
100
100
100
100
100
100
100
100
100
100.651
100.284
100.024
100
100
100
100
100
100
100
100
100
100
100
100
100.72
100.518
100.167
100.009
100
100
100
100
100
100
100
100
100
100
100
100.705
100.635
100.373
100.073
100.002
100
100
100
100
100
100
100
100
100
100
100.671
100.663
100.518
100.217
100.022
100
100
100
100
100
100
100
100
100
100
100.597
100.653
100.61
100.416
100.142
100.017
100.001
100
100
100
100
100
100
100
100
100.539
100.62
100.609
100.487
100.25
100.043
100.002
100
100
100
100
100
100
100
100
100.437
100.548
100.589
100.547
100.377
100.145
100.015
100
100
100
100
100
100
100
100
100.39
100.464
100.542
100.542
100.446
100.253
100.065
100.003
100
100
100
100
100
100
100
100.374
100.42
100.474
100.518
100.482
100.335
100.155
100.024
100.001
100
100
100
100
100
100
100.351
100.401
100.422
100.468
100.475
100.389
100.233
100.079
100.006
100
100
100
100
100
100
100.32
100.377
100.385
100.409
100.448
100.415
100.291
100.15
100.031
100.001
100
100
100
100
100
100.286
100.334
100.36
100.383
100.405
100.405
100.33
100.209
100.08
100.008
100
100
100
100
100
100.263
100.289
100.32
100.355
100.367
100.381
100.348
100.249
100.139
100.032
100.001
100
100
100
100
100.253
100.263
100.284
100.32
100.325
100.342
100.339
100.279
100.187
100.078
100.008
100
100
100
100
100.244
100.248
100.268
100.292
100.29
100.302
100.314
100.29
100.217
100.128
100.032
100.002
100
100
100
100.232
100.236
100.251
100.264
100.262
100.272
100.281
100.281
100.241
100.17
100.073
100.008
100
100
100
100.219
100.227
100.236
100.234
100.231
100.245
100.248
100.26
100.244
100.192
100.117
100.029
100.001
100
100
100.202
100.21
100.219
100.209
100.209
100.221
100.216
100.228
100.236
100.21
100.154
100.065
100.007
100
100
100.177
100.189
100.198
100.189
100.189
100.196
100.187
100.198
100.216
100.209
100.175
100.108
100.025
100.001
100
100.179
100.169
100.175
100.17
100.175
100.17
100.155
100.169
100.188
100.202
100.187
100.139
100.057
100.006
100
100.225
100.157
100.154
100.153
100.161
100.146
100.131
100.142
100.157
100.184
100.185
100.16
100.097
100.019
100.001
100.312
100.172
100.142
100.132
100.14
100.123
100.117
100.126
100.128
100.156
100.178
100.168
100.127
100.048
100.004
100.363
100.224
100.132
100.114
100.114
100.1
100.101
100.109
100.103
100.125
100.161
100.167
100.145
100.085
100.016
100.373
100.277
100.144
100.098
100.089
100.082
100.089
100.088
100.08
100.1
100.137
100.162
100.154
100.113
100.041
100.379
100.321
100.222
100.105
100.071
100.061
100.065
100.055
100.049
100.069
100.097
100.139
100.151
100.137
100.105
100.426
100.393
100.373
100.34
100.298
100.273
100.256
100.232
100.231
100.23
100.216
100.202
100.185
100.188
100.267
100.361
100.383
100.407
100.418
100.413
100.355
100.338
100.325
100.297
100.264
100.249
100.237
100.227
100.226
100.219
100.204
100.188
100.201
100.292
100.379
100.421
100.414
100.419
100.431
100.43
100.291
100.286
100.277
100.251
100.222
100.218
100.219
100.216
100.213
100.204
100.19
100.212
100.314
100.391
100.426
100.443
100.44
100.437
100.443
100.446
100.233
100.235
100.23
100.208
100.187
100.186
100.19
100.203
100.202
100.197
100.242
100.341
100.397
100.443
100.458
100.463
100.462
100.457
100.458
100.464
100.186
100.184
100.186
100.169
100.153
100.154
100.165
100.174
100.215
100.307
100.386
100.421
100.445
100.475
100.484
100.486
100.487
100.486
100.487
100.496
100.129
100.14
100.133
100.126
100.12
100.124
100.159
100.261
100.391
100.452
100.464
100.477
100.495
100.512
100.521
100.527
100.532
100.535
100.541
100.552
100.071
100.093
100.107
100.095
100.108
100.202
100.362
100.464
100.501
100.526
100.544
100.559
100.571
100.582
100.591
100.6
100.609
100.617
100.624
100.634
100.023
100.05
100.178
100.279
100.413
100.519
100.581
100.637
100.647
100.651
100.667
100.686
100.692
100.694
100.696
100.701
100.708
100.715
100.719
100.722
100.589
100.619
100.686
100.727
100.772
100.807
100.808
100.805
100.797
100.798
100.808
100.815
100.81
100.797
100.788
100.788
100.791
100.792
100.79
100.783
101.048
101.017
100.996
100.989
100.972
100.951
100.92
100.889
100.875
100.876
100.878
100.874
100.86
100.84
100.828
100.825
100.824
100.82
100.812
100.802
)
;

boundaryField
{
    inlet
    {
        type            fixedValue;
        value           uniform 100;
    }
    outlet
    {
        type            inletOutlet;
        inletValue      uniform 100;
        value           nonuniform List<scalar> 
50
(
100.38
100.321
100.222
100.106
100.071
100.06
100.064
100.056
100.049
100.069
100.097
100.139
100.151
100.137
100.105
100.801
100.777
100.714
100.628
100.549
100.495
100.465
100.446
100.431
100.414
100.413
100.43
100.446
100.464
100.496
100.552
100.634
100.722
100.783
100.802
100.379
100.321
100.222
100.105
100.071
100.061
100.065
100.055
100.049
100.069
100.097
100.139
100.151
100.137
100.105
)
;
    }
    airfoil
    {
        type            zeroGradient;
    }
    top
    {
        type            symmetryPlane;
    }
    bottom
    {
        type            symmetryPlane;
    }
    defaultFaces
    {
        type            empty;
    }
}


// ************************************************************************* //
