/*--------------------------------*- C++ -*----------------------------------*\
  =========                 |
  \\      /  F ield         | OpenFOAM: The Open Source CFD Toolbox
   \\    /   O peration     | Website:  https://openfoam.org
    \\  /    A nd           | Version:  7
     \\/     M anipulation  |
\*---------------------------------------------------------------------------*/
FoamFile
{
    version     2.0;
    format      ascii;
    class       volScalarField;
    location    "6.8";
    object      rho;
}
// * * * * * * * * * * * * * * * * * * * * * * * * * * * * * * * * * * * * * //

dimensions      [1 -3 0 0 0 0 0];

internalField   nonuniform List<scalar> 
3700
(
0.227421
0.33637
0.386104
0.46397
0.467791
0.466756
0.473692
0.502698
0.575941
0.613145
0.637653
0.667698
0.674515
0.689095
0.711028
0.710533
0.699175
0.687427
0.697594
0.731634
0.177588
0.145384
0.158738
0.182673
0.172024
0.160939
0.172693
0.215484
0.262452
0.269546
0.247357
0.232973
0.242807
0.266951
0.285022
0.295104
0.302569
0.283612
0.277662
0.26605
0.190116
0.139585
0.119105
0.0965699
0.0845698
0.0854064
0.0838267
0.0901312
0.095808
0.0975025
0.093535
0.0959679
0.099618
0.10971
0.124305
0.140763
0.15679
0.169523
0.180607
0.185511
0.191667
0.137799
0.0978645
0.0731579
0.0699611
0.0775955
0.0865235
0.111121
0.130814
0.140729
0.142307
0.146474
0.148774
0.150781
0.155273
0.167805
0.18462
0.206438
0.231828
0.2637
0.181894
0.122022
0.078592
0.0606206
0.0609203
0.0679815
0.0815768
0.112819
0.137374
0.157791
0.178907
0.193072
0.206688
0.212337
0.21305
0.208143
0.210559
0.226993
0.261197
0.322164
0.149118
0.105125
0.0664254
0.0561482
0.0589642
0.0661502
0.07868
0.107057
0.131194
0.158909
0.194449
0.217186
0.247512
0.27554
0.299381
0.306526
0.309995
0.316847
0.329033
0.389779
0.115989
0.0906683
0.0588378
0.0560298
0.0624293
0.0723395
0.0932225
0.115318
0.131577
0.155214
0.195191
0.225895
0.272167
0.315947
0.356162
0.398873
0.431149
0.464825
0.477124
0.539743
0.0977212
0.0726758
0.0540795
0.0571069
0.0724929
0.102608
0.143564
0.170151
0.181561
0.197695
0.211168
0.239312
0.290867
0.347438
0.404858
0.472653
0.541514
0.612226
0.658967
0.772203
0.0754049
0.056053
0.0500689
0.0560316
0.0752571
0.120448
0.175374
0.216623
0.257797
0.300077
0.326191
0.360958
0.39352
0.441216
0.491159
0.561355
0.656102
0.769447
0.863673
1.04854
0.0514967
0.0440957
0.0496192
0.0536778
0.069111
0.122281
0.176753
0.222722
0.299209
0.385173
0.45228
0.519062
0.590781
0.662772
0.713441
0.777911
0.857024
0.980561
1.13936
1.3466
0.0348514
0.0346362
0.0465911
0.0527955
0.0654968
0.117873
0.164716
0.207263
0.303108
0.433219
0.548416
0.658537
0.784395
0.887049
0.994228
1.10456
1.21487
1.33039
1.58952
1.58053
0.0244821
0.0263776
0.0416017
0.0519716
0.0676318
0.145811
0.195236
0.258367
0.375752
0.518075
0.686809
0.841715
1.01187
1.15403
1.32511
1.51087
1.69801
1.85934
2.14679
2.08408
0.0189919
0.0209265
0.0367332
0.0563717
0.113622
0.259309
0.360475
0.522696
0.732382
0.925063
1.10829
1.26886
1.43597
1.5933
1.79233
2.04961
2.32238
2.57714
2.92368
2.89834
0.0162305
0.0191876
0.0389934
0.0936603
0.230976
0.41198
0.584341
0.822113
1.11147
1.42224
1.66847
1.89816
2.11814
2.33434
2.60405
2.91209
3.2362
3.58472
3.89486
4.17083
0.0152286
0.0263548
0.0705629
0.173645
0.366236
0.548382
0.80844
1.1521
1.5623
2.00181
2.36482
2.70388
3.01774
3.34852
3.75803
4.15207
4.53262
4.89196
5.10266
5.26003
0.0127905
0.0401955
0.124952
0.25949
0.542591
0.883575
1.38522
1.94486
2.60301
3.14793
3.57099
3.96438
4.34538
4.75923
5.19775
5.47551
5.65346
5.73759
5.61365
5.44599
0.00912417
0.0531485
0.227379
0.48692
1.09765
2.00118
2.82579
3.63564
4.43933
4.96681
5.2866
5.60773
5.89059
6.09643
6.21226
6.10581
5.80224
5.06511
3.88315
2.64046
0.0488163
0.216691
0.674371
1.65855
2.92342
4.01782
4.94326
5.90451
6.62679
6.68727
6.59418
6.59561
6.53494
6.29741
5.58803
4.26008
2.91238
1.86147
1.4252
1.39004
0.431322
1.21738
2.78058
4.41173
5.83169
6.7367
7.52435
8.15161
7.94856
7.32502
6.73473
5.99869
4.73121
3.25535
2.00026
1.44273
1.3853
1.39298
1.39629
1.39923
3.22863
5.05436
6.79781
7.90377
8.58522
8.87659
9.0822
8.6792
6.33299
4.47125
3.30008
2.17363
1.50565
1.3818
1.38985
1.39473
1.39883
1.39997
1.40003
1.40002
9.66256
9.60069
9.54951
9.51164
9.60279
9.37961
8.3616
3.3629
0.877517
1.40001
1.40001
1.40001
1.40001
1.40001
1.40001
1.40001
1.40001
1.40001
1.40001
1.40001
9.64448
9.56203
9.47337
9.36383
9.33757
8.02526
3.68988
1.43774
1.40001
1.40001
1.40001
1.40001
1.40001
1.40001
1.40001
1.40001
1.40001
1.40001
1.40001
1.40001
9.4474
9.50018
9.4759
9.34785
8.9774
4.59765
1.42965
1.39956
1.40001
1.40001
1.40001
1.40001
1.40001
1.40001
1.40001
1.40001
1.40001
1.40001
1.40001
1.40001
9.28587
9.46338
9.45233
9.04407
6.4878
1.94296
1.39329
1.40013
1.4
1.40001
1.40001
1.40001
1.40001
1.40001
1.40001
1.40001
1.40001
1.40001
1.40001
1.40001
9.0808
9.46531
9.44386
8.33406
3.90494
1.36412
1.40049
1.4
1.40001
1.40001
1.40001
1.40001
1.40001
1.40001
1.40001
1.40001
1.40001
1.40001
1.40001
1.40001
8.90213
9.41958
9.46513
7.0266
2.01805
1.40001
1.40001
1.40001
1.40001
1.40001
1.40001
1.40001
1.40001
1.40001
1.40001
1.40001
1.40001
1.40001
1.40001
1.40001
8.81034
9.24379
9.25049
4.86144
1.36343
1.40001
1.40001
1.40001
1.40001
1.40001
1.40001
1.40001
1.40001
1.40001
1.40001
1.40001
1.40001
1.40001
1.40001
1.40001
8.98098
9.1636
8.34665
2.87548
1.4
1.40001
1.40001
1.40001
1.40001
1.40001
1.40001
1.40001
1.40001
1.40001
1.40001
1.40001
1.40001
1.40001
1.40001
1.40001
9.70453
9.30311
6.80735
1.62917
1.40001
1.40001
1.40001
1.40001
1.40001
1.40001
1.40001
1.40001
1.40001
1.40001
1.40001
1.40001
1.40001
1.40001
1.40001
1.40001
10.0403
8.84366
4.84677
1.38332
1.40001
1.40001
1.40001
1.40001
1.40001
1.40001
1.40001
1.40001
1.40001
1.40001
1.40001
1.40001
1.40001
1.40001
1.40001
1.40001
10.2649
8.30027
3.25233
1.40001
1.40001
1.40001
1.40001
1.40001
1.40001
1.40001
1.40001
1.40001
1.40001
1.40001
1.40001
1.40001
1.40001
1.40001
1.40001
1.40001
10.365
7.53103
2.24024
1.40001
1.40001
1.40001
1.40001
1.40001
1.40001
1.40001
1.40001
1.40001
1.40001
1.40001
1.40001
1.40001
1.40001
1.40001
1.40001
1.40001
10.4284
6.5808
1.64998
1.40001
1.40001
1.40001
1.40001
1.40001
1.40001
1.40001
1.40001
1.40001
1.40001
1.40001
1.40001
1.40001
1.40001
1.40001
1.40001
1.40001
10.2642
5.56103
1.41486
1.40001
1.40001
1.40001
1.40001
1.40001
1.40001
1.40001
1.40001
1.40001
1.40001
1.40001
1.40001
1.40001
1.40001
1.40001
1.40001
1.40001
10.0292
4.39314
1.40001
1.40001
1.40001
1.40001
1.40001
1.40001
1.40001
1.40001
1.40001
1.40001
1.40001
1.40001
1.40001
1.40001
1.40001
1.40001
1.40001
1.40001
9.52822
3.52073
1.40001
1.40001
1.40001
1.40001
1.40001
1.40001
1.40001
1.40001
1.40001
1.40001
1.40001
1.40001
1.40001
1.40001
1.40001
1.40001
1.40001
1.40001
9.25136
2.70557
1.40001
1.40001
1.40001
1.40001
1.40001
1.40001
1.40001
1.40001
1.40001
1.40001
1.40001
1.40001
1.40001
1.40001
1.40001
1.40001
1.40001
1.40001
8.81801
1.91618
1.40001
1.40001
1.40001
1.40001
1.40001
1.40001
1.40001
1.40001
1.40001
1.40001
1.40001
1.40001
1.40001
1.40001
1.40001
1.40001
1.40001
1.40001
7.83885
1.40768
1.40001
1.40001
1.40001
1.40001
1.40001
1.40001
1.40001
1.40001
1.40001
1.40001
1.40001
1.40001
1.40001
1.40001
1.40001
1.40001
1.40001
1.40001
6.4679
1.40007
1.40001
1.40001
1.40001
1.40001
1.40001
1.40001
1.40001
1.40001
1.40001
1.40001
1.40001
1.40001
1.40001
1.40001
1.40001
1.40001
1.40001
1.40001
6.4772
1.40007
1.40001
1.40001
1.40001
1.40001
1.40001
1.40001
1.40001
1.40001
1.40001
1.40001
1.40001
1.40001
1.40001
1.40001
1.40001
1.40001
1.40001
1.40001
7.83306
1.40736
1.40001
1.40001
1.40001
1.40001
1.40001
1.40001
1.40001
1.40001
1.40001
1.40001
1.40001
1.40001
1.40001
1.40001
1.40001
1.40001
1.40001
1.40001
8.8016
1.90705
1.40001
1.40001
1.40001
1.40001
1.40001
1.40001
1.40001
1.40001
1.40001
1.40001
1.40001
1.40001
1.40001
1.40001
1.40001
1.40001
1.40001
1.40001
9.2811
2.70223
1.40001
1.40001
1.40001
1.40001
1.40001
1.40001
1.40001
1.40001
1.40001
1.40001
1.40001
1.40001
1.40001
1.40001
1.40001
1.40001
1.40001
1.40001
9.53132
3.54862
1.40001
1.40001
1.40001
1.40001
1.40001
1.40001
1.40001
1.40001
1.40001
1.40001
1.40001
1.40001
1.40001
1.40001
1.40001
1.40001
1.40001
1.40001
9.99081
4.3983
1.40001
1.40001
1.40001
1.40001
1.40001
1.40001
1.40001
1.40001
1.40001
1.40001
1.40001
1.40001
1.40001
1.40001
1.40001
1.40001
1.40001
1.40001
10.28
5.54772
1.4086
1.40001
1.40001
1.40001
1.40001
1.40001
1.40001
1.40001
1.40001
1.40001
1.40001
1.40001
1.40001
1.40001
1.40001
1.40001
1.40001
1.40001
10.4456
6.57035
1.64515
1.40001
1.40001
1.40001
1.40001
1.40001
1.40001
1.40001
1.40001
1.40001
1.40001
1.40001
1.40001
1.40001
1.40001
1.40001
1.40001
1.40001
10.3754
7.52465
2.23255
1.40001
1.40001
1.40001
1.40001
1.40001
1.40001
1.40001
1.40001
1.40001
1.40001
1.40001
1.40001
1.40001
1.40001
1.40001
1.40001
1.40001
10.2627
8.31736
3.24727
1.40001
1.40001
1.40001
1.40001
1.40001
1.40001
1.40001
1.40001
1.40001
1.40001
1.40001
1.40001
1.40001
1.40001
1.40001
1.40001
1.40001
10.0178
8.83327
4.88213
1.38317
1.40001
1.40001
1.40001
1.40001
1.40001
1.40001
1.40001
1.40001
1.40001
1.40001
1.40001
1.40001
1.40001
1.40001
1.40001
1.40001
9.68536
9.31335
6.83016
1.62478
1.40001
1.40001
1.40001
1.40001
1.40001
1.40001
1.40001
1.40001
1.40001
1.40001
1.40001
1.40001
1.40001
1.40001
1.40001
1.40001
8.98682
9.16531
8.36448
2.87921
1.4
1.40001
1.40001
1.40001
1.40001
1.40001
1.40001
1.40001
1.40001
1.40001
1.40001
1.40001
1.40001
1.40001
1.40001
1.40001
8.80821
9.23887
9.21508
4.82775
1.36392
1.40001
1.40001
1.40001
1.40001
1.40001
1.40001
1.40001
1.40001
1.40001
1.40001
1.40001
1.40001
1.40001
1.40001
1.40001
8.88681
9.40524
9.47795
7.05098
1.99483
1.40001
1.40001
1.40001
1.40001
1.40001
1.40001
1.40001
1.40001
1.40001
1.40001
1.40001
1.40001
1.40001
1.40001
1.40001
9.0643
9.46935
9.46157
8.3681
3.92943
1.3636
1.40049
1.4
1.40001
1.40001
1.40001
1.40001
1.40001
1.40001
1.40001
1.40001
1.40001
1.40001
1.40001
1.40001
9.28104
9.46939
9.45181
8.96318
6.49254
1.9625
1.39327
1.40012
1.4
1.40001
1.40001
1.40001
1.40001
1.40001
1.40001
1.40001
1.40001
1.40001
1.40001
1.40001
9.45102
9.50476
9.47663
9.34736
8.98412
4.58629
1.43098
1.39957
1.40001
1.40001
1.40001
1.40001
1.40001
1.40001
1.40001
1.40001
1.40001
1.40001
1.40001
1.40001
9.65135
9.56493
9.47557
9.38618
9.39043
8.03048
3.66371
1.43349
1.40001
1.40001
1.40001
1.40001
1.40001
1.40001
1.40001
1.40001
1.40001
1.40001
1.40001
1.40001
9.67129
9.60405
9.54756
9.50976
9.59312
9.38929
8.36624
3.35365
0.876283
1.40001
1.40001
1.40001
1.40001
1.40001
1.40001
1.40001
1.40001
1.40001
1.40001
1.40001
3.23129
5.05939
6.79993
7.9024
8.56673
8.871
9.07606
8.67927
6.3367
4.47559
3.30531
2.17755
1.50645
1.38186
1.38984
1.39471
1.39882
1.39997
1.40003
1.40002
0.430366
1.21968
2.79367
4.41819
5.81708
6.72226
7.51541
8.15414
7.95158
7.32487
6.73175
5.99582
4.72864
3.25364
2.00037
1.44306
1.3853
1.39298
1.39629
1.39923
0.0477613
0.208696
0.669909
1.67226
2.93856
4.01849
4.9444
5.90829
6.6321
6.68545
6.58445
6.59586
6.53449
6.29961
5.59476
4.26604
2.91405
1.86114
1.42503
1.39002
0.0107729
0.0566282
0.21361
0.472598
1.08886
1.99825
2.83019
3.64482
4.44931
4.96715
5.28132
5.60626
5.89411
6.10108
6.21354
6.10697
5.80142
5.06212
3.8809
2.64045
0.0154276
0.0488657
0.126451
0.241759
0.517771
0.873473
1.37816
1.94019
2.59656
3.14399
3.56742
3.9628
4.34756
4.7622
5.19987
5.47555
5.65059
5.73567
5.61205
5.44518
0.0176879
0.0347785
0.0811325
0.178407
0.358377
0.539454
0.803562
1.15012
1.56551
2.00326
2.35946
2.69854
3.01637
3.34961
3.75923
4.15157
4.53016
4.8887
5.10041
5.25944
0.017463
0.0234206
0.0468892
0.105305
0.23718
0.409194
0.583444
0.822717
1.11272
1.42038
1.66669
1.89839
2.12026
2.33718
2.6063
2.91281
3.23511
3.58318
3.89391
4.17083
0.0192016
0.0233817
0.0396428
0.0615098
0.12366
0.262903
0.36261
0.519074
0.725244
0.920533
1.10733
1.27079
1.43941
1.59663
1.7958
2.05297
2.32416
2.57854
2.9236
2.89755
0.0244592
0.0278109
0.0433031
0.0537968
0.0714132
0.15042
0.198433
0.256472
0.36966
0.514333
0.68467
0.841248
1.01318
1.15603
1.32663
1.51166
1.69792
1.85863
2.14658
2.08352
0.034714
0.0358946
0.0474589
0.0530664
0.0667504
0.119376
0.165173
0.210692
0.305649
0.432254
0.547984
0.658583
0.78501
0.887476
0.993651
1.10309
1.21304
1.32852
1.58928
1.5819
0.0510474
0.0445219
0.0509353
0.0543931
0.0702671
0.123354
0.176528
0.225917
0.301377
0.385796
0.453056
0.51928
0.590393
0.661934
0.712736
0.777094
0.857057
0.982103
1.14095
1.34779
0.0742112
0.0561609
0.0518844
0.0573853
0.0756119
0.121465
0.174625
0.217946
0.258844
0.300515
0.32563
0.359575
0.391573
0.439494
0.490276
0.561489
0.657396
0.770979
0.865215
1.04844
0.0972939
0.0731567
0.0554198
0.0582433
0.0724321
0.103913
0.142795
0.168611
0.182172
0.198549
0.211081
0.237921
0.288964
0.34589
0.403521
0.472043
0.541051
0.612222
0.658123
0.770712
0.112952
0.0931047
0.0608114
0.0565555
0.0615943
0.072534
0.0930993
0.11291
0.129843
0.153936
0.194094
0.224686
0.270441
0.314296
0.354375
0.396979
0.429246
0.462758
0.475294
0.539379
0.132931
0.105379
0.0706144
0.0564442
0.0575936
0.0648012
0.0772014
0.103114
0.128422
0.15731
0.193215
0.216093
0.246069
0.273378
0.297178
0.304042
0.307521
0.314533
0.327881
0.392059
0.166478
0.118532
0.082589
0.0598297
0.059221
0.0662898
0.079659
0.108594
0.134193
0.155958
0.177366
0.19095
0.204633
0.210219
0.211726
0.20768
0.21048
0.228885
0.263948
0.324871
0.187425
0.138423
0.10003
0.0708519
0.0680891
0.0754129
0.0844076
0.107894
0.127895
0.139483
0.141938
0.145605
0.14875
0.151343
0.156725
0.17
0.187064
0.209013
0.234495
0.264673
0.190183
0.144127
0.120602
0.0926792
0.0803625
0.0811312
0.0821159
0.0896354
0.0956509
0.0970829
0.0946662
0.0967483
0.100943
0.112252
0.12716
0.143389
0.159089
0.171327
0.18184
0.184521
0.182475
0.151128
0.156099
0.142868
0.151931
0.180808
0.184189
0.163614
0.171196
0.186097
0.204839
0.210011
0.189497
0.174071
0.183403
0.206245
0.243652
0.282702
0.326406
0.328851
0.246333
0.325725
0.384268
0.409365
0.424952
0.483332
0.490368
0.47744
0.535008
0.58474
0.618592
0.639459
0.629722
0.622265
0.66299
0.684993
0.694761
0.706668
0.724038
0.736044
0.798244
0.881354
0.956936
1.09867
1.1659
1.21252
1.20367
1.18204
1.17835
1.20439
1.27511
1.34081
1.34287
1.31404
1.29344
1.29881
1.33345
1.35254
1.34557
1.32492
0.422713
0.590417
0.750434
0.92575
1.07122
1.18996
1.20029
1.20137
1.19859
1.22013
1.27454
1.33215
1.33665
1.31774
1.29433
1.29867
1.32753
1.34623
1.34142
1.32591
0.190881
0.225784
0.332344
0.468626
0.709684
0.975246
1.08947
1.18613
1.22025
1.24133
1.26532
1.30034
1.30767
1.31311
1.31299
1.31685
1.32385
1.3283
1.32579
1.32615
0.26889
0.303156
0.326422
0.325158
0.342857
0.448329
0.731372
1.03093
1.15034
1.26002
1.26775
1.27254
1.28199
1.30881
1.33421
1.34122
1.33764
1.3267
1.32021
1.33
0.341557
0.371433
0.385167
0.388433
0.387428
0.393385
0.426105
0.578445
0.911148
1.16816
1.21713
1.23663
1.26333
1.30628
1.34931
1.35752
1.34832
1.32241
1.31743
1.33335
0.432103
0.465756
0.483842
0.456089
0.43236
0.431523
0.452791
0.468726
0.546067
0.75649
1.03079
1.1596
1.22402
1.29266
1.34534
1.35676
1.34829
1.32352
1.32209
1.34014
0.543617
0.580497
0.571246
0.520455
0.488065
0.491536
0.508534
0.52883
0.538189
0.548732
0.654327
0.926659
1.14029
1.24494
1.33746
1.35274
1.34415
1.31629
1.3244
1.34726
0.716547
0.700098
0.684963
0.637618
0.567398
0.553995
0.570152
0.57031
0.56593
0.562026
0.560839
0.625607
0.892887
1.13459
1.27163
1.32827
1.31058
1.30613
1.33772
1.35085
0.929847
0.858195
0.811154
0.74423
0.640925
0.611215
0.620896
0.618289
0.607302
0.597071
0.584144
0.578705
0.630851
0.892313
1.13328
1.28559
1.25816
1.29051
1.35269
1.35038
1.20097
1.03809
0.969165
0.895421
0.770268
0.688505
0.67211
0.664934
0.64198
0.641539
0.629281
0.614655
0.60792
0.642017
0.836707
1.12984
1.20972
1.30265
1.36322
1.34708
1.79859
1.27313
1.03911
1.03176
0.981107
0.880527
0.802473
0.755438
0.717593
0.705838
0.696985
0.684937
0.673127
0.649322
0.660233
0.774388
1.03731
1.24444
1.31337
1.33231
2.84843
2.12952
1.4761
1.29482
1.23452
1.13437
1.03267
0.918574
0.821551
0.781711
0.768965
0.759992
0.746708
0.725382
0.683822
0.684184
0.737624
0.893602
1.09314
1.26638
3.47627
3.04171
2.40213
1.82335
1.53097
1.31578
1.17936
1.07449
0.949431
0.931222
0.927627
0.891483
0.8507
0.814143
0.770934
0.733719
0.738377
0.74871
0.799001
1.03063
3.29854
3.27018
3.13221
2.67772
2.1778
1.7612
1.48206
1.36678
1.22201
1.13829
1.07152
0.98363
0.913914
0.872895
0.843828
0.818347
0.796824
0.776529
0.759687
0.808835
2.36143
2.98375
3.09076
3.04512
2.85621
2.50294
2.05429
1.74731
1.51946
1.32953
1.21557
1.09353
1.00958
0.986619
0.977626
0.95463
0.921419
0.876637
0.807305
0.80762
1.54998
2.01312
2.57797
2.94291
2.9422
2.89729
2.70255
2.35005
2.01113
1.69687
1.51979
1.39844
1.26294
1.17993
1.10966
1.04004
0.980974
0.92417
0.878423
0.850324
1.40624
1.46267
1.68602
2.16319
2.59258
2.82445
2.81672
2.74991
2.56809
2.26327
1.93981
1.71719
1.5118
1.35707
1.23992
1.12873
1.06445
1.03585
1.02531
0.976774
1.40013
1.40159
1.41454
1.50918
1.77244
2.19654
2.55037
2.69974
2.68978
2.63497
2.46448
2.20509
1.93705
1.70512
1.54098
1.39817
1.29065
1.23011
1.16987
1.0668
1.40001
1.40002
1.40021
1.40344
1.42663
1.53773
1.80508
2.17469
2.47104
2.595
2.58529
2.53484
2.40282
2.17211
1.92759
1.71697
1.53747
1.39413
1.2906
1.16501
1.40001
1.40001
1.40001
1.40004
1.40046
1.4053
1.43417
1.552
1.79849
2.12743
2.37928
2.49965
2.49397
2.45499
2.34252
2.14999
1.93356
1.72018
1.5714
1.39806
1.40001
1.40001
1.40001
1.40001
1.40001
1.40007
1.40069
1.40669
1.43689
1.54687
1.7682
2.06757
2.28762
2.41102
2.40742
2.38032
2.2987
2.1371
1.95235
1.67353
1.40001
1.40001
1.40001
1.40001
1.40001
1.40001
1.40001
1.40009
1.40081
1.40669
1.4355
1.53187
1.72539
1.99275
2.20355
2.32273
2.32579
2.31016
2.25951
2.04643
1.40001
1.40001
1.40001
1.40001
1.40001
1.40001
1.40001
1.40001
1.40001
1.40009
1.40083
1.40576
1.43158
1.5102
1.67732
1.9117
2.11905
2.24533
2.25277
2.2213
1.40001
1.40001
1.40001
1.40001
1.40001
1.40001
1.40001
1.40001
1.40001
1.40001
1.40001
1.40008
1.40076
1.4046
1.4247
1.49143
1.62597
1.83746
2.0224
2.16928
1.40001
1.40001
1.40001
1.40001
1.40001
1.40001
1.40001
1.40001
1.40001
1.40001
1.40001
1.40001
1.40001
1.40007
1.40059
1.40367
1.41935
1.47163
1.59104
1.94316
2.25357
3.42268
3.59693
2.90888
1.83161
1.4518
1.40264
1.40007
1.40001
1.40001
1.40001
1.40001
1.40001
1.40001
1.40001
3.26287
3.91601
3.52043
2.15319
1.46729
1.40112
1.40001
1.4
1.40001
1.40001
1.40001
1.40001
1.40001
1.40001
1.40001
4.07781
3.99185
2.75996
1.61143
1.40723
1.40008
1.40001
1.40001
1.40001
1.40001
1.40001
1.40001
1.40001
1.40001
1.40001
4.51931
3.55776
1.90741
1.42732
1.40028
1.40001
1.40001
1.40001
1.40001
1.40001
1.40001
1.40001
1.40001
1.40001
1.40001
4.6198
2.35067
1.46543
1.40068
1.40001
1.40001
1.40001
1.40001
1.40001
1.40001
1.40001
1.40001
1.40001
1.40001
1.40001
2.8883
1.50201
1.40068
1.4
1.4
1.40001
1.40001
1.40001
1.40001
1.40001
1.40001
1.40001
1.40001
1.40001
1.40001
1.54323
1.40082
1.4
1.4
1.40001
1.40001
1.40001
1.40001
1.40001
1.40001
1.40001
1.40001
1.40001
1.40001
1.40001
1.3974
1.39982
1.4
1.40001
1.40001
1.40001
1.40001
1.40001
1.40001
1.40001
1.40001
1.40001
1.40001
1.40001
1.40001
1.39996
1.40001
1.40001
1.40001
1.40001
1.40001
1.40001
1.40001
1.40001
1.40001
1.40001
1.40001
1.40001
1.40001
1.40001
1.40001
1.40001
1.40001
1.40001
1.40001
1.40001
1.40001
1.40001
1.40001
1.40001
1.40001
1.40001
1.40001
1.40001
1.40001
1.40001
1.40001
1.40001
1.40001
1.40001
1.40001
1.40001
1.40001
1.40001
1.40001
1.40001
1.40001
1.40001
1.40001
1.40001
1.40001
1.40001
1.40001
1.40001
1.40001
1.40001
1.40001
1.40001
1.40001
1.40001
1.40001
1.40001
1.40001
1.40001
1.40001
1.40001
1.40001
1.40001
1.40001
1.40001
1.40001
1.40001
1.40001
1.40001
1.40001
1.40001
1.40001
1.40001
1.40001
1.40001
1.40001
1.40001
1.40001
1.40001
1.40001
1.40001
1.40001
1.40001
1.40001
1.40001
1.40001
1.40001
1.40001
1.40001
1.40001
1.40001
1.40001
1.40001
1.40001
1.40001
1.40001
1.40001
1.40001
1.40001
1.40001
1.40001
1.40001
1.40001
1.40001
1.40001
1.40001
1.40001
1.40001
1.40001
1.40001
1.40001
1.40001
1.40001
1.40001
1.40001
1.40001
1.40001
1.40001
1.40001
1.40001
1.40001
1.40001
1.40001
1.40001
1.40001
1.40001
1.40001
1.40001
1.40001
1.40001
1.40001
1.40001
1.40001
1.40001
1.40001
1.40001
1.40001
1.40001
1.40001
1.40001
1.40001
1.40001
1.40001
1.40001
1.40001
1.40001
1.40001
1.40001
1.40001
1.40001
1.40001
1.40001
1.40001
1.40001
1.40001
1.40001
1.40001
1.40001
1.40001
1.40001
1.40001
1.40001
1.40001
1.40001
1.40001
1.40001
1.40001
1.40001
1.40001
1.40001
1.40001
1.40001
1.40001
1.40001
1.40001
1.40001
1.40001
1.40001
1.40001
1.40001
1.40001
1.40001
1.40001
1.40001
1.40001
1.40001
1.40001
1.40001
1.40001
1.40001
1.40001
1.40001
1.40001
1.40001
1.40001
1.40001
1.40001
1.40001
1.40001
1.40001
1.40001
1.40001
1.40001
1.40001
1.40001
1.40001
1.40001
1.40001
1.40001
1.40001
1.40001
1.40001
1.40001
1.40001
1.40001
1.40001
1.40001
1.40001
1.40001
1.40001
1.40001
1.40001
1.40001
1.40001
1.40001
1.40001
1.40001
1.40001
1.40001
1.40001
1.40001
1.40001
1.40001
1.40001
1.40001
1.40001
1.40001
1.40001
1.40001
1.40001
1.40001
1.40001
1.40001
1.40001
1.40001
1.40001
1.40001
1.40001
1.40001
1.40001
1.40001
1.40001
1.40001
1.40001
1.40001
1.40001
1.40001
1.40001
1.40001
1.40001
1.40001
1.40001
1.40001
1.40001
1.40001
1.40001
1.40001
1.40001
1.40001
1.40001
1.40001
1.40001
1.40001
1.40001
1.40001
1.40001
1.40001
1.40001
1.40001
1.40001
1.40001
1.40001
1.40001
1.40001
1.40001
1.40001
1.40001
1.40001
1.40001
1.40001
1.40001
1.40001
1.40001
1.40001
1.40001
1.40001
1.40001
1.40001
1.40001
1.40001
1.40001
1.40001
1.40001
1.40001
1.40001
1.40001
1.40001
1.40001
1.40001
1.40001
1.40001
1.40001
1.40001
1.40001
1.40001
1.40001
1.40001
1.40001
1.40001
1.40001
1.40001
1.40001
1.40001
1.40001
1.40001
1.40001
1.40001
1.40001
1.40001
1.40001
1.40001
1.40001
1.40001
1.40001
1.40001
1.40001
1.40001
1.40001
1.40001
1.40001
1.40001
1.40001
1.40001
1.40001
1.40001
1.40001
1.40001
1.40001
1.40001
1.40001
1.40001
1.40001
1.40001
1.40001
1.40001
1.40001
1.40001
1.40001
1.40001
1.40001
1.40001
1.40001
1.40001
1.40001
1.40001
1.40001
1.40001
1.40001
1.40001
1.40001
1.40001
1.40001
1.40001
1.40001
1.40001
1.40001
1.40001
1.40001
1.40001
1.40001
1.40001
1.40001
1.40001
1.40001
1.40001
1.40001
1.40001
1.40001
1.40001
1.40001
1.40001
1.40001
1.40001
1.40001
1.40001
1.40001
1.40001
1.40001
1.40001
1.40001
1.40001
1.40001
1.40001
1.40001
1.40001
1.40001
1.40001
1.40001
1.40001
1.40001
1.40001
1.40001
1.40001
1.40001
1.40001
1.40001
1.40001
1.40001
1.40001
1.40001
1.40001
1.40001
1.40001
1.40001
1.40001
1.40001
1.40001
1.40001
1.40001
1.40001
1.40001
1.40001
1.40001
1.40001
1.40001
1.40001
1.40001
1.40001
1.40001
1.40001
1.40001
1.40001
1.40001
1.40001
1.40001
1.40001
1.40001
1.40001
1.40001
1.40001
1.40001
1.40001
1.40001
1.40001
1.40001
1.40001
1.40001
1.40001
1.40001
1.40001
1.40001
1.40001
1.40001
1.40001
1.40001
1.40001
1.40001
1.40001
1.40001
1.40001
1.40001
1.40001
1.40001
1.40001
1.40001
1.40001
1.40001
1.40001
1.40001
1.40001
1.40001
1.40001
1.40001
1.40001
1.40001
1.40001
1.40001
1.40001
1.40001
1.40001
1.40001
1.40001
1.40001
1.40001
1.40001
1.40001
1.40001
1.40001
1.40001
1.40001
1.40001
1.40001
1.40001
1.40001
1.40001
1.40001
1.40001
1.40001
1.40001
1.40001
1.40001
1.40001
1.40001
1.40001
1.40001
1.40001
1.40001
1.40001
1.40001
1.40001
1.40001
1.40001
1.40001
1.40001
1.40001
1.40001
1.40001
1.40001
1.40001
1.40001
1.40001
1.40001
1.40001
1.40001
1.40001
1.40001
1.40001
1.40001
1.40001
1.40001
1.40001
1.40001
1.40001
1.40001
1.40001
1.40001
1.40001
1.40001
1.40001
1.40001
1.40001
1.40001
1.40001
1.40001
1.40001
1.40001
1.40001
1.40001
1.40001
1.40001
1.40001
1.40001
1.40001
1.40001
1.40001
1.40001
1.40001
1.40001
1.40001
1.40001
1.40001
1.40001
1.40001
1.40001
1.40001
1.40001
1.40001
1.40001
1.40001
1.40001
1.40001
1.40001
1.40001
1.40001
1.40001
1.40001
1.40001
1.40001
1.40001
1.40001
1.40001
1.40001
1.40001
1.40001
1.40001
1.40001
1.40001
1.40001
1.40001
1.40001
1.40001
1.40001
1.40001
1.40001
1.40001
1.40001
1.40001
1.40001
1.40001
1.40001
1.40001
1.40001
1.40001
1.40001
1.40001
1.40001
1.40001
1.40001
1.40001
1.40001
1.40001
1.40001
1.40001
1.40001
1.40001
1.40001
1.40001
1.40001
1.40001
1.40001
1.40001
1.40001
1.40001
1.40001
1.40001
1.40001
1.40001
1.40001
1.40001
1.40001
1.40001
1.40001
1.40001
1.40001
1.40001
1.40001
1.40001
1.40001
1.40001
1.40001
1.40001
1.40001
1.40001
1.40001
1.40001
1.40001
1.40001
1.40001
1.40001
1.40001
1.40001
1.40001
1.40001
1.40001
1.40001
1.40001
1.40001
1.40001
1.40001
1.40001
1.40001
1.40001
1.40001
1.40001
1.40001
1.40001
1.40001
1.40001
1.40001
1.40001
1.40001
1.40001
1.40001
1.40001
1.40001
1.40001
1.40001
1.40001
1.40001
1.40001
1.40001
1.40001
1.40001
1.40001
1.40001
1.40001
1.40001
1.40001
1.40001
1.40001
1.40001
1.40001
1.40001
1.40001
1.40001
1.40001
1.40001
1.40001
1.40001
1.40001
1.40001
1.40001
1.40001
1.40001
1.40001
1.40001
1.40001
1.40001
1.40001
1.40001
1.40001
1.40001
1.40001
1.40001
1.40001
1.40001
1.40001
1.40001
1.40001
1.40001
1.40001
1.40001
1.40001
1.40001
1.40001
1.40001
1.40001
1.40001
1.40001
1.40001
1.40001
1.40001
1.40001
1.40001
1.40001
1.40001
1.40001
1.40001
1.40001
1.40001
1.40001
1.40001
1.40001
1.40001
1.40001
1.40001
1.40001
1.40001
1.40001
1.40001
1.40001
1.40001
1.40001
1.40001
1.40001
1.40001
1.40001
1.40001
1.40001
1.40001
1.40001
1.40001
1.40001
1.40001
1.40001
1.40001
1.40001
1.40001
1.40001
1.40001
1.40001
1.40001
1.40001
1.40001
1.40001
1.40001
1.40001
1.40001
1.40001
1.40001
1.40001
1.40001
1.40001
1.40001
1.40001
1.40001
1.40001
1.40001
1.40001
1.40001
1.40001
1.40001
1.40001
1.40001
1.40001
1.40001
1.40001
1.40001
1.40001
1.40001
1.40001
1.40001
1.40001
1.40001
1.40001
1.40001
1.40001
1.40001
1.40001
1.40001
1.40001
1.40001
1.40001
1.40001
1.40001
1.40001
1.40001
1.40001
1.40001
1.40001
1.40001
1.40001
1.40001
1.40001
1.40001
1.40001
1.40001
1.40001
1.40001
1.40001
1.40001
1.40001
1.40001
1.40001
1.40001
1.39996
1.40001
1.40001
1.40001
1.40001
1.40001
1.40001
1.40001
1.40001
1.40001
1.40001
1.40001
1.40001
1.40001
1.40001
1.39739
1.39982
1.4
1.40001
1.40001
1.40001
1.40001
1.40001
1.40001
1.40001
1.40001
1.40001
1.40001
1.40001
1.40001
1.54342
1.40082
1.4
1.4
1.40001
1.40001
1.40001
1.40001
1.40001
1.40001
1.40001
1.40001
1.40001
1.40001
1.40001
2.88891
1.50216
1.40068
1.4
1.4
1.40001
1.40001
1.40001
1.40001
1.40001
1.40001
1.40001
1.40001
1.40001
1.40001
4.61999
2.35086
1.46548
1.40068
1.40001
1.40001
1.40001
1.40001
1.40001
1.40001
1.40001
1.40001
1.40001
1.40001
1.40001
4.51971
3.55804
1.90723
1.4273
1.40028
1.40001
1.40001
1.40001
1.40001
1.40001
1.40001
1.40001
1.40001
1.40001
1.40001
4.07821
3.99255
2.76025
1.61127
1.40721
1.40008
1.40001
1.40001
1.40001
1.40001
1.40001
1.40001
1.40001
1.40001
1.40001
3.26241
3.91636
3.52038
2.15318
1.46728
1.40112
1.40001
1.4
1.40001
1.40001
1.40001
1.40001
1.40001
1.40001
1.40001
2.25417
3.42192
3.59639
2.90834
1.83149
1.45185
1.40265
1.40007
1.40001
1.40001
1.40001
1.40001
1.40001
1.40001
1.40001
1.79689
2.85234
3.47639
3.29875
2.36282
1.54978
1.40623
1.40013
1.40001
1.40001
1.40001
1.40001
1.40001
1.40001
1.40001
1.26712
2.11299
3.04545
3.27218
2.98283
2.01265
1.46256
1.40159
1.40002
1.40001
1.40001
1.40001
1.40001
1.40001
1.40001
1.05375
1.48052
2.39989
3.12867
3.08874
2.57755
1.68593
1.41452
1.40021
1.40001
1.40001
1.40001
1.40001
1.40001
1.40001
1.03952
1.31176
1.82693
2.67533
3.04261
2.94224
2.16341
1.50931
1.40345
1.40004
1.40001
1.40001
1.40001
1.40001
1.40001
0.975098
1.23936
1.53283
2.1902
2.8595
2.9429
2.59248
1.77238
1.42657
1.40046
1.40001
1.40001
1.40001
1.40001
1.40001
0.876345
1.14376
1.30667
1.74458
2.50901
2.89897
2.82577
2.19645
1.53772
1.4053
1.40007
1.40001
1.40001
1.40001
1.40001
0.793677
1.04088
1.18139
1.46232
2.05064
2.703
2.81738
2.55027
1.80497
1.43421
1.40069
1.40001
1.40001
1.40001
1.40001
0.745644
0.919403
1.09455
1.37318
1.73752
2.34361
2.75067
2.69979
2.17452
1.55205
1.4067
1.40009
1.40001
1.40001
1.40001
0.714235
0.814523
0.958982
1.23501
1.52414
2.01013
2.56625
2.68996
2.471
1.79869
1.43691
1.40081
1.40001
1.40001
1.40001
0.708206
0.772593
0.91882
1.1385
1.33678
1.70457
2.25982
2.63383
2.59491
2.12813
1.54722
1.40671
1.40009
1.40001
1.40001
0.70086
0.764677
0.918263
1.06314
1.20556
1.51972
1.94551
2.46298
2.58499
2.37934
1.76856
1.43555
1.40083
1.40001
1.40001
0.684301
0.757732
0.892921
0.991345
1.08804
1.37524
1.71357
2.20633
2.53473
2.49948
2.06751
1.53185
1.40576
1.40008
1.40001
0.670313
0.740534
0.850757
0.924918
1.02251
1.25798
1.50718
1.93567
2.40258
2.49386
2.28734
1.72518
1.43156
1.40076
1.40001
0.647318
0.721667
0.807294
0.872998
0.9985
1.1897
1.36014
1.70333
2.17129
2.45447
2.41097
1.99316
1.51011
1.40458
1.40007
0.664098
0.68771
0.766481
0.837067
0.982457
1.11872
1.24204
1.53377
1.92748
2.34318
2.40761
2.20241
1.67743
1.42469
1.40059
0.788872
0.687598
0.72814
0.818523
0.951556
1.04044
1.13664
1.40131
1.71643
2.15147
2.38064
2.32577
1.91109
1.49121
1.40366
1.04982
0.738431
0.733224
0.801797
0.914644
0.974029
1.07373
1.3034
1.53757
1.934
2.29846
2.32548
2.11945
1.62581
1.41933
1.248
0.89785
0.748638
0.783164
0.869123
0.921176
1.03374
1.2364
1.39578
1.71875
2.13672
2.30944
2.24513
1.83742
1.47162
1.30877
1.09569
0.806425
0.764402
0.800476
0.880284
1.01976
1.16848
1.29155
1.57161
1.95184
2.25899
2.25255
2.02233
1.59101
1.32624
1.26718
1.04226
0.811997
0.801893
0.850589
0.972339
1.0619
1.16408
1.39905
1.67337
2.04634
2.22115
2.16916
1.943
1.20341
1.04448
0.969576
0.89054
0.762852
0.696297
0.679977
0.663826
0.644466
0.646035
0.634261
0.617152
0.610765
0.640378
0.842701
1.14585
1.22257
1.3053
1.35432
1.34074
0.932443
0.859925
0.809149
0.738218
0.631751
0.617714
0.624904
0.618803
0.608904
0.602891
0.595714
0.585777
0.635836
0.872441
1.13337
1.30024
1.27158
1.29511
1.34416
1.34528
0.714665
0.700031
0.684063
0.629864
0.556864
0.54776
0.567104
0.566673
0.560333
0.569489
0.567392
0.629659
0.905798
1.15612
1.25926
1.32378
1.31448
1.30698
1.33341
1.34572
0.543489
0.57896
0.572034
0.515962
0.492382
0.497454
0.513357
0.522659
0.533703
0.546289
0.653725
0.939382
1.12695
1.25937
1.32814
1.34188
1.33474
1.31404
1.32114
1.34269
0.431973