/*--------------------------------*- C++ -*----------------------------------*\
  =========                 |
  \\      /  F ield         | OpenFOAM: The Open Source CFD Toolbox
   \\    /   O peration     | Website:  https://openfoam.org
    \\  /    A nd           | Version:  7
     \\/     M anipulation  |
\*---------------------------------------------------------------------------*/
FoamFile
{
    version     2.0;
    format      ascii;
    class       volScalarField;
    location    "6.8";
    object      T;
}
// * * * * * * * * * * * * * * * * * * * * * * * * * * * * * * * * * * * * * //

dimensions      [0 0 0 1 0 0 0];

internalField   nonuniform List<scalar> 
3700
(
100.674
100.812
100.833
100.86
100.833
100.824
100.892
101.026
101.116
101.126
101.12
101.113
101.127
101.139
101.134
101.119
101.095
101.062
101.035
101.033
100.281
100.246
100.297
100.371
100.35
100.318
100.433
100.686
100.785
100.762
100.659
100.587
100.618
100.664
100.649
100.6
100.543
100.452
100.381
100.349
100.32
100.214
100.152
100.089
100.055
100.04
100.014
100.007
99.9948
99.9683
99.9315
99.9259
99.9314
99.9569
99.9886
100.016
100.031
100.038
100.041
100.034
100.346
100.223
100.107
100.008
99.998
100.023
100.036
100.08
100.09
100.077
100.054
100.031
100.008
99.9884
99.9885
100.016
100.039
100.059
100.076
100.097
100.347
100.194
100.017
99.9117
99.9102
99.936
99.9954
100.083
100.108
100.114
100.123
100.118
100.114
100.099
100.078
100.051
100.042
100.055
100.088
100.134
100.262
100.115
99.9353
99.86
99.8722
99.8998
99.9562
100.035
100.072
100.112
100.139
100.144
100.159
100.162
100.162
100.156
100.144
100.133
100.128
100.157
100.116
100.037
99.88
99.8464
99.8618
99.8913
99.9546
100.019
100.046
100.084
100.121
100.141
100.169
100.187
100.199
100.215
100.222
100.226
100.224
100.241
100.029
99.955
99.8491
99.8431
99.895
99.9713
100.04
100.067
100.068
100.092
100.11
100.13
100.161
100.19
100.215
100.243
100.269
100.288
100.295
100.329
99.9327
99.8691
99.8363
99.8542
99.9381
100.06
100.132
100.156
100.172
100.192
100.197
100.21
100.217
100.227
100.24
100.264
100.298
100.333
100.354
100.396
99.7997
99.7886
99.8425
99.8629
99.9513
100.105
100.169
100.19
100.232
100.271
100.291
100.305
100.324
100.331
100.335
100.341
100.354
100.381
100.415
100.455
99.6729
99.7268
99.8497
99.8797
99.9771
100.155
100.184
100.196
100.255
100.308
100.34
100.364
100.391
100.399
100.411
100.423
100.439
100.457
100.498
100.495
99.5684
99.6793
99.8641
99.9107
100.085
100.252
100.246
100.279
100.326
100.348
100.38
100.408
100.438
100.453
100.474
100.495
100.517
100.539
100.579
100.569
99.4935
99.6318
99.8629
99.9775
100.198
100.32
100.334
100.393
100.442
100.474
100.488
100.499
100.511
100.521
100.539
100.564
100.594
100.621
100.657
100.656
99.4526
99.6274
99.8794
100.078
100.295
100.378
100.42
100.473
100.522
100.556
100.569
100.584
100.598
100.614
100.636
100.658
100.681
100.706
100.725
100.736
99.4769
99.775
99.9574
100.202
100.369
100.42
100.481
100.537
100.584
100.617
100.635
100.654
100.675
100.702
100.732
100.755
100.771
100.783
100.78
100.775
99.5183
99.8345
100.049
100.28
100.442
100.522
100.593
100.644
100.689
100.707
100.721
100.739
100.763
100.792
100.814
100.823
100.821
100.814
100.789
100.747
99.3613
99.8541
100.207
100.412
100.573
100.687
100.739
100.776
100.799
100.809
100.818
100.834
100.851
100.857
100.856
100.844
100.791
100.676
100.515
100.278
99.5409
100.127
100.455
100.659
100.766
100.81
100.841
100.867
100.879
100.88
100.88
100.882
100.881
100.859
100.773
100.623
100.358
100.101
100.005
99.9978
100.121
100.522
100.74
100.833
100.885
100.904
100.923
100.926
100.92
100.908
100.892
100.837
100.725
100.474
100.15
100.011
99.9967
99.9985
99.9992
99.9998
100.694
100.834
100.911
100.945
100.957
100.952
100.954
100.935
100.844
100.76
100.571
100.229
100.028
99.9956
99.9977
99.9989
99.9998
100
100
100
100.997
100.994
100.991
100.984
100.974
100.951
100.891
100.479
99.8317
100
100
100
100
100
100
100
100
100
100
100
100.998
100.995
100.989
100.974
100.948
100.852
100.493
100.018
100
100
100
100
100
100
100
100
100
100
100
100
100.993
100.994
100.989
100.97
100.919
100.617
100.024
99.9996
100
100
100
100
100
100
100
100
100
100
100
100
100.988
100.993
100.989
100.956
100.79
100.225
99.9969
100
100
100
100
100
100
100
100
100
100
100
100
100
100.981
100.993
100.987
100.918
100.585
99.9918
100
100
100
100
100
100
100
100
100
100
100
100
100
100
100.974
100.988
100.984
100.839
100.26
100
100
100
100
100
100
100
100
100
100
100
100
100
100
100
100.971
100.977
100.966
100.695
99.9927
100
100
100
100
100
100
100
100
100
100
100
100
100
100
100
100.979
100.971
100.913
100.472
100
100
100
100
100
100
100
100
100
100
100
100
100
100
100
100
101.005
100.972
100.818
100.123
100
100
100
100
100
100
100
100
100
100
100
100
100
100
100
100
101.017
100.943
100.686
99.9965
100
100
100
100
100
100
100
100
100
100
100
100
100
100
100
100
101.026
100.907
100.512
100
100
100
100
100
100
100
100
100
100
100
100
100
100
100
100
100
101.03
100.859
100.317
100
100
100
100
100
100
100
100
100
100
100
100
100
100
100
100
100
101.032
100.799
100.121
100
100
100
100
100
100
100
100
100
100
100
100
100
100
100
100
100
101.021
100.734
100.006
100
100
100
100
100
100
100
100
100
100
100
100
100
100
100
100
100
101.01
100.655
100
100
100
100
100
100
100
100
100
100
100
100
100
100
100
100
100
100
100.988
100.571
100
100
100
100
100
100
100
100
100
100
100
100
100
100
100
100
100
100
100.963
100.455
100
100
100
100
100
100
100
100
100
100
100
100
100
100
100
100
100
100
100.911
100.237
100
100
100
100
100
100
100
100
100
100
100
100
100
100
100
100
100
100
100.852
100.005
100
100
100
100
100
100
100
100
100
100
100
100
100
100
100
100
100
100
100.811
100
100
100
100
100
100
100
100
100
100
100
100
100
100
100
100
100
100
100
100.812
100
100
100
100
100
100
100
100
100
100
100
100
100
100
100
100
100
100
100
100.851
100.005
100
100
100
100
100
100
100
100
100
100
100
100
100
100
100
100
100
100
100.908
100.233
100
100
100
100
100
100
100
100
100
100
100
100
100
100
100
100
100
100
100.963
100.454
100
100
100
100
100
100
100
100
100
100
100
100
100
100
100
100
100
100
100.989
100.577
100
100
100
100
100
100
100
100
100
100
100
100
100
100
100
100
100
100
101.011
100.655
100
100
100
100
100
100
100
100
100
100
100
100
100
100
100
100
100
100
101.021
100.731
100.003
100
100
100
100
100
100
100
100
100
100
100
100
100
100
100
100
100
101.031
100.797
100.119
100
100
100
100
100
100
100
100
100
100
100
100
100
100
100
100
100
101.029
100.858
100.315
100
100
100
100
100
100
100
100
100
100
100
100
100
100
100
100
100
101.025
100.908
100.511
100
100
100
100
100
100
100
100
100
100
100
100
100
100
100
100
100
101.017
100.944
100.689
99.9965
100
100
100
100
100
100
100
100
100
100
100
100
100
100
100
100
101.005
100.974
100.82
100.123
100
100
100
100
100
100
100
100
100
100
100
100
100
100
100
100
100.98
100.972
100.914
100.474
100
100
100
100
100
100
100
100
100
100
100
100
100
100
100
100
100.97
100.977
100.965
100.691
99.9927
100
100
100
100
100
100
100
100
100
100
100
100
100
100
100
100.973
100.986
100.983
100.839
100.252
100
100
100
100
100
100
100
100
100
100
100
100
100
100
100
100.98
100.992
100.987
100.919
100.587
99.9917
100
100
100
100
100
100
100
100
100
100
100
100
100
100
100.988
100.993
100.989
100.953
100.792
100.233
99.9968
100
100
100
100
100
100
100
100
100
100
100
100
100
100.993
100.994
100.99
100.971
100.921
100.618
100.025
99.9996
100
100
100
100
100
100
100
100
100
100
100
100
100.998
100.995
100.989
100.976
100.95
100.851
100.487
100.016
100
100
100
100
100
100
100
100
100
100
100
100
100.997
100.995
100.991
100.984
100.974
100.95
100.89
100.478
99.8326
100
100
100
100
100
100
100
100
100
100
100
100.695
100.835
100.912
100.945
100.956
100.951
100.953
100.935
100.845
100.761
100.572
100.231
100.029
99.9956
99.9977
99.9989
99.9998
100
100
100
100.121
100.523
100.741
100.834
100.884
100.903
100.921
100.926
100.921
100.909
100.892
100.837
100.724
100.472
100.15
100.011
99.9967
99.9985
99.9992
99.9998
99.5248
100.114
100.456
100.662
100.767
100.81
100.841
100.867
100.88
100.881
100.88
100.882
100.881
100.858
100.774
100.623
100.359
100.101
100.005
99.9978
99.4183
99.8281
100.18
100.404
100.572
100.686
100.739
100.777
100.801
100.81
100.819
100.833
100.851
100.857
100.856
100.845
100.792
100.676
100.514
100.278
99.6185
99.8345
100.036
100.248
100.426
100.519
100.592
100.644
100.689
100.708
100.721
100.739
100.763
100.792
100.814
100.823
100.821
100.814
100.789
100.746
99.5833
99.8098
99.9662
100.188
100.352
100.415
100.48
100.538
100.586
100.618
100.635
100.654
100.674
100.701
100.732
100.755
100.772
100.783
100.78
100.775
99.498
99.7362
99.9013
100.08
100.278
100.37
100.418
100.473
100.522
100.556
100.568
100.583
100.597
100.614
100.636
100.659
100.681
100.706
100.725
100.736
99.5104
99.6948
99.881
99.9778
100.186
100.309
100.328
100.389
100.44
100.474
100.487
100.498
100.51
100.521
100.54
100.566
100.594
100.621
100.657
100.655
99.5755
99.7304
99.887
99.9241
100.089
100.244
100.244
100.276
100.323
100.348
100.378
100.406
100.437
100.453
100.474
100.496
100.518
100.539
100.578
100.569
99.6793
99.769
99.8743
99.8856
99.99
100.16
100.191
100.204
100.258
100.306
100.338
100.362
100.391
100.399
100.412
100.423
100.439
100.456
100.497
100.495
99.8066
99.8125
99.8643
99.8747
99.9627
100.111
100.174
100.195
100.234
100.27
100.291
100.305
100.324
100.332
100.336
100.341
100.354
100.38
100.415
100.455
99.9348
99.879
99.8527
99.8652
99.9461
100.065
100.132
100.156
100.171
100.191
100.196
100.209
100.216
100.226
100.24
100.264
100.298
100.333
100.354
100.397
100.033
99.9595
99.8583
99.85
99.8985
99.9758
100.035
100.058
100.062
100.088
100.108
100.129
100.161
100.19
100.214
100.242
100.268
100.287
100.295
100.329
100.112
100.046
99.8901
99.8488
99.8506
99.8817
99.9421
100.001
100.034
100.077
100.119
100.139
100.169
100.186
100.197
100.213
100.22
100.225
100.224
100.242
100.224
100.12
99.9547
99.8573
99.8586
99.8868
99.9412
100.015
100.057
100.105
100.137
100.142
100.158
100.16
100.159
100.154
100.142
100.132
100.129
100.161
100.331
100.184
100.027
99.8967
99.8896
99.9168
99.9755
100.062
100.096
100.109
100.121
100.116
100.112
100.097
100.077
100.052
100.045
100.06
100.093
100.136
100.339
100.227
100.109
99.9872
99.9788
100.002
100.019
100.065
100.081
100.074
100.055
100.032
100.01
99.9914
99.9933
100.023
100.045
100.065
100.081
100.097
100.319
100.219
100.157
100.077
100.034
100.018
100.003
100.007
99.9956
99.9692
99.9365
99.9285
99.9348
99.9598
99.9938
100.021
100.036
100.043
100.046
100.032
100.282
100.242
100.261
100.218
100.332
100.546
100.544
100.409
100.407
100.515
100.633
100.623
100.509
100.296
100.273
100.311
100.389
100.476
100.554
100.555
100.636
100.792
100.809
100.781
100.811
100.91
100.946
100.934
100.974
101.074
101.13
101.126
101.097
101.022
101.003
101.023
101.064
101.089
101.089
101.083
101.065
101.036
100.999
100.983
100.962
100.946
100.924
100.895
100.871
100.864
100.866
100.867
100.861
100.845
100.831
100.826
100.825
100.821
100.812
100.798
100.635
100.653
100.688
100.72
100.764
100.797
100.801
100.805
100.803
100.801
100.803
100.806
100.805
100.8
100.794
100.792
100.792
100.788
100.781
100.773
100.027
100.063
100.177
100.281
100.411
100.509
100.568
100.626
100.655
100.665
100.671
100.68
100.688
100.698
100.706
100.709
100.708
100.707
100.708
100.711
100.083
100.094
100.1
100.088
100.101
100.188
100.341
100.45
100.507
100.544
100.55
100.558
100.571
100.587
100.6
100.606
100.608
100.61
100.614
100.627
100.136
100.142
100.135
100.124
100.113
100.118
100.145
100.245
100.395
100.462
100.471
100.481
100.497
100.514
100.525
100.529
100.53
100.531
100.535
100.549
100.182
100.19
100.189
100.166
100.147
100.146
100.156
100.167
100.216
100.318
100.402
100.432
100.453
100.474
100.486
100.487
100.486
100.485
100.487
100.496
100.231
100.238
100.23
100.2
100.183
100.183
100.19
100.198
100.2
100.203
100.255
100.354
100.415
100.442
100.461
100.463
100.461
100.457
100.459
100.466
100.296
100.284
100.276
100.258
100.232
100.217
100.219
100.214
100.207
100.199
100.193
100.221
100.326
100.396
100.426
100.441
100.437
100.437
100.445
100.448
100.36
100.339
100.324
100.302
100.268
100.247
100.24
100.231
100.219
100.208
100.197
100.186
100.205
100.306
100.373
100.413
100.409
100.418
100.433
100.433
100.43
100.393
100.372
100.349
100.311
100.28
100.26
100.246
100.227
100.221
100.21
100.197
100.185
100.192
100.269
100.355
100.379
100.406
100.42
100.415
100.539
100.44
100.379
100.373
100.358
100.331
100.301
100.271
100.246
100.234
100.226
100.215
100.202
100.18
100.178
100.22
100.308
100.363
100.375
100.38
100.619
100.552
100.46
100.416
100.395
100.371
100.344
100.306
100.266
100.244
100.235
100.225
100.21
100.19
100.166
100.157
100.172
100.221
100.273
100.318
100.608
100.589
100.544
100.474
100.424
100.38
100.35
100.323
100.286
100.272
100.263
100.243
100.22
100.197
100.173
100.155
100.145
100.131
100.141
100.217
100.488
100.547
100.543
100.516
100.471
100.416
100.373
100.35
100.317
100.291
100.267
100.237
100.209
100.188
100.171
100.154
100.136
100.116
100.099
100.106
100.251
100.376
100.445
100.481
100.472
100.45
100.406
100.365
100.328
100.29
100.262
100.231
100.203
100.188
100.178
100.163
100.144
100.12
100.095
100.074
100.043
100.146
100.254
100.335
100.387
100.416
100.406
100.379
100.344
100.301
100.272
100.249
100.219
100.194
100.17
100.145
100.122
100.101
100.084
100.062
100.002
100.015
100.065
100.155
100.232
100.29
100.331
100.348
100.34
100.316
100.28
100.249
100.216
100.186
100.159
100.13
100.109
100.098
100.09
100.068
100
100
100.003
100.025
100.078
100.149
100.209
100.249
100.279
100.291
100.281
100.259
100.228
100.197
100.171
100.145
100.122
100.105
100.087
100.057
100
100
100
100.001
100.006
100.03
100.081
100.139
100.187
100.217
100.24
100.244
100.237
100.216
100.187
100.158
100.129
100.102
100.079
100.049
100
100
100
100
100
100.001
100.008
100.033
100.078
100.128
100.169
100.192
100.211
100.209
100.201
100.183
100.156
100.126
100.101
100.069
100
100
100
100
100
100
100
100.001
100.008
100.031
100.073
100.118
100.154
100.174
100.186
100.184
100.177
100.161
100.137
100.098
100
100
100
100
100
100
100
100
100
100.001
100.008
100.028
100.065
100.108
100.141
100.158
100.168
100.167
100.162
100.138
100
100
100
100
100
100
100
100
100
100
100
100.001
100.007
100.024
100.057
100.096
100.128
100.147
100.154
100.151
100
100
100
100
100
100
100
100
100
100
100
100
100
100.001
100.006
100.02
100.047
100.085
100.114
100.138
100
100
100
100
100
100
100
100
100
100
100
100
100
100
100
100.001
100.004
100.016
100.041
100.105
100.596
100.653
100.61
100.416
100.142
100.018
100.001
100
100
100
100
100
100
100
100
100.671
100.662
100.518
100.218
100.022
100
100
100
100
100
100
100
100
100
100
100.705
100.635
100.373
100.074
100.002
100
100
100
100
100
100
100
100
100
100
100.72
100.517
100.167
100.009
100
100
100
100
100
100
100
100
100
100
100
100.651
100.283
100.024
100
100
100
100
100
100
100
100
100
100
100
100
100.397
100.038
100
100
100
100
100
100
100
100
100
100
100
100
100
100.043
100
100
100
100
100
100
100
100
100
100
100
100
100
100
99.9995
100
100
100
100
100
100
100
100
100
100
100
100
100
100
100
100
100
100
100
100
100
100
100
100
100
100
100
100
100
100
100
100
100
100
100
100
100
100
100
100
100
100
100
100
100
100
100
100
100
100
100
100
100
100
100
100
100
100
100
100
100
100
100
100
100
100
100
100
100
100
100
100
100
100
100
100
100
100
100
100
100
100
100
100
100
100
100
100
100
100
100
100
100
100
100
100
100
100
100
100
100
100
100
100
100
100
100
100
100
100
100
100
100
100
100
100
100
100
100
100
100
100
100
100
100
100
100
100
100
100
100
100
100
100
100
100
100
100
100
100
100
100
100
100
100
100
100
100
100
100
100
100
100
100
100
100
100
100
100
100
100
100
100
100
100
100
100
100
100
100
100
100
100
100
100
100
100
100
100
100
100
100
100
100
100
100
100
100
100
100
100
100
100
100
100
100
100
100
100
100
100
100
100
100
100
100
100
100
100
100
100
100
100
100
100
100
100
100
100
100
100
100
100
100
100
100
100
100
100
100
100
100
100
100
100
100
100
100
100
100
100
100
100
100
100
100
100
100
100
100
100
100
100
100
100
100
100
100
100
100
100
100
100
100
100
100
100
100
100
100
100
100
100
100
100
100
100
100
100
100
100
100
100
100
100
100
100
100
100
100
100
100
100
100
100
100
100
100
100
100
100
100
100
100
100
100
100
100
100
100
100
100
100
100
100
100
100
100
100
100
100
100
100
100
100
100
100
100
100
100
100
100
100
100
100
100
100
100
100
100
100
100
100
100
100
100
100
100
100
100
100
100
100
100
100
100
100
100
100
100
100
100
100
100
100
100
100
100
100
100
100
100
100
100
100
100
100
100
100
100
100
100
100
100
100
100
100
100
100
100
100
100
100
100
100
100
100
100
100
100
100
100
100
100
100
100
100
100
100
100
100
100
100
100
100
100
100
100
100
100
100
100
100
100
100
100
100
100
100
100
100
100
100
100
100
100
100
100
100
100
100
100
100
100
100
100
100
100
100
100
100
100
100
100
100
100
100
100
100
100
100
100
100
100
100
100
100
100
100
100
100
100
100
100
100
100
100
100
100
100
100
100
100
100
100
100
100
100
100
100
100
100
100
100
100
100
100
100
100
100
100
100
100
100
100
100
100
100
100
100
100
100
100
100
100
100
100
100
100
100
100
100
100
100
100
100
100
100
100
100
100
100
100
100
100
100
100
100
100
100
100
100
100
100
100
100
100
100
100
100
100
100
100
100
100
100
100
100
100
100
100
100
100
100
100
100
100
100
100
100
100
100
100
100
100
100
100
100
100
100
100
100
100
100
100
100
100
100
100
100
100
100
100
100
100
100
100
100
100
100
100
100
100
100
100
100
100
100
100
100
100
100
100
100
100
100
100
100
100
100
100
100
100
100
100
100
100
100
100
100
100
100
100
100
100
100
100
100
100
100
100
100
100
100
100
100
100
100
100
100
100
100
100
100
100
100
100
100
100
100
100
100
100
100
100
100
100
100
100
100
100
100
100
100
100
100
100
100
100
100
100
100
100
100
100
100
100
100
100
100
100
100
100
100
100
100
100
100
100
100
100
100
100
100
100
100
100
100
100
100
100
100
100
100
100
100
100
100
100
100
100
100
100
100
100
100
100
100
100
100
100
100
100
100
100
100
100
100
100
100
100
100
100
100
100
100
100
100
100
100
100
100
100
100
100
100
100
100
100
100
100
100
100
100
100
100
100
100
100
100
100
100
100
100
100
100
100
100
100
100
100
100
100
100
100
100
100
100
100
100
100
100
100
100
100
100
100
100
100
100
100
100
100
100
100
100
100
100
100
100
100
100
100
100
100
100
100
100
100
100
100
100
100
100
100
100
100
100
100
100
100
100
100
100
100
100
100
100
100
100
100
100
100
100
100
100
100
100
100
100
100
100
100
100
100
100
100
100
100
100
100
100
100
100
100
100
100
100
100
100
100
100
100
100
99.9995
100
100
100
100
100
100
100
100
100
100
100
100
100
100
100.043
100
100
100
100
100
100
100
100
100
100
100
100
100
100
100.397
100.038
100
100
100
100
100
100
100
100
100
100
100
100
100
100.651
100.284
100.024
100
100
100
100
100
100
100
100
100
100
100
100
100.72
100.517
100.167
100.009
100
100
100
100
100
100
100
100
100
100
100
100.705
100.635
100.373
100.074
100.002
100
100
100
100
100
100
100
100
100
100
100.671
100.662
100.518
100.218
100.022
100
100
100
100
100
100
100
100
100
100
100.597
100.653
100.61
100.416
100.143
100.018
100.001
100
100
100
100
100
100
100
100
100.539
100.62
100.608
100.488
100.251
100.042
100.002
100
100
100
100
100
100
100
100
100.439
100.551
100.589
100.548
100.376
100.146
100.015
100
100
100
100
100
100
100
100
100.383
100.46
100.543
100.542
100.445
100.254
100.065
100.003
100
100
100
100
100
100
100
100.376
100.418
100.474
100.516
100.481
100.335
100.155
100.025
100.001
100
100
100
100
100
100
100.358
100.396
100.424
100.472
100.473
100.387
100.232
100.078
100.006
100
100
100
100
100
100
100.331
100.374
100.378
100.414
100.451
100.416
100.291
100.149
100.03
100.001
100
100
100
100
100
100.298
100.346
100.349
100.37
100.406
100.406
100.331
100.209
100.081
100.008
100
100
100
100
100
100.267
100.306
100.328
100.35
100.363
100.379
100.348
100.249
100.139
100.033
100.001
100
100
100
100
100.245
100.265
100.29
100.319
100.328
100.344
100.339
100.279
100.187
100.078
100.008
100
100
100
100
100.235
100.24
100.27
100.292
100.292
100.302
100.316
100.291
100.217
100.129
100.032
100.002
100
100
100
100.227
100.232
100.26
100.265
100.261
100.273
100.281
100.281
100.239
100.169
100.073
100.008
100
100
100
100.214
100.224
100.242
100.238
100.228
100.245
100.249
100.259
100.244
100.192
100.118
100.028
100.001
100
100
100.201
100.208
100.219
100.211
100.205
100.217
100.215
100.228
100.237
100.211
100.154
100.065
100.007
100
100
100.179
100.189
100.195
100.189
100.192
100.196
100.187
100.197
100.216
100.209
100.174
100.108
100.024
100.001
100
100.18
100.169
100.173
100.171
100.18
100.173
100.16
100.17
100.187
100.201
100.186
100.141
100.057
100.006
100
100.225
100.155
100.151
100.155
100.163
100.146
100.132
100.145
100.158
100.183
100.184
100.159
100.096
100.02
100.001
100.312
100.17
100.142
100.137
100.142
100.122
100.112
100.124
100.129
100.156
100.177
100.168
100.129
100.047
100.004
100.364
100.223
100.133
100.118
100.118
100.101
100.098
100.106
100.102
100.126
100.161
100.167
100.147
100.085
100.016
100.373
100.275
100.145
100.1
100.092
100.084
100.089
100.087
100.08
100.101
100.137
100.162
100.154
100.114
100.041
100.378
100.319
100.22
100.106
100.072
100.061
100.066
100.055
100.049
100.069
100.098
100.138
100.151
100.138
100.105
100.43
100.394
100.372
100.348
100.311
100.283
100.263
100.245
100.228
100.223
100.212
100.198
100.187
100.19
100.27
100.362
100.384
100.407
100.417
100.413
100.361
100.339
100.324
100.301
100.266
100.251
100.243
100.231
100.219
100.211
100.203
100.19
100.208
100.298
100.374
100.419
100.413
100.419
100.431
100.431
100.296
100.284
100.276
100.255
100.227
100.215
100.218
100.212
100.204
100.204
100.197
100.223
100.33
100.399
100.425
100.441
100.439
100.437
100.444
100.447
100.231
100.238
100.23
100.198
100.186
100.187
100.193
100.195
100.197
100.201
100.254
100.358
100.408
100.443
100.46
100.462
100.461
100.457
100.459
100.466
100.181
100.189
100.184
100.16
100.141
100.143
100.154
100.165
100.207
100.315
100.401
100.431
100.443
100.472
100.485
100.486
100.486
100.485
100.487
100.497
100.136
100.138
100.14
100.131
100.119
100.122
100.149
100.248
100.385
100.46
100.47
100.475
100.491
100.513
100.525
100.529
100.53
100.532
100.539
100.552
100.083
100.086
100.09
100.085
100.097
100.183
100.343
100.457
100.507
100.539
100.546
100.555
100.569
100.586
100.598
100.603
100.607
100.612
100.621
100.634
100.023
100.058
100.207
100.307
100.41
100.501
100.569
100.636
100.661
100.663
100.667
100.678
100.689
100.698
100.706
100.707
100.708
100.71
100.715
100.721
100.538
100.614
100.727
100.748
100.769
100.79
100.805
100.813
100.808
100.801
100.803
100.809
100.809
100.804
100.797
100.793
100.791
100.79
100.788
100.781
101.029
101.017
101.01
100.995
100.965
100.95
100.93
100.901
100.873
100.866
100.869
100.872
100.867
100.85
100.831
100.826
100.826
100.824
100.817
100.801
)
;

boundaryField
{
    inlet
    {
        type            fixedValue;
        value           uniform 100;
    }
    outlet
    {
        type            inletOutlet;
        inletValue      uniform 100;
        value           nonuniform List<scalar> 
50
(
100.38
100.318
100.217
100.106
100.074
100.062
100.068
100.057
100.049
100.069
100.098
100.138
100.151
100.138
100.105
100.798
100.773
100.711
100.627
100.549
100.496
100.466
100.448
100.433
100.415
100.413
100.431
100.447
100.466
100.497
100.552
100.634
100.721
100.781
100.801
100.378
100.319
100.22
100.106
100.072
100.061
100.066
100.055
100.049
100.069
100.098
100.138
100.151
100.138
100.105
)
;
    }
    airfoil
    {
        type            zeroGradient;
    }
    top
    {
        type            symmetryPlane;
    }
    bottom
    {
        type            symmetryPlane;
    }
    defaultFaces
    {
        type            empty;
    }
}


// ************************************************************************* //
