/*--------------------------------*- C++ -*----------------------------------*\
  =========                 |
  \\      /  F ield         | OpenFOAM: The Open Source CFD Toolbox
   \\    /   O peration     | Website:  https://openfoam.org
    \\  /    A nd           | Version:  7
     \\/     M anipulation  |
\*---------------------------------------------------------------------------*/
FoamFile
{
    version     2.0;
    format      ascii;
    class       volVectorField;
    location    "6.8";
    object      U;
}
// * * * * * * * * * * * * * * * * * * * * * * * * * * * * * * * * * * * * * //

dimensions      [0 1 -1 0 0 0 0];

internalField   nonuniform List<vector> 
3700
(
(1.42219 -0.510431 0)
(1.30691 -0.590196 0)
(1.18533 -0.410489 0)
(1.19132 -0.302903 0)
(1.35249 -0.391118 0)
(1.45305 -0.426522 0)
(1.40611 -0.34885 0)
(1.36391 -0.145856 0)
(1.43135 -0.00865497 0)
(1.54985 -0.0477669 0)
(1.59346 -0.175846 0)
(1.57112 -0.231314 0)
(1.54071 -0.196647 0)
(1.54825 -0.0994423 0)
(1.63786 -0.0638445 0)
(1.72368 -0.109336 0)
(1.81232 -0.14125 0)
(1.85361 -0.206089 0)
(1.90388 -0.272375 0)
(1.89463 -0.321444 0)
(1.50422 -1.54124 0)
(1.53261 -1.55328 0)
(1.59137 -1.6455 0)
(1.7 -1.60653 0)
(1.78231 -1.6683 0)
(1.78926 -1.72975 0)
(1.69692 -1.50152 0)
(1.57521 -1.079 0)
(1.6392 -0.81418 0)
(1.81189 -0.837376 0)
(1.93387 -0.988942 0)
(1.92476 -1.17752 0)
(1.89086 -1.13751 0)
(1.87102 -1.05998 0)
(1.9412 -1.02539 0)
(2.07255 -1.09646 0)
(2.19549 -1.14479 0)
(2.30019 -1.19356 0)
(2.36394 -1.2179 0)
(2.43231 -1.23364 0)
(1.56126 -1.51545 0)
(1.75521 -1.61027 0)
(1.88868 -1.98269 0)
(1.9239 -2.18973 0)
(1.94346 -2.27357 0)
(1.95914 -2.271 0)
(1.99385 -2.18049 0)
(1.97229 -2.14093 0)
(1.9738 -2.11826 0)
(2.07221 -2.07146 0)
(2.23131 -2.01357 0)
(2.31327 -1.99086 0)
(2.40386 -1.92471 0)
(2.42006 -1.93362 0)
(2.41764 -1.87543 0)
(2.41121 -1.8193 0)
(2.42134 -1.79707 0)
(2.45571 -1.67973 0)
(2.51909 -1.65576 0)
(2.62394 -1.52027 0)
(1.64383 -1.52543 0)
(1.9037 -1.52852 0)
(2.03211 -2.02524 0)
(2.05209 -2.2241 0)
(2.08966 -2.26387 0)
(2.06895 -2.34676 0)
(2.08708 -2.15555 0)
(2.026 -2.1164 0)
(2.01277 -2.09579 0)
(2.10565 -1.96446 0)
(2.23919 -1.83947 0)
(2.40415 -1.79405 0)
(2.54709 -1.63844 0)
(2.66357 -1.57379 0)
(2.71602 -1.54098 0)
(2.70443 -1.54268 0)
(2.62528 -1.61291 0)
(2.59503 -1.50425 0)
(2.56242 -1.52796 0)
(2.60544 -1.35264 0)
(1.75794 -1.59488 0)
(2.12498 -1.55491 0)
(2.11858 -2.05382 0)
(2.08408 -2.24295 0)
(2.19312 -2.21371 0)
(2.20389 -2.26637 0)
(2.26688 -2.05474 0)
(2.15194 -2.04476 0)
(2.14355 -2.06789 0)
(2.19046 -1.93775 0)
(2.22905 -1.87636 0)
(2.36057 -1.75963 0)
(2.45126 -1.66051 0)
(2.59289 -1.55464 0)
(2.7118 -1.38469 0)
(2.78241 -1.16884 0)
(2.80159 -1.12243 0)
(2.80463 -1.07134 0)
(2.72214 -1.17158 0)
(2.64883 -1.19742 0)
(1.94324 -1.67867 0)
(2.13403 -1.61427 0)
(1.97429 -2.16294 0)
(1.96103 -2.26049 0)
(2.11566 -2.23175 0)
(2.19729 -2.23117 0)
(2.2828 -1.99969 0)
(2.26526 -1.93205 0)
(2.35304 -1.8904 0)
(2.44334 -1.80521 0)
(2.40511 -1.79897 0)
(2.46494 -1.66516 0)
(2.49916 -1.55394 0)
(2.55346 -1.47497 0)
(2.62467 -1.36378 0)
(2.67397 -1.21801 0)
(2.77566 -1.07691 0)
(2.85764 -0.873424 0)
(2.86649 -0.732701 0)
(2.75432 -0.74206 0)
(1.91533 -1.69964 0)
(1.88866 -1.81368 0)
(1.76278 -2.20692 0)
(1.84867 -2.21909 0)
(1.95514 -2.14191 0)
(2.08878 -2.01539 0)
(2.22024 -1.92311 0)
(2.33903 -1.81944 0)
(2.44713 -1.77374 0)
(2.60069 -1.55633 0)
(2.59779 -1.60641 0)
(2.65117 -1.44525 0)
(2.62106 -1.39988 0)
(2.62722 -1.31581 0)
(2.64595 -1.19965 0)
(2.66058 -1.08414 0)
(2.69843 -1.00032 0)
(2.78911 -0.900428 0)
(2.79759 -0.665207 0)
(2.80115 -0.493661 0)
(1.72659 -1.70073 0)
(1.62481 -1.93343 0)
(1.54077 -2.20979 0)
(1.73386 -2.10786 0)
(1.80598 -2.04516 0)
(1.98415 -1.84065 0)
(2.05648 -1.85017 0)
(2.23617 -1.68451 0)
(2.42416 -1.55079 0)
(2.57858 -1.35376 0)
(2.66 -1.27668 0)
(2.72322 -1.08042 0)
(2.72158 -1.04887 0)
(2.73732 -0.992394 0)
(2.74401 -0.903088 0)
(2.72508 -0.834916 0)
(2.70986 -0.74575 0)
(2.74019 -0.757841 0)
(2.73552 -0.621968 0)
(2.73621 -0.400977 0)
(1.52098 -1.56509 0)
(1.44311 -1.74644 0)
(1.42162 -2.03241 0)
(1.67292 -1.99827 0)
(1.79914 -1.95413 0)
(1.89966 -1.83877 0)
(2.00476 -1.80506 0)
(2.16154 -1.63571 0)
(2.27598 -1.50913 0)
(2.41032 -1.41818 0)
(2.54012 -1.16202 0)
(2.64857 -0.971176 0)
(2.6866 -0.730407 0)
(2.74536 -0.620263 0)
(2.75673 -0.467385 0)
(2.75485 -0.445221 0)
(2.74194 -0.354239 0)
(2.71798 -0.416735 0)
(2.7083 -0.423674 0)
(2.67052 -0.251547 0)
(1.42116 -1.30452 0)
(1.36059 -1.48376 0)
(1.39431 -1.86405 0)
(1.70225 -1.93774 0)
(1.86637 -1.76606 0)
(1.94637 -1.78937 0)
(2.097 -1.738 0)
(2.27726 -1.53261 0)
(2.34217 -1.40905 0)
(2.38969 -1.35002 0)
(2.4791 -1.13803 0)
(2.56446 -0.982109 0)
(2.61356 -0.741359 0)
(2.72621 -0.627899 0)
(2.70624 -0.348757 0)
(2.72215 -0.220995 0)
(2.69933 -0.0496159 0)
(2.66489 -0.0335966 0)
(2.6414 -0.0966208 0)
(2.61889 -0.0590896 0)
(1.29767 -1.09209 0)
(1.32796 -1.30551 0)
(1.53684 -1.78452 0)
(1.72253 -1.98173 0)
(1.93242 -1.70266 0)
(2.03634 -1.76552 0)
(2.26193 -1.57254 0)
(2.44369 -1.20654 0)
(2.58015 -1.05776 0)
(2.58762 -1.06395 0)
(2.60932 -0.867022 0)
(2.62777 -0.713321 0)
(2.62155 -0.549951 0)
(2.66641 -0.469441 0)
(2.6451 -0.280788 0)
(2.66382 -0.176734 0)
(2.63457 0.015786 0)
(2.59735 0.153389 0)
(2.53563 0.225958 0)
(2.56952 0.124851 0)
(1.15211 -0.951114 0)
(1.29464 -1.2087 0)
(1.6847 -1.77539 0)
(1.7657 -2.0186 0)
(2.30273 -1.56018 0)
(2.51755 -1.73428 0)
(2.73508 -1.34366 0)
(2.78045 -0.833024 0)
(2.78003 -0.633928 0)
(2.72665 -0.440928 0)
(2.72163 -0.324796 0)
(2.6906 -0.175335 0)
(2.66386 -0.0968871 0)
(2.64392 -0.0219332 0)
(2.60797 0.0435537 0)
(2.58101 0.0667171 0)
(2.55356 0.117702 0)
(2.51043 0.229873 0)
(2.44052 0.379941 0)
(2.45154 0.354673 0)
(0.985842 -0.851884 0)
(1.25908 -1.15439 0)
(1.79119 -1.81056 0)
(2.18141 -2.09352 0)
(2.66121 -1.37403 0)
(2.49686 -1.51375 0)
(2.60077 -1.11167 0)
(2.63039 -0.746259 0)
(2.61182 -0.676476 0)
(2.61554 -0.364144 0)
(2.65664 -0.175826 0)
(2.60238 0.0801088 0)
(2.58204 0.218385 0)
(2.52586 0.362774 0)
(2.48709 0.428071 0)
(2.44975 0.44666 0)
(2.41548 0.44436 0)
(2.40082 0.428901 0)
(2.32254 0.540747 0)
(2.31504 0.531603 0)
(0.803035 -0.759628 0)
(1.30832 -1.18242 0)
(2.10406 -1.84838 0)
(2.30947 -1.73288 0)
(2.36707 -1.36916 0)
(2.35732 -1.24346 0)
(2.42533 -0.87866 0)
(2.47203 -0.618965 0)
(2.48046 -0.414271 0)
(2.50597 -0.250491 0)
(2.52981 -0.046869 0)
(2.48412 0.178803 0)
(2.4633 0.330694 0)
(2.39894 0.491165 0)
(2.34407 0.604428 0)
(2.30085 0.656223 0)
(2.22461 0.739254 0)
(2.20489 0.730438 0)
(2.18412 0.753567 0)
(2.15033 0.772765 0)
(0.704591 -0.679004 0)
(1.63783 -1.72729 0)
(2.16125 -1.78762 0)
(2.11602 -1.36893 0)
(2.23052 -1.20295 0)
(2.40205 -0.774041 0)
(2.46858 -0.325079 0)
(2.49617 -0.12559 0)
(2.44323 0.129744 0)
(2.45287 0.24127 0)
(2.4089 0.406477 0)
(2.343 0.541803 0)
(2.29076 0.629502 0)
(2.23185 0.710999 0)
(2.1835 0.758046 0)
(2.14005 0.796926 0)
(2.07592 0.869146 0)
(2.04748 0.909814 0)
(2.02915 0.943482 0)
(2.05963 0.957081 0)
(0.847131 -0.654848 0)
(1.51462 -1.68736 0)
(1.92732 -1.64323 0)
(2.18195 -0.81579 0)
(2.37502 -0.65991 0)
(2.4028 -0.00805153 0)
(2.44699 0.182295 0)
(2.37648 0.428165 0)
(2.33191 0.505708 0)
(2.3 0.642809 0)
(2.20892 0.786113 0)
(2.12172 0.891294 0)
(2.05979 0.945764 0)
(2.0095 0.9892 0)
(1.98329 0.975812 0)
(1.96291 0.981776 0)
(1.95776 1.00687 0)
(1.97088 0.99428 0)
(1.99394 0.995699 0)
(2.06798 0.981313 0)
(1.11652 -0.405103 0)
(1.91226 -0.531376 0)
(2.22282 -0.865431 0)
(2.31467 0.14916 0)
(2.3521 0.319144 0)
(2.34321 0.376251 0)
(2.28823 0.511868 0)
(2.20305 0.65801 0)
(2.1394 0.761302 0)
(2.09517 0.885326 0)
(1.98896 0.995288 0)
(1.92078 1.05745 0)
(1.87828 1.0861 0)
(1.86343 1.09575 0)
(1.86825 1.06042 0)
(1.89747 1.04903 0)
(1.96421 1.01937 0)
(2.16715 0.89919 0)
(2.38274 0.788885 0)
(2.77705 0.441723 0)
(1.178 -0.131203 0)
(1.94199 -0.219187 0)
(2.21971 0.517381 0)
(2.25617 0.508039 0)
(2.20122 0.62942 0)
(2.1506 0.751918 0)
(2.02697 0.911484 0)
(1.96012 0.969053 0)
(1.90834 1.03242 0)
(1.85813 1.1193 0)
(1.79756 1.15662 0)
(1.79195 1.14716 0)
(1.80748 1.12908 0)
(1.84579 1.08896 0)
(2.0379 0.953647 0)
(2.25835 0.830305 0)
(2.66459 0.503725 0)
(3.0362 0.0915975 0)
(3.05547 -0.0241184 0)
(3.00408 -0.00471619 0)
(1.00688 0.0285708 0)
(1.91125 0.821989 0)
(2.12685 0.78574 0)
(2.00211 0.957043 0)
(1.95858 0.988479 0)
(1.86945 1.08448 0)
(1.7899 1.13272 0)
(1.75631 1.14626 0)
(1.75509 1.16298 0)
(1.73598 1.20483 0)
(1.72392 1.19429 0)
(1.87566 1.06367 0)
(2.10262 0.880502 0)
(2.49834 0.578321 0)
(2.98294 0.139098 0)
(3.0735 -0.028879 0)
(3.00814 -0.00766995 0)
(3.00292 -0.00381674 0)
(3.00122 -0.00218474 0)
(3.00008 -0.000480795 0)
(1.16277 0.777131 0)
(1.8385 1.13885 0)
(1.83922 1.15539 0)
(1.74491 1.19481 0)
(1.71553 1.20358 0)
(1.66059 1.24629 0)
(1.64968 1.21788 0)
(1.71838 1.16715 0)
(1.74626 1.24185 0)
(1.78751 1.15352 0)
(2.27892 0.743914 0)
(2.86399 0.206023 0)
(3.09739 -0.029734 0)
(3.02069 -0.0126563 0)
(3.00472 -0.00559124 0)
(3.00189 -0.00307671 0)
(3.00005 -0.000596485 0)
(2.99998 -2.23894e-05 0)
(2.99999 1.43642e-05 0)
(3 5.9186e-06 0)
(1.58029 1.25582 0)
(1.58601 1.26018 0)
(1.59646 1.26516 0)
(1.60164 1.26827 0)
(1.6074 1.26258 0)
(1.59502 1.2665 0)
(1.87139 1.17338 0)
(2.94989 0.410029 0)
(3.38257 -0.665715 0)
(3 5.81928e-11 0)
(3 -7.27065e-11 0)
(3 8.04266e-11 0)
(3 7.62372e-15 0)
(3 -4.24755e-13 0)
(3 -1.21171e-14 0)
(3 1.91943e-14 0)
(3 -8.59747e-15 0)
(3 9.38797e-16 0)
(3 2.04804e-15 0)
(3 9.41883e-16 0)
(1.57705 1.24043 0)
(1.59295 1.25258 0)
(1.60596 1.26289 0)
(1.60948 1.27278 0)
(1.64127 1.26027 0)
(1.75115 1.19569 0)
(2.25332 0.738305 0)
(2.99592 0.0138946 0)
(3 6.50456e-08 0)
(3 -3.3682e-11 0)
(3 -3.29177e-15 0)
(3 2.80232e-16 0)
(3 1.11335e-15 0)
(3 1.08375e-15 0)
(3 1.80369e-15 0)
(3 1.68181e-15 0)
(3 2.62283e-15 0)
(3 1.09034e-15 0)
(3 1.49119e-15 0)
(3 1.23666e-15 0)
(1.57914 1.24783 0)
(1.60276 1.25425 0)
(1.61572 1.25921 0)
(1.61089 1.26937 0)
(1.75294 1.19352 0)
(2.25156 0.7826 0)
(3.00625 -0.011324 0)
(2.99996 -0.000222693 0)
(3 6.76311e-07 0)
(3 5.84156e-11 0)
(3 -2.70542e-15 0)
(3 2.07883e-16 0)
(3 1.54646e-15 0)
(3 1.01512e-15 0)
(3 1.73268e-15 0)
(3 1.04454e-15 0)
(3 1.92912e-15 0)
(3 -2.38181e-16 0)
(3 1.12839e-15 0)
(3 2.85808e-17 0)
(1.58088 1.25287 0)
(1.60094 1.25798 0)
(1.62369 1.26557 0)
(1.61323 1.29038 0)
(1.88924 1.0726 0)
(2.76072 0.21666 0)
(3.00407 0.000353104 0)
(2.99993 5.37181e-05 0)
(3 -8.35827e-07 0)
(3 8.74191e-10 0)
(3 -1.73232e-13 0)
(3 3.2341e-15 0)
(3 2.56287e-15 0)
(3 3.16206e-15 0)
(3 2.33398e-15 0)
(3 1.13489e-15 0)
(3 4.5663e-16 0)
(3 -7.75737e-16 0)
(3 -3.86476e-16 0)
(3 3.49466e-16 0)
(1.58222 1.26831 0)
(1.59502 1.27259 0)
(1.62511 1.26839 0)
(1.62174 1.28458 0)
(2.30717 0.675983 0)
(3.02213 -0.0198263 0)
(2.99972 8.28227e-05 0)
(3 -3.9612e-06 0)
(3 7.93434e-08 0)
(3 -8.9344e-10 0)
(3 3.06047e-13 0)
(3 2.70609e-15 0)
(3 3.44768e-15 0)
(3 3.17528e-15 0)
(3 2.4235e-15 0)
(3 1.13613e-15 0)
(3 -1.30969e-15 0)
(3 9.2485e-16 0)
(3 -1.01499e-15 0)
(3 7.57076e-16 0)
(1.5836 1.28535 0)
(1.58845 1.28968 0)
(1.64579 1.26019 0)
(1.83439 1.11295 0)
(2.70256 0.246095 0)
(3 -5.93638e-10 0)
(3 1.37039e-08 0)
(3 -1.23137e-08 0)
(3 5.20029e-10 0)
(3 1.96754e-12 0)
(3 -1.00278e-13 0)
(3 4.60434e-15 0)
(3 3.98861e-15 0)
(3 3.54792e-15 0)
(3 2.70789e-15 0)
(3 2.24989e-15 0)
(3 -1.38407e-17 0)
(3 3.10589e-16 0)
(3 -5.95363e-16 0)
(3 -1.08317e-16 0)
(1.58576 1.29936 0)
(1.55359 1.30038 0)
(1.6786 1.22058 0)
(2.16592 0.816607 0)
(3.02326 -0.0210565 0)
(3 -7.95688e-12 0)
(3 3.23956e-12 0)
(3 2.74458e-12 0)
(3 -2.53523e-12 0)
(3 4.25315e-14 0)
(3 1.64143e-15 0)
(3 2.52328e-15 0)
(3 3.9114e-15 0)
(3 3.92556e-15 0)
(3 2.95968e-15 0)
(3 2.94787e-15 0)
(3 1.82841e-15 0)
(3 3.34112e-16 0)
(3 -7.61792e-16 0)
(3 -7.13073e-16 0)
(1.59426 1.32962 0)
(1.50227 1.33356 0)
(1.72341 1.19111 0)
(2.38269 0.553487 0)
(3 -3.35033e-08 0)
(3 3.94801e-11 0)
(3 -1.24409e-13 0)
(3 -1.04698e-14 0)
(3 1.45359e-15 0)
(3 4.48973e-16 0)
(3 8.12954e-16 0)
(3 1.85676e-15 0)
(3 3.12243e-15 0)
(3 3.13748e-15 0)
(3 2.81405e-15 0)
(3 2.64538e-15 0)
(3 2.63907e-15 0)
(3 8.38666e-16 0)
(3 2.08544e-16 0)
(3 -4.21986e-16 0)
(1.58476 1.30006 0)
(1.47465 1.33733 0)
(2.00941 1.02135 0)
(2.89874 0.100149 0)
(3 -5.70361e-09 0)
(3 2.92972e-11 0)
(3 -8.11984e-14 0)
(3 1.90147e-15 0)
(3 7.82803e-16 0)
(3 1.90954e-15 0)
(3 1.12201e-15 0)
(3 1.09501e-15 0)
(3 1.91371e-15 0)
(3 2.67483e-15 0)
(3 2.68812e-15 0)
(3 2.27219e-15 0)
(3 2.56555e-15 0)
(3 1.89959e-15 0)
(3 1.90772e-15 0)
(3 1.48768e-15 0)
(1.59856 1.29226 0)
(1.46808 1.39297 0)
(2.14502 0.846698 0)
(3.01054 -0.00839108 0)
(3 2.4626e-08 0)
(3 -5.08033e-11 0)
(3 1.22053e-13 0)
(3 1.32429e-15 0)
(3 2.47412e-15 0)
(3 2.92772e-15 0)
(3 2.1016e-15 0)
(3 2.71425e-15 0)
(3 2.44118e-15 0)
(3 2.74438e-15 0)
(3 3.2078e-15 0)
(3 3.21133e-15 0)
(3 3.38484e-15 0)
(3 3.36887e-15 0)
(3 3.13797e-15 0)
(3 2.35395e-15 0)
(1.618 1.28138 0)
(1.55494 1.32559 0)
(2.40327 0.556237 0)
(3 -4.10321e-12 0)
(3 -1.65919e-11 0)
(3 3.3181e-13 0)
(3 -2.56049e-15 0)
(3 1.41137e-15 0)
(3 2.09455e-15 0)
(3 2.60807e-15 0)
(3 2.65403e-15 0)
(3 2.61487e-15 0)
(3 3.3992e-15 0)
(3 3.59721e-15 0)
(3 3.79974e-15 0)
(3 3.88001e-15 0)
(3 4.40879e-15 0)
(3 4.18483e-15 0)
(3 4.17486e-15 0)
(3 3.54304e-15 0)
(1.6366 1.2661 0)
(1.66059 1.23199 0)
(2.65381 0.287701 0)
(3 2.35349e-12 0)
(3 -2.19194e-13 0)
(3 -4.50412e-15 0)
(3 1.82767e-16 0)
(3 7.63101e-16 0)
(3 1.79732e-15 0)
(3 2.55417e-15 0)
(3 2.80122e-15 0)
(3 3.09767e-15 0)
(3 2.62812e-15 0)
(3 2.92629e-15 0)
(3 2.79215e-15 0)
(3 3.6778e-15 0)
(3 4.6292e-15 0)
(3 4.94915e-15 0)
(3 4.90044e-15 0)
(3 4.35219e-15 0)
(1.65295 1.23795 0)
(1.79785 1.1027 0)
(2.86518 0.0968721 0)
(3 -2.32214e-14 0)
(3 -2.37736e-15 0)
(3 -3.117e-15 0)
(3 -1.98837e-15 0)
(3 -6.10922e-17 0)
(3 4.04171e-16 0)
(3 1.62599e-15 0)
(3 2.23001e-15 0)
(3 2.46069e-15 0)
(3 2.79888e-15 0)
(3 2.18959e-15 0)
(3 1.77929e-15 0)
(3 2.2776e-15 0)
(3 4.16665e-15 0)
(3 5.37841e-15 0)
(3 5.41384e-15 0)
(3 5.45855e-15 0)
(1.67122 1.20388 0)
(1.90063 0.970913 0)
(2.98932 0.00616389 0)
(3 -5.18152e-15 0)
(3 -5.93499e-15 0)
(3 -6.43411e-15 0)
(3 -6.08985e-15 0)
(3 -5.04204e-15 0)
(3 -3.98216e-15 0)
(3 -2.81504e-15 0)
(3 -1.81027e-15 0)
(3 -1.22643e-16 0)
(3 2.43293e-15 0)
(3 3.08538e-15 0)
(3 2.79918e-15 0)
(3 2.63045e-15 0)
(3 3.14461e-15 0)
(3 3.17696e-15 0)
(3 3.44773e-15 0)
(3 4.38216e-15 0)
(1.73479 1.16759 0)
(2.07373 0.819051 0)
(3 -8.66389e-15 0)
(3 -8.9349e-15 0)
(3 -8.75437e-15 0)
(3 -8.30358e-15 0)
(3 -8.28e-15 0)
(3 -8.03998e-15 0)
(3 -6.76603e-15 0)
(3 -5.38182e-15 0)
(3 -3.97327e-15 0)
(3 -1.92569e-15 0)
(3 -8.91708e-16 0)
(3 6.35792e-17 0)
(3 8.79252e-16 0)
(3 1.90639e-15 0)
(3 2.62419e-15 0)
(3 3.00255e-15 0)
(3 4.07271e-15 0)
(3 4.2823e-15 0)
(1.74414 1.09758 0)
(2.22044 0.656938 0)
(3 -8.78014e-15 0)
(3 -9.54678e-15 0)
(3 -9.56072e-15 0)
(3 -1.0136e-14 0)
(3 -1.12625e-14 0)
(3 -1.20404e-14 0)
(3 -9.13364e-15 0)
(3 -6.96461e-15 0)
(3 -4.98622e-15 0)
(3 -3.78412e-15 0)
(3 -2.86015e-15 0)
(3 -2.38294e-15 0)
(3 -2.07665e-15 0)
(3 -1.68314e-15 0)
(3 -1.22556e-15 0)
(3 -1.02298e-15 0)
(3 -9.64369e-16 0)
(3 -9.89863e-16 0)
(1.80642 1.01348 0)
(2.41927 0.459775 0)
(3 -6.30979e-15 0)
(3 -6.09677e-15 0)
(3 -5.80724e-15 0)
(3 -5.15778e-15 0)
(3 -5.34533e-15 0)
(3 -6.312e-15 0)
(3 -6.91837e-15 0)
(3 -5.90969e-15 0)
(3 -3.40251e-15 0)
(3 -2.43408e-15 0)
(3 -2.29977e-15 0)
(3 -1.71251e-15 0)
(3 -1.55653e-15 0)
(3 -1.44907e-15 0)
(3 -1.20245e-15 0)
(3 -6.77425e-16 0)
(3 -5.79268e-16 0)
(3 -6.99785e-16 0)
(1.95153 0.886205 0)
(2.70778 0.214329 0)
(3 -5.40177e-15 0)
(3 -5.80086e-15 0)
(3 -4.65053e-15 0)
(3 -3.77542e-15 0)
(3 -3.83696e-15 0)
(3 -3.59631e-15 0)
(3 -3.63794e-15 0)
(3 -4.43527e-15 0)
(3 -5.31135e-15 0)
(3 -3.57461e-15 0)
(3 -1.71568e-15 0)
(3 -3.76341e-16 0)
(3 1.69846e-16 0)
(3 -9.4637e-16 0)
(3 2.95367e-16 0)
(3 5.9611e-16 0)
(3 9.74538e-16 0)
(3 1.57992e-15 0)
(2.1028 0.641631 0)
(2.99135 0.000267806 0)
(3 -6.12316e-16 0)
(3 -1.52527e-15 0)
(3 -1.42818e-15 0)
(3 -6.93203e-16 0)
(3 -3.71941e-16 0)
(3 -3.41811e-16 0)
(3 2.32827e-16 0)
(3 9.99354e-16 0)
(3 1.26732e-15 0)
(3 1.64031e-15 0)
(3 2.32116e-15 0)
(3 2.11156e-15 0)
(3 2.8936e-15 0)
(3 3.76416e-15 0)
(3 3.99923e-15 0)
(3 4.96632e-15 0)
(3 5.01683e-15 0)
(3 4.53682e-15 0)
(1.99505 0.376582 0)
(2.99994 -8.01397e-06 0)
(3 -6.30395e-16 0)
(3 -1.84402e-15 0)
(3 -2.9041e-15 0)
(3 -3.48037e-15 0)
(3 -2.95299e-15 0)
(3 -2.41774e-15 0)
(3 -1.99762e-15 0)
(3 -1.82011e-15 0)
(3 -1.73422e-15 0)
(3 -1.65112e-15 0)
(3 -2.49255e-15 0)
(3 -3.38488e-15 0)
(3 -3.11576e-15 0)
(3 -2.18034e-15 0)
(3 -1.62737e-15 0)
(3 -1.44382e-15 0)
(3 -1.68003e-15 0)
(3 -1.11805e-15 0)
(1.99447 -0.377396 0)
(2.99994 7.90125e-06 0)
(3 -1.5101e-15 0)
(3 -9.29294e-16 0)
(3 -1.00716e-15 0)
(3 -1.72113e-15 0)
(3 -1.84089e-15 0)
(3 -1.90245e-15 0)
(3 -1.80381e-15 0)
(3 -1.78997e-15 0)
(3 -2.18289e-15 0)
(3 -2.93042e-15 0)
(3 -3.22478e-15 0)
(3 -3.36227e-15 0)
(3 -3.61425e-15 0)
(3 -3.7378e-15 0)
(3 -3.82732e-15 0)
(3 -3.79989e-15 0)
(3 -3.64847e-15 0)
(3 -2.80929e-15 0)
(2.10058 -0.639428 0)
(2.99169 -0.000269068 0)
(3 -1.36596e-15 0)
(3 -2.57613e-16 0)
(3 3.71283e-16 0)
(3 -1.4664e-16 0)
(3 -4.64139e-16 0)
(3 -6.62662e-16 0)
(3 -1.56354e-15 0)
(3 -2.45609e-15 0)
(3 -2.93597e-15 0)
(3 -3.17824e-15 0)
(3 -3.47473e-15 0)
(3 -3.54255e-15 0)
(3 -3.70712e-15 0)
(3 -4.09985e-15 0)
(3 -4.34479e-15 0)
(3 -4.58352e-15 0)
(3 -4.79688e-15 0)
(3 -4.92059e-15 0)
(1.95642 -0.884822 0)
(2.71309 -0.210869 0)
(3 -2.10152e-15 0)
(3 -1.21044e-15 0)
(3 2.74846e-16 0)
(3 3.71501e-16 0)
(3 -5.93286e-17 0)
(3 -8.29918e-16 0)
(3 -1.35645e-15 0)
(3 -2.90517e-15 0)
(3 -3.80692e-15 0)
(3 -3.67383e-15 0)
(3 -3.55409e-15 0)
(3 -3.79524e-15 0)
(3 -4.24878e-15 0)
(3 -4.59401e-15 0)
(3 -5.27914e-15 0)
(3 -5.39266e-15 0)
(3 -5.41495e-15 0)
(3 -5.60435e-15 0)
(1.81116 -1.0143 0)
(2.42022 -0.459639 0)
(3 -2.42688e-15 0)
(3 -2.28446e-15 0)
(3 -9.1425e-16 0)
(3 -5.90762e-16 0)
(3 -8.63608e-16 0)
(3 -9.69741e-16 0)
(3 -1.02639e-15 0)
(3 -1.47031e-15 0)
(3 -2.69701e-15 0)
(3 -3.29959e-15 0)
(3 -2.72203e-15 0)
(3 -2.86938e-15 0)
(3 -3.43034e-15 0)
(3 -3.85127e-15 0)
(3 -4.39693e-15 0)
(3 -4.25579e-15 0)
(3 -4.14512e-15 0)
(3 -3.66967e-15 0)
(1.73701 -1.10073 0)
(2.21376 -0.659851 0)
(3 -6.52038e-16 0)
(3 -9.49476e-16 0)
(3 -9.59879e-16 0)
(3 -6.17185e-16 0)
(3 -3.83443e-16 0)
(3 -1.0485e-15 0)
(3 -2.24826e-15 0)
(3 -2.61472e-15 0)
(3 -2.87818e-15 0)
(3 -3.50756e-15 0)
(3 -3.18719e-15 0)
(3 -3.78173e-15 0)
(3 -4.1154e-15 0)
(3 -3.10489e-15 0)
(3 -2.00091e-15 0)
(3 -1.1675e-15 0)
(3 -1.16423e-15 0)
(3 -1.05537e-15 0)
(1.73414 -1.16504 0)
(2.07096 -0.821655 0)
(3 1.01499e-15 0)
(3 1.51006e-15 0)
(3 2.23442e-15 0)
(3 2.00277e-15 0)
(3 1.60457e-15 0)
(3 3.4521e-16 0)
(3 -1.46617e-15 0)
(3 -1.68663e-15 0)
(3 -1.48684e-15 0)
(3 -1.41262e-15 0)
(3 -9.10972e-16 0)
(3 -1.7379e-15 0)
(3 -1.86084e-15 0)
(3 -4.5149e-16 0)
(3 -1.81943e-16 0)
(3 -8.20856e-16 0)
(3 -1.07162e-15 0)
(3 -1.31918e-15 0)
(1.67396 -1.20298 0)
(1.90738 -0.968589 0)
(2.99437 -0.00285914 0)
(3 -1.8669e-14 0)
(3 6.59894e-16 0)
(3 1.24958e-15 0)
(3 1.00636e-15 0)
(3 7.99677e-16 0)
(3 -1.60537e-15 0)
(3 -1.92045e-15 0)
(3 -2.44375e-15 0)
(3 -1.58082e-15 0)
(3 -3.12964e-16 0)
(3 -8.27101e-16 0)
(3 -6.71905e-16 0)
(3 -5.80481e-16 0)
(3 -8.96048e-16 0)
(3 -1.31932e-15 0)
(3 -1.3192e-15 0)
(3 -2.10395e-15 0)
(1.65304 -1.23902 0)
(1.7947 -1.10232 0)
(2.86668 -0.0946117 0)
(3 2.82545e-13 0)
(3 -8.53628e-16 0)
(3 -2.23307e-16 0)
(3 -7.46514e-16 0)
(3 -8.2949e-16 0)
(3 -1.00578e-16 0)
(3 -5.59377e-16 0)
(3 -2.42112e-16 0)
(3 1.66723e-16 0)
(3 2.79257e-16 0)
(3 2.58945e-16 0)
(3 5.16492e-16 0)
(3 1.9179e-16 0)
(3 -4.20824e-16 0)
(3 -1.15131e-15 0)
(3 -1.94565e-15 0)
(3 -2.97298e-15 0)
(1.63685 -1.26513 0)
(1.66255 -1.22961 0)
(2.65515 -0.285098 0)
(3 -2.49585e-12 0)
(3 1.8038e-13 0)
(3 2.63316e-15 0)
(3 -1.83025e-15 0)
(3 -1.19628e-15 0)
(3 -1.13618e-15 0)
(3 -1.11529e-15 0)
(3 -3.042e-16 0)
(3 -4.9334e-16 0)
(3 -2.06915e-16 0)
(3 1.52454e-16 0)
(3 5.08242e-16 0)
(3 -5.01202e-16 0)
(3 -1.72913e-15 0)
(3 -2.17155e-15 0)
(3 -2.41301e-15 0)
(3 -2.43052e-15 0)
(1.61852 -1.28172 0)
(1.55918 -1.32187 0)
(2.40625 -0.551014 0)
(3 3.40333e-12 0)
(3 1.09975e-11 0)
(3 -2.59904e-13 0)
(3 1.13531e-15 0)
(3 -1.62439e-15 0)
(3 -1.09677e-15 0)
(3 -1.11335e-15 0)
(3 -4.37612e-16 0)
(3 1.0084e-15 0)
(3 8.02985e-16 0)
(3 2.36101e-16 0)
(3 -1.21793e-15 0)
(3 -1.93265e-15 0)
(3 -1.99535e-15 0)
(3 -1.85328e-15 0)
(3 -1.86746e-15 0)
(3 -1.96204e-15 0)
(1.59848 -1.29362 0)
(1.46887 -1.39676 0)
(2.13141 -0.857489 0)
(3.01068 0.0085729 0)
(3 -1.89569e-08 0)
(3 3.96034e-11 0)
(3 -1.02486e-13 0)
(3 -1.1801e-15 0)
(3 -8.88508e-16 0)
(3 -7.50667e-16 0)
(3 2.33856e-16 0)
(3 -5.60612e-16 0)
(3 2.53474e-16 0)
(3 8.20421e-17 0)
(3 -1.23824e-15 0)
(3 -1.37517e-15 0)
(3 -1.34415e-15 0)
(3 -7.76218e-16 0)
(3 -1.26198e-15 0)
(3 5.73364e-16 0)
(1.58309 -1.30003 0)
(1.47283 -1.33532 0)
(2.01539 -1.02529 0)
(2.90067 -0.102874 0)
(3 4.0172e-09 0)
(3 -2.56415e-11 0)
(3 9.2882e-14 0)
(3 -1.70157e-15 0)
(3 -1.45202e-15 0)
(3 -1.99568e-16 0)
(3 -5.97248e-16 0)
(3 1.79328e-16 0)
(3 5.82806e-16 0)
(3 7.42252e-16 0)
(3 8.23257e-17 0)
(3 -5.94757e-16 0)
(3 -8.54934e-16 0)
(3 -9.0193e-16 0)
(3 7.05151e-17 0)
(3 2.55966e-15 0)
(1.59211 -1.32773 0)
(1.5021 -1.33093 0)
(1.72616 -1.19183 0)
(2.38562 -0.55361 0)
(3 4.45432e-08 0)
(3 -2.31083e-11 0)
(3 6.84794e-14 0)
(3 -2.13123e-16 0)
(3 1.84795e-15 0)
(3 1.21097e-15 0)
(3 1.03387e-15 0)
(3 1.06135e-15 0)
(3 1.67884e-15 0)
(3 1.77738e-15 0)
(3 1.21503e-16 0)
(3 -7.81498e-16 0)
(3 -1.36477e-15 0)
(3 2.18339e-16 0)
(3 5.58239e-16 0)
(3 2.83329e-15 0)
(1.58683 -1.29962 0)
(1.55372 -1.29694 0)
(1.67532 -1.21883 0)
(2.14803 -0.818513 0)
(3.02344 0.0204772 0)
(3 1.75497e-12 0)
(3 1.81116e-12 0)
(3 -3.64771e-13 0)
(3 3.45988e-13 0)
(3 -2.84504e-14 0)
(3 1.92651e-15 0)
(3 1.76596e-15 0)
(3 1.34546e-15 0)
(3 1.19923e-15 0)
(3 -3.35655e-16 0)
(3 -1.41783e-15 0)
(3 -4.449e-16 0)
(3 1.21859e-15 0)
(3 4.16057e-16 0)
(3 1.7473e-15 0)
(1.58497 -1.28643 0)
(1.58918 -1.28973 0)
(1.64659 -1.25775 0)
(1.85693 -1.0988 0)
(2.71348 -0.237702 0)
(3 5.85239e-10 0)
(3 -1.36125e-08 0)
(3 1.22333e-08 0)
(3 -5.1668e-10 0)
(3 -1.84913e-12 0)
(3 1.02434e-13 0)
(3 1.98044e-15 0)
(3 7.36964e-16 0)
(3 3.26711e-16 0)
(3 -1.26809e-15 0)
(3 -1.82568e-15 0)
(3 -5.57667e-16 0)
(3 8.14577e-16 0)
(3 6.50193e-16 0)
(3 2.04949e-15 0)
(1.58281 -1.26962 0)
(1.59624 -1.27325 0)
(1.62682 -1.26832 0)
(1.61951 -1.28266 0)
(2.30651 -0.677989 0)
(3.02244 0.0202055 0)
(2.99971 -7.13657e-05 0)
(3 3.90599e-06 0)
(3 -7.83763e-08 0)
(3 8.8454e-10 0)
(3 -2.08164e-13 0)
(3 1.31874e-15 0)
(3 5.97002e-16 0)
(3 -8.06986e-16 0)
(3 -1.79116e-15 0)
(3 -2.19713e-15 0)
(3 -2.00444e-16 0)
(3 4.13897e-16 0)
(3 9.88873e-17 0)
(3 2.64196e-15 0)
(1.58097 -1.25395 0)
(1.60037 -1.2592 0)
(1.62191 -1.2668 0)
(1.59714 -1.30449 0)
(1.87704 -1.08209 0)
(2.75278 -0.224021 0)
(3.00405 -0.000398097 0)
(2.99993 -5.1241e-05 0)
(3 7.97772e-07 0)
(3 -8.63951e-10 0)
(3 1.56944e-14 0)
(3 1.0442e-15 0)
(3 2.87688e-16 0)
(3 -1.29403e-15 0)
(3 -2.07537e-15 0)
(3 -1.24342e-15 0)
(3 -1.89329e-15 0)
(3 -3.96522e-16 0)
(3 -2.90975e-16 0)
(3 2.95601e-15 0)
(1.57917 -1.24897 0)
(1.60155 -1.25553 0)
(1.61433 -1.26035 0)
(1.60961 -1.26891 0)
(1.76258 -1.19117 0)
(2.24584 -0.791973 0)
(3.00479 0.00996241 0)
(2.99995 0.00021769 0)
(3 -6.3023e-07 0)
(3 -5.85833e-11 0)
(3 1.25972e-13 0)
(3 2.02383e-15 0)
(3 -2.66646e-17 0)
(3 -6.40958e-16 0)
(3 -1.55319e-15 0)
(3 -1.72102e-15 0)
(3 -2.27576e-15 0)
(3 -1.17258e-15 0)
(3 -3.37002e-16 0)
(3 2.55895e-15 0)
(1.5763 -1.24028 0)
(1.59198 -1.25309 0)
(1.60574 -1.26379 0)
(1.61129 -1.27112 0)
(1.64622 -1.25233 0)
(1.75785 -1.19288 0)
(2.26395 -0.73241 0)
(2.99765 -0.0120388 0)
(3 -6.78897e-08 0)
(3 3.3649e-11 0)
(3 2.19411e-14 0)
(3 -4.47989e-15 0)
(3 3.07288e-15 0)
(3 8.77127e-17 0)
(3 -1.95463e-15 0)
(3 -2.01109e-15 0)
(3 -2.3008e-15 0)
(3 -1.49515e-15 0)
(3 -2.61998e-16 0)
(3 1.56641e-15 0)
(1.57979 -1.25466 0)
(1.58603 -1.25909 0)
(1.59646 -1.26492 0)
(1.60185 -1.26847 0)
(1.60872 -1.26267 0)
(1.59796 -1.26525 0)
(1.87009 -1.16989 0)
(2.95235 -0.402148 0)
(3.38474 0.664556 0)
(3 -5.90565e-11 0)
(3 7.29594e-11 0)
(3 -8.04438e-11 0)
(3 -5.08718e-15 0)
(3 4.29346e-13 0)
(3 1.46306e-14 0)
(3 -2.15853e-14 0)
(3 8.93878e-15 0)
(3 1.10884e-15 0)
(3 -3.04204e-15 0)
(3 1.03823e-16 0)
(1.1591 -0.782125 0)
(1.83869 -1.13688 0)
(1.83991 -1.15404 0)
(1.74365 -1.19558 0)
(1.71681 -1.20435 0)
(1.66125 -1.24651 0)
(1.65042 -1.21802 0)
(1.71832 -1.16639 0)
(1.74413 -1.24156 0)
(1.78247 -1.15513 0)
(2.27541 -0.748042 0)
(2.8616 -0.20916 0)
(3.09639 0.0285979 0)
(3.02054 0.0125548 0)
(3.00472 0.00558466 0)
(3.0019 0.00308607 0)
(3.00005 0.000600038 0)
(2.99998 2.28392e-05 0)
(2.99999 -1.43544e-05 0)
(3 -5.91633e-06 0)
(1.00709 -0.0288393 0)
(1.91097 -0.822152 0)
(2.12649 -0.780656 0)
(2.00563 -0.94821 0)
(1.95583 -0.992519 0)
(1.87147 -1.0851 0)
(1.79077 -1.13348 0)
(1.75551 -1.1463 0)
(1.75369 -1.16311 0)
(1.73374 -1.20552 0)
(1.72229 -1.19512 0)
(1.87752 -1.06423 0)
(2.1064 -0.879593 0)
(2.50086 -0.57672 0)
(2.9834 -0.138424 0)
(3.07358 0.0289685 0)
(3.00817 0.00768543 0)
(3.00292 0.00381627 0)
(3.00122 0.00218315 0)
(3.00008 0.00047943 0)
(1.15628 0.113146 0)
(1.95961 0.163112 0)
(2.21818 -0.542247 0)
(2.25177 -0.509398 0)
(2.20552 -0.610012 0)
(2.1512 -0.74777 0)
(2.02978 -0.908078 0)
(1.96047 -0.968283 0)
(1.90581 -1.03246 0)
(1.85726 -1.11979 0)
(1.79731 -1.15598 0)
(1.7933 -1.14663 0)
(1.80874 -1.12799 0)
(1.84599 -1.08829 0)
(2.03612 -0.954526 0)
(2.25676 -0.831787 0)
(2.66436 -0.504547 0)
(3.03637 -0.091509 0)
(3.05547 0.0241893 0)
(3.00408 0.0047211 0)
(1.12188 0.481477 0)
(1.81648 0.68957 0)
(2.2876 0.788181 0)
(2.33446 -0.200918 0)
(2.35465 -0.355362 0)
(2.34622 -0.381101 0)
(2.28964 -0.513262 0)
(2.20286 -0.659385 0)
(2.13975 -0.760081 0)
(2.09255 -0.886717 0)
(1.98794 -0.997038 0)
(1.92176 -1.05734 0)
(1.87894 -1.0856 0)
(1.86348 -1.0958 0)
(1.86759 -1.06142 0)
(1.8969 -1.04968 0)
(1.96418 -1.01932 0)
(2.16765 -0.898404 0)
(2.38293 -0.788215 0)
(2.77674 -0.441665 0)
(0.946438 0.867608 0)
(1.46578 1.77821 0)
(1.90104 1.6615 0)
(2.19544 0.724352 0)
(2.38438 0.60272 0)
(2.41572 0.00868011 0)
(2.44685 -0.197913 0)
(2.3794 -0.429364 0)
(2.32913 -0.518709 0)
(2.29544 -0.649547 0)
(2.20901 -0.786402 0)
(2.1244 -0.888771 0)
(2.06167 -0.944336 0)
(2.01031 -0.989369 0)
(1.9826 -0.976906 0)
(1.96235 -0.982158 0)
(1.9579 -1.0064 0)
(1.97117 -0.993866 0)
(1.99413 -0.99532 0)
(2.06783 -0.981208 0)
(0.799202 0.834843 0)
(1.70698 2.00884 0)
(2.08811 1.81039 0)
(2.06128 1.39643 0)
(2.19979 1.21198 0)
(2.38593 0.760543 0)
(2.46512 0.336984 0)
(2.49221 0.125432 0)
(2.44288 -0.121165 0)
(2.45283 -0.232679 0)
(2.4088 -0.40244 0)
(2.345 -0.539 0)
(2.29173 -0.629858 0)
(2.23153 -0.713187 0)
(2.18176 -0.76064 0)
(2.13902 -0.797759 0)
(2.07559 -0.869264 0)
(2.04783 -0.909391 0)
(2.02934 -0.942969 0)
(2.05946 -0.95699 0)
(0.809008 0.806384 0)
(1.50599 1.53448 0)
(2.22654 1.94977 0)
(2.25225 1.71362 0)
(2.3069 1.39406 0)
(2.33393 1.22684 0)
(2.41567 0.886086 0)
(2.465 0.623539 0)
(2.47667 0.424604 0)
(2.50375 0.248401 0)
(2.53061 0.0473506 0)
(2.48608 -0.177601 0)
(2.46406 -0.330908 0)
(2.39832 -0.491905 0)
(2.34279 -0.604499 0)
(2.29964 -0.656091 0)
(2.22465 -0.738444 0)
(2.20605 -0.728718 0)
(2.18453 -0.752417 0)
(2.14991 -0.772708 0)
(0.94833 0.865235 0)
(1.3395 1.34418 0)
(1.89893 1.9738 0)
(2.33223 2.12117 0)
(2.63206 1.41713 0)
(2.47735 1.49393 0)
(2.58946 1.12172 0)
(2.63024 0.744925 0)
(2.61771 0.660378 0)
(2.61845 0.356759 0)
(2.66024 0.176437 0)
(2.60601 -0.0785507 0)
(2.58419 -0.217944 0)
(2.52545 -0.363861 0)
(2.48543 -0.429554 0)
(2.44885 -0.446303 0)
(2.41667 -0.441748 0)
(2.40184 -0.427621 0)
(2.32231 -0.541131 0)
(2.31439 -0.532812 0)
(1.09655 0.951438 0)
(1.32087 1.35052 0)
(1.78215 1.9202 0)
(1.8609 2.0871 0)
(2.40657 1.57511 0)
(2.53994 1.74089 0)
(2.74826 1.33888 0)
(2.78824 0.825653 0)
(2.78603 0.622845 0)
(2.73355 0.44023 0)
(2.72881 0.323747 0)
(2.69629 0.173935 0)
(2.66658 0.0939978 0)
(2.64446 0.0197912 0)
(2.60779 -0.0454738 0)
(2.58202 -0.0656277 0)
(2.55587 -0.116424 0)
(2.51082 -0.232408 0)
(2.44003 -0.38172 0)
(2.45045 -0.356186 0)
(1.22301 1.0754 0)
(1.2943 1.40343 0)
(1.5818 1.88643 0)
(1.73373 2.02276 0)
(1.94236 1.71241 0)
(2.03616 1.78165 0)
(2.27078 1.54518 0)
(2.46031 1.22657 0)
(2.58443 1.07175 0)
(2.59345 1.05899 0)
(2.61587 0.869781 0)
(2.63273 0.713366 0)
(2.6237 0.550033 0)
(2.66696 0.468712 0)
(2.64609 0.281362 0)
(2.66594 0.175822 0)
(2.63605 -0.020259 0)
(2.59689 -0.157658 0)
(2.53303 -0.229211 0)
(2.56889 -0.121432 0)
(1.34734 1.27862 0)
(1.30181 1.52253 0)
(1.39989 1.9223 0)
(1.71665 1.97299 0)
(1.86357 1.75812 0)
(1.93085 1.79773 0)
(2.10086 1.72403 0)
(2.27024 1.5532 0)
(2.34495 1.40597 0)
(2.39226 1.34881 0)
(2.48116 1.14234 0)
(2.56623 0.986653 0)
(2.6143 0.744344 0)
(2.72672 0.627089 0)
(2.70723 0.346932 0)
(2.72158 0.216622 0)
(2.69827 0.0476124 0)
(2.663 0.037854 0)
(2.64093 0.104106 0)
(2.6179 0.0593308 0)
(1.45051 1.51831 0)
(1.38781 1.74284 0)
(1.4093 2.04862 0)
(1.6618 1.99968 0)
(1.78607 1.93205 0)
(1.88138 1.84099 0)
(1.99541 1.80133 0)
(2.15896 1.63017 0)
(2.26737 1.5168 0)
(2.40407 1.42854 0)
(2.53892 1.16715 0)
(2.65415 0.976972 0)
(2.69182 0.726939 0)
(2.74681 0.615542 0)
(2.75597 0.46571 0)
(2.7523 0.447059 0)
(2.73894 0.360103 0)
(2.71667 0.424776 0)
(2.70785 0.424942 0)
(2.67057 0.246823 0)
(1.66715 1.67222 0)
(1.57941 1.88864 0)
(1.51398 2.18297 0)
(1.70554 2.10438 0)
(1.79476 2.0214 0)
(1.96877 1.84423 0)
(2.04615 1.85265 0)
(2.23275 1.67078 0)
(2.42327 1.57225 0)
(2.58142 1.35429 0)
(2.66294 1.2663 0)
(2.73076 1.07952 0)
(2.72767 1.04846 0)
(2.73745 0.998088 0)
(2.74097 0.908858 0)
(2.72121 0.843447 0)
(2.70706 0.753697 0)
(2.74276 0.759572 0)
(2.73766 0.613352 0)
(2.73963 0.393504 0)
(1.87258 1.66597 0)
(1.84231 1.81464 0)
(1.7305 2.17911 0)
(1.81516 2.22071 0)
(1.931 2.10909 0)
(2.07043 1.98925 0)
(2.20193 1.93841 0)
(2.34776 1.8005 0)
(2.45781 1.76995 0)
(2.60621 1.55136 0)