/*--------------------------------*- C++ -*----------------------------------*\
  =========                 |
  \\      /  F ield         | OpenFOAM: The Open Source CFD Toolbox
   \\    /   O peration     | Website:  https://openfoam.org
    \\  /    A nd           | Version:  7
     \\/     M anipulation  |
\*---------------------------------------------------------------------------*/
FoamFile
{
    version     2.0;
    format      ascii;
    class       volScalarField;
    location    "2.6";
    object      p;
}
// * * * * * * * * * * * * * * * * * * * * * * * * * * * * * * * * * * * * * //

dimensions      [1 -1 -2 0 0 0 0];

internalField   nonuniform List<scalar> 
3700
(
0.198637
0.267125
0.310723
0.338714
0.335602
0.335731
0.350827
0.367016
0.403613
0.444712
0.478934
0.491969
0.483664
0.467106
0.464887
0.472422
0.486278
0.50893
0.517712
0.521303
0.136695
0.110109
0.113293
0.108881
0.101908
0.107528
0.118769
0.136851
0.163993
0.197691
0.223437
0.231552
0.215329
0.182702
0.153926
0.150536
0.156625
0.168976
0.195828
0.210387
0.13143
0.0949115
0.0753483
0.0569149
0.0504646
0.052599
0.0573008
0.0667898
0.0736518
0.0767044
0.0717281
0.072323
0.0726612
0.0767955
0.0856351
0.0985264
0.111932
0.122301
0.130424
0.131995
0.124856
0.0884516
0.0650259
0.045154
0.0431476
0.045987
0.0546152
0.075602
0.0919711
0.101915
0.105826
0.109896
0.109054
0.109861
0.111439
0.119039
0.132141
0.148813
0.166613
0.188512
0.115502
0.0808035
0.0566878
0.0406861
0.0398601
0.0429053
0.0518452
0.0738701
0.0926188
0.108197
0.12521
0.136848
0.147596
0.154533
0.154704
0.150607
0.153023
0.164603
0.188311
0.232132
0.101265
0.0746359
0.0496934
0.0395626
0.0391329
0.0427868
0.0526157
0.0712955
0.0875998
0.105219
0.132768
0.149956
0.172569
0.19392
0.212149
0.219786
0.224834
0.232439
0.242869
0.286117
0.0840849
0.0645327
0.0410205
0.0398757
0.0434056
0.0526843
0.0733185
0.0877401
0.0936061
0.106133
0.13246
0.155166
0.188745
0.219857
0.248803
0.28109
0.306522
0.332525
0.344999
0.396494
0.0667456
0.0485495
0.0344013
0.0402043
0.0514966
0.0746028
0.108984
0.127792
0.13601
0.149514
0.159013
0.175699
0.206778
0.245055
0.284636
0.331382
0.380602
0.432523
0.46958
0.55619
0.0496531
0.0350717
0.0304376
0.0400846
0.0539832
0.0830984
0.123157
0.148672
0.183643
0.221413
0.244193
0.271548
0.298038
0.331503
0.360617
0.402326
0.462818
0.544046
0.613251
0.748408
0.0353829
0.0264893
0.0297201
0.0389213
0.0517873
0.08243
0.120097
0.146248
0.204278
0.272587
0.322016
0.372489
0.42805
0.482711
0.523299
0.570408
0.621771
0.704165
0.814666
0.963585
0.0264722
0.0223234
0.0295212
0.0389095
0.0504249
0.0835394
0.114852
0.139618
0.202542
0.298399
0.382199
0.465273
0.5594
0.636767
0.718915
0.801373
0.881225
0.961713
1.14184
1.13368
0.0207825
0.0200068
0.031319
0.0413487
0.0571155
0.124086
0.15648
0.206212
0.291535
0.375779
0.491982
0.601587
0.723018
0.826048
0.950369
1.08653
1.22237
1.33606
1.53873
1.49566
0.016534
0.0172499
0.0312221
0.0508211
0.0994337
0.213076
0.276605
0.391755
0.536126
0.672779
0.801404
0.914796
1.03566
1.14823
1.2873
1.47049
1.66699
1.85084
2.09888
2.07855
0.0144811
0.0155502
0.0344298
0.0868033
0.174642
0.292959
0.406661
0.579433
0.780179
1.00839
1.18436
1.35428
1.51731
1.67747
1.87552
2.1002
2.33218
2.57864
2.79764
2.99469
0.0135606
0.0248037
0.0553621
0.128358
0.249908
0.355981
0.544043
0.80212
1.10649
1.42381
1.68961
1.93748
2.1675
2.40782
2.70426
2.98697
3.25738
3.51382
3.66528
3.78023
0.0136967
0.0410885
0.082852
0.154693
0.362793
0.611604
1.00236
1.41382
1.89989
2.28851
2.59282
2.87206
3.14253
3.43652
3.75114
3.94684
4.07021
4.1246
4.03393
3.91124
0.0126921
0.0561756
0.150614
0.336239
0.763009
1.4341
2.03751
2.62982
3.21565
3.59196
3.82476
4.05604
4.25709
4.40315
4.48189
4.40448
4.18333
3.64808
2.78988
1.88994
0.0333597
0.137664
0.477288
1.20285
2.11337
2.87685
3.53545
4.22584
4.77469
4.83806
4.76938
4.77012
4.72638
4.55143
4.03463
3.07333
2.09788
1.33616
1.01894
0.992882
0.307426
0.875151
1.99231
3.15523
4.18274
4.83058
5.40523
5.85445
5.71791
5.28365
4.86435
4.33056
3.41222
2.34152
1.43312
1.03102
0.989343
0.994912
0.997323
0.999442
2.32395
3.64153
4.88389
5.71296
6.23667
6.35582
6.51117
6.2093
4.5391
3.20858
2.36515
1.5542
1.07561
0.986904
0.992688
0.996195
0.999147
0.999975
1.00002
1.00001
6.96983
6.91576
6.88195
6.92381
6.98413
6.69684
5.99304
2.35845
0.643165
1
1
1
1
1
1
1
1
1
1
1
6.96855
6.91171
6.85506
6.8146
6.8975
5.72106
2.6371
1.02474
1
1
1
1
1
1
1
1
1
1
1
1
6.81835
6.85842
6.84325
6.72184
6.39378
3.31251
1.01906
0.999612
1
1
1
1
1
1
1
1
1
1
1
1
6.69717
6.82853
6.83244
6.54082
4.59046
1.40413
0.994936
1.0001
0.999999
1
1
1
1
1
1
1
1
1
1
1
6.57052
6.81165
6.80099
6.07895
2.70239
0.975481
1.00034
0.999994
1
1
1
1
1
1
1
1
1
1
1
1
6.43531
6.78243
6.77524
4.95491
1.44806
1
1
1
1
1
1
1
1
1
1
1
1
1
1
1
6.3662
6.66321
6.68409
3.56074
0.973348
1
1
1
1
1
1
1
1
1
1
1
1
1
1
1
6.4352
6.61367
6.04418
2.1028
1
1
1
1
1
1
1
1
1
1
1
1
1
1
1
1
6.98896
6.70715
4.95112
1.193
1
1
1
1
1
1
1
1
1
1
1
1
1
1
1
1
7.25721
6.39418
3.48439
0.987727
1
1
1
1
1
1
1
1
1
1
1
1
1
1
1
1
7.43598
5.98902
2.2982
1
1
1
1
1
1
1
1
1
1
1
1
1
1
1
1
1
7.50369
5.38807
1.59095
1
1
1
1
1
1
1
1
1
1
1
1
1
1
1
1
1
7.54301
4.72642
1.15855
1
1
1
1
1
1
1
1
1
1
1
1
1
1
1
1
1
7.39877
3.96234
1.0013
1
1
1
1
1
1
1
1
1
1
1
1
1
1
1
1
1
7.22144
3.15773
1
1
1
1
1
1
1
1
1
1
1
1
1
1
1
1
1
1
6.88547
2.55344
1
1
1
1
1
1
1
1
1
1
1
1
1
1
1
1
1
1
6.69093
1.94763
1
1
1
1
1
1
1
1
1
1
1
1
1
1
1
1
1
1
6.35308
1.36929
1
1
1
1
1
1
1
1
1
1
1
1
1
1
1
1
1
1
5.60564
1.00539
1
1
1
1
1
1
1
1
1
1
1
1
1
1
1
1
1
1
4.66065
1.00004
1
1
1
1
1
1
1
1
1
1
1
1
1
1
1
1
1
1
4.66134
1.00004
1
1
1
1
1
1
1
1
1
1
1
1
1
1
1
1
1
1
5.6065
1.00537
1
1
1
1
1
1
1
1
1
1
1
1
1
1
1
1
1
1
6.35236
1.36894
1
1
1
1
1
1
1
1
1
1
1
1
1
1
1
1
1
1
6.69162
1.94713
1
1
1
1
1
1
1
1
1
1
1
1
1
1
1
1
1
1
6.88518
2.55367
1
1
1
1
1
1
1
1
1
1
1
1
1
1
1
1
1
1
7.22083
3.15767
1
1
1
1
1
1
1
1
1
1
1
1
1
1
1
1
1
1
7.39931
3.96175
1.00135
1
1
1
1
1
1
1
1
1
1
1
1
1
1
1
1
1
7.54295
4.72967
1.15859
1
1
1
1
1
1
1
1
1
1
1
1
1
1
1
1
1
7.50229
5.38611
1.59376
1
1
1
1
1
1
1
1
1
1
1
1
1
1
1
1
1
7.43605
5.99329
2.29685
1
1
1
1
1
1
1
1
1
1
1
1
1
1
1
1
1
7.25582
6.39014
3.48714
0.987714
1
1
1
1
1
1
1
1
1
1
1
1
1
1
1
1
6.9889
6.7104
4.95286
1.19108
1
1
1
1
1
1
1
1
1
1
1
1
1
1
1
1
6.44104
6.61653
6.04683
2.10329
1
1
1
1
1
1
1
1
1
1
1
1
1
1
1
1
6.36656
6.66371
6.68115
3.56005
0.973374
1
1
1
1
1
1
1
1
1
1
1
1
1
1
1
6.43225
6.77539
6.7719
4.95289
1.44573
1
1
1
1
1
1
1
1
1
1
1
1
1
1
1
6.56691
6.81028
6.79831
6.08443
2.70105
0.975487
1.00034
0.999994
1
1
1
1
1
1
1
1
1
1
1
1
6.69568
6.82963
6.83286
6.52889
4.58737
1.40566
0.99489
1.0001
0.999999
1
1
1
1
1
1
1
1
1
1
1
6.82033
6.86109
6.84569
6.72518
6.4069
3.31927
1.01985
0.9996
1
1
1
1
1
1
1
1
1
1
1
1
6.97103
6.91403
6.85572
6.81766
6.89527
5.71666
2.64195
1.02565
1
1
1
1
1
1
1
1
1
1
1
1
6.9717
6.91633
6.8804
6.92085
6.97536
6.694
5.99256
2.35702
0.644119
1
1
1
1
1
1
1
1
1
1
1
2.32375
3.64464
4.88279
5.70794
6.2287
6.35526
6.51151
6.20844
4.53849
3.20799
2.36489
1.55446
1.07587
0.986935
0.992703
0.996203
0.999149
0.999974
1.00002
1.00001
0.307204
0.867773
1.99518
3.16309
4.17855
4.82404
5.40206
5.85417
5.7185
5.28486
4.86553
4.33149
3.41295
2.34136
1.43256
1.03082
0.989349
0.994915
0.997323
0.999442
0.034778
0.153806
0.477349
1.1973
2.11386
2.87874
3.53394
4.22234
4.77444
4.83913
4.7704
4.77053
4.72668
4.55139
4.03407
3.07285
2.09742
1.33577
1.01883
0.992876
0.00786668
0.0449793
0.153458
0.344546
0.772858
1.43378
2.03826
2.63295
3.21826
3.59226
3.82557
4.05781
4.25847
4.40375
4.48239
4.4049
4.1837
3.64831
2.78997
1.89006
0.0107463
0.03823
0.0872678
0.152264
0.352831
0.615098
1.00433
1.4135
1.89884
2.28875
2.59418
2.87418
3.14458
3.43794
3.75147
3.94705
4.07082
4.12506
4.03433
3.91154
0.0134462
0.0269461
0.0607966
0.128966
0.247419
0.352261
0.54056
0.795453
1.10154
1.41963
1.68742
1.9366
2.16629
2.40625
2.70213
2.98479
3.25597
3.51353
3.66566
3.78048
0.0138311
0.0178813
0.0386946
0.090609
0.17808
0.28827
0.404053
0.579205
0.778874
1.00701
1.18351
1.35355
1.51603
1.67547
1.87285
2.09729
2.32998
2.57797
2.79832
2.99623
0.0152005
0.0179308
0.0329875
0.0537395
0.105211
0.213419
0.277805
0.39305
0.537241
0.673634
0.801923
0.915393
1.03721
1.15029
1.28922
1.47181
1.66787
1.85202
2.10064
2.08034
0.0190807
0.0204806
0.0327339
0.0425288
0.0591636
0.127835
0.161976
0.209
0.292023
0.373456
0.490268
0.602004
0.725059
0.828356
0.952053
1.08734
1.22294
1.33703
1.54023
1.49712
0.0246395
0.0227498
0.0313203
0.039592
0.0497754
0.0840205
0.114989
0.138256
0.197822
0.294612
0.380318
0.465131
0.560037
0.637271
0.718986
0.801341
0.881385
0.96228
1.14232
1.13381
0.0330501
0.0265118
0.0317352
0.0395937
0.0509672
0.0794434
0.116642
0.143815
0.201601
0.271579
0.321412
0.372132
0.427829
0.482758
0.523325
0.57034
0.621839
0.70421
0.814502
0.962899
0.0472442
0.0336775
0.031398
0.0401957
0.0536202
0.0805418
0.119395
0.146809
0.183794
0.222768
0.245435
0.272347
0.298359
0.331175
0.359657
0.401344
0.462273
0.543329
0.612222
0.746951
0.0645498
0.0474437
0.0333968
0.0393968
0.0517912
0.0739087
0.106994
0.127975
0.138609
0.152335
0.161181
0.175889
0.205437
0.243328
0.28305
0.330132
0.379584
0.431558
0.468355
0.554926
0.0815696
0.0655377
0.040893
0.0388814
0.0442316
0.0539487
0.0744486
0.0882186
0.0937542
0.10427
0.12967
0.152347
0.186298
0.217866
0.247278
0.280074
0.305723
0.331628
0.344257
0.396483
0.106225
0.079102
0.0526102
0.0396595
0.0397029
0.0432332
0.0525799
0.0689403
0.0844071
0.101465
0.129577
0.147712
0.170803
0.192605
0.211272
0.21858
0.223673
0.23171
0.242783
0.286854
0.123129
0.0877392
0.0613344
0.041662
0.040485
0.0433464
0.0512504
0.0707065
0.0887547
0.104639
0.122374
0.135109
0.14646
0.153494
0.154107
0.150891
0.15377
0.166174
0.18968
0.232929
0.129002
0.0929108
0.0683862
0.046256
0.0435435
0.0463323
0.0536196
0.0725296
0.0885991
0.0995348
0.104998
0.109652
0.109924
0.110949
0.113089
0.121388
0.134145
0.150064
0.167484
0.189115
0.134329
0.0965055
0.075851
0.0554131
0.0496861
0.0519097
0.055477
0.064976
0.0724569
0.0768571
0.0730049
0.0734046
0.0745571
0.0796376
0.0887476
0.100616
0.113039
0.122621
0.130052
0.132207
0.139994
0.109353
0.105147
0.0995765
0.107913
0.110004
0.10325
0.109035
0.117076
0.116353
0.102412
0.104963
0.120369
0.149643
0.178273
0.201564
0.22667
0.24561
0.241169
0.214669
0.204985
0.26097
0.295089
0.318116
0.343029
0.345549
0.336975
0.341005
0.365857
0.389208
0.416343
0.451209
0.468362
0.481544
0.502124
0.518147
0.525617
0.530887
0.519244
0.509703
0.561041
0.637255
0.699956
0.807119
0.839713
0.867098
0.864335
0.848491
0.847779
0.869886
0.903484
0.906236
0.887175
0.862802
0.837343
0.819154
0.809491
0.810386
0.826503
0.83973
0.281841
0.410767
0.543152
0.669696
0.772481
0.85066
0.864154
0.867134
0.868819
0.880212
0.896117
0.90041
0.886801
0.869725
0.852386
0.830032
0.813382
0.811251
0.814988
0.825264
0.135521
0.160888
0.241697
0.333431
0.506818
0.696776
0.782079
0.868195
0.898223
0.889978
0.88415
0.878179
0.866699
0.861262
0.859102
0.852988
0.837267
0.817629
0.797979
0.804192
0.191465
0.217971
0.229612
0.233401
0.247191
0.321393
0.523896
0.759477
0.844408
0.892584
0.88913
0.861274
0.847362
0.852329
0.866608
0.86764
0.858464
0.834337
0.797067
0.796955
0.243265
0.265258
0.276882
0.279783
0.280485
0.285305
0.306703
0.423705
0.663518
0.825839
0.852864
0.831517
0.830431
0.846147
0.869471
0.874093
0.871166
0.848746
0.800495
0.79529
0.309598
0.331024
0.346058
0.328145
0.309657
0.309677
0.321405
0.335612
0.390159
0.53953
0.715542
0.801129
0.806318
0.824077
0.86112
0.868443
0.864758
0.850819
0.809792
0.802167
0.391306
0.413876
0.40608
0.367341
0.354184
0.357456
0.360791
0.377748
0.384974
0.38863
0.460004
0.640374
0.759775
0.787572
0.824044
0.844843
0.853126
0.844839
0.820652
0.81653
0.512855
0.503154
0.486977
0.446335
0.401417
0.393593
0.396555
0.402027
0.406191
0.405651
0.403733
0.434788
0.561606
0.711947
0.777591
0.80133
0.823919
0.832728
0.821857
0.825144
0.66989
0.620256
0.571806
0.513939
0.467059
0.448233
0.442233
0.43646
0.438393
0.433902
0.431442
0.426282
0.424772
0.497293
0.65463
0.752062
0.793119
0.820038
0.819305
0.827509
0.856814
0.757083
0.691433
0.620908
0.550901
0.50184
0.483662
0.468742
0.453431
0.457416
0.453944
0.443709
0.436505
0.409831
0.461479
0.637168
0.738522
0.806111
0.813145
0.824657
1.26886
0.923285
0.788917
0.72961
0.693872
0.644905
0.556897
0.512577
0.50617
0.504389
0.502799
0.497874
0.475515
0.438164
0.419444
0.456485
0.585683
0.708416
0.757316
0.811313
2.05491
1.50687
1.10746
0.91438
0.885557
0.843367
0.744364
0.634956
0.580252
0.558625
0.549785
0.539671
0.522034
0.501416
0.477843
0.436952
0.437749
0.496269
0.608917
0.751265
2.50642
2.17375
1.72659
1.32917
1.06921
0.938836
0.868055
0.785871
0.702208
0.652579
0.634428
0.607007
0.59114
0.570588
0.541289
0.49988
0.450251
0.433601
0.45353
0.576834
2.36848
2.34901
2.23323
1.94173
1.56487
1.22754
1.07418
0.987548
0.905527
0.832377
0.758005
0.681835
0.635388
0.610142
0.578347
0.54472
0.510247
0.474286
0.468668
0.478242
1.68347
2.14529
2.2215
2.19394
2.05963
1.78276
1.47725
1.24335
1.07442
0.974232
0.878122
0.781858
0.716665
0.680072
0.636585
0.609203
0.588427
0.553466
0.514176
0.502421
1.10896
1.43849
1.84637
2.11362
2.11296
2.07422
1.93208
1.69222
1.42494
1.2241
1.08501
0.985287
0.912443
0.823985
0.718682
0.657074
0.64335
0.615189
0.571752
0.549998
1.00452
1.04451
1.20483
1.54497
1.86261
2.01969
2.01329
1.96968
1.84116
1.6145
1.3979
1.22
1.06669
0.952173
0.853303
0.751596
0.692503
0.644788
0.607525
0.606761
1.00009
1.00112
1.01042
1.07777
1.26687
1.57007
1.82016
1.93603
1.93098
1.8869
1.76935
1.57976
1.34992
1.17916
1.07788
0.956907
0.845539
0.764571
0.694666
0.683374
1
1.00001
1.00014
1.00253
1.0183
1.1006
1.29055
1.55357
1.77324
1.85794
1.84901
1.80542
1.69356
1.52222
1.34155
1.15346
1.0152
0.941181
0.858046
0.792513
1
1
1
1.00003
1.00031
1.00396
1.02451
1.10819
1.2862
1.52363
1.71019
1.77278
1.75558
1.70502
1.61167
1.47832
1.31889
1.17816
1.06775
0.968277
1
1
1
1
1
1.00005
1.0005
1.00467
1.02655
1.10633
1.27177
1.46907
1.62123
1.6632
1.636
1.58523
1.51014
1.42071
1.33212
1.20602
1
1
1
1
1
1
1
1.00006
1.00062
1.00468
1.02692
1.09449
1.22414
1.37782
1.49212
1.52561
1.50363
1.45461
1.40248
1.31093
1
1
1
1
1
1
1
1
1.00001
1.00006
1.00063
1.00407
1.02071
1.06542
1.15278
1.25563
1.33066
1.35929
1.34789
1.29393
1
1
1
1
1
1
1
1
1
1
1.00001
1.00005
1.00043
1.00245
1.011
1.03323
1.07366
1.11873
1.15568
1.15291
1
1
1
1
1
1
1
1
1
1
1
1
1
1.00003
1.00018
1.0009
1.00337
1.00891
1.01772
1.02353
1.62484
2.46499
2.58673
2.08742
1.31027
1.03689
1.00187
1.00005
1
1
1
1
1
1
1
2.3427
2.81734
2.52952
1.54151
1.0482
1.00081
1
1
1
1
1
1
1
1
1
2.93156
2.86889
1.9782
1.15106
1.00509
1.00005
1
1
1
1
1
1
1
1
1
3.24783
2.55078
1.36356
1.01955
1.0002
1
1
1
1
1
1
1
1
1
1
3.31779
1.68476
1.04733
1.00049
1
1
1
1
1
1
1
1
1
1
1
2.06954
1.07336
1.00048
0.999999
1
1
1
1
1
1
1
1
1
1
1
1.10237
1.00058
0.999997
1
1
1
1
1
1
1
1
1
1
1
1
0.998134
0.999865
0.999996
1
1
1
1
1
1
1
1
1
1
1
1
0.999967
1
1
1
1
1
1
1
1
1
1
1
1
1
1
1
1
1
1
1
1
1
1
1
1
1
1
1
1
1
1
1
1
1
1
1
1
1
1
1
1
1
1
1
1
1
1
1
1
1
1
1
1
1
1
1
1
1
1
1
1
1
1
1
1
1
1
1
1
1
1
1
1
1
1
1
1
1
1
1
1
1
1
1
1
1
1
1
1
1
1
1
1
1
1
1
1
1
1
1
1
1
1
1
1
1
1
1
1
1
1
1
1
1
1
1
1
1
1
1
1
1
1
1
1
1
1
1
1
1
1
1
1
1
1
1
1
1
1
1
1
1
1
1
1
1
1
1
1
1
1
1
1
1
1
1
1
1
1
1
1
1
1
1
1
1
1
1
1
1
1
1
1
1
1
1
1
1
1
1
1
1
1
1
1
1
1
1
1
1
1
1
1
1
1
1
1
1
1
1
1
1
1
1
1
1
1
1
1
1
1
1
1
1
1
1
1
1
1
1
1
1
1
1
1
1
1
1
1
1
1
1
1
1
1
1
1
1
1
1
1
1
1
1
1
1
1
1
1
1
1
1
1
1
1
1
1
1
1
1
1
1
1
1
1
1
1
1
1
1
1
1
1
1
1
1
1
1
1
1
1
1
1
1
1
1
1
1
1
1
1
1
1
1
1
1
1
1
1
1
1
1
1
1
1
1
1
1
1
1
1
1
1
1
1
1
1
1
1
1
1
1
1
1
1
1
1
1
1
1
1
1
1
1
1
1
1
1
1
1
1
1
1
1
1
1
1
1
1
1
1
1
1
1
1
1
1
1
1
1
1
1
1
1
1
1
1
1
1
1
1
1
1
1
1
1
1
1
1
1
1
1
1
1
1
1
1
1
1
1
1
1
1
1
1
1
1
1
1
1
1
1
1
1
1
1
1
1
1
1
1
1
1
1
1
1
1
1
1
1
1
1
1
1
1
1
1
1
1
1
1
1
1
1
1
1
1
1
1
1
1
1
1
1
1
1
1
1
1
1
1
1
1
1
1
1
1
1
1
1
1
1
1
1
1
1
1
1
1
1
1
1
1
1
1
1
1
1
1
1
1
1
1
1
1
1
1
1
1
1
1
1
1
1
1
1
1
1
1
1
1
1
1
1
1
1
1
1
1
1
1
1
1
1
1
1
1
1
1
1
1
1
1
1
1
1
1
1
1
1
1
1
1
1
1
1
1
1
1
1
1
1
1
1
1
1
1
1
1
1
1
1
1
1
1
1
1
1
1
1
1
1
1
1
1
1
1
1
1
1
1
1
1
1
1
1
1
1
1
1
1
1
1
1
1
1
1
1
1
1
1
1
1
1
1
1
1
1
1
1
1
1
1
1
1
1
1
1
1
1
1
1
1
1
1
1
1
1
1
1
1
1
1
1
1
1
1
1
1
1
1
1
1
1
1
1
1
1
1
1
1
1
1
1
1
1
1
1
1
1
1
1
1
1
1
1
1
1
1
1
1
1
1
1
1
1
1
1
1
1
1
1
1
1
1
1
1
1
1
1
1
1
1
1
1
1
1
1
1
1
1
1
1
1
1
1
1
1
1
1
1
1
1
1
1
1
1
1
1
1
1
1
1
1
1
1
1
1
1
1
1
1
1
1
1
1
1
1
1
1
1
1
1
1
1
1
1
1
1
1
1
1
1
1
1
1
1
1
1
1
1
1
1
1
1
1
1
1
1
1
1
1
1
1
1
1
1
1
1
1
1
1
1
1
1
1
1
1
1
1
1
1
1
1
1
1
1
1
1
1
1
1
1
1
1
1
1
1
1
1
1
1
1
1
1
1
1
1
1
1
1
1
1
1
1
1
1
1
1
1
1
1
1
1
1
1
1
1
1
1
1
1
1
1
1
1
1
1
1
1
1
1
1
1
1
0.999967
1
1
1
1
1
1
1
1
1
1
1
1
1
1
0.998133
0.999865
0.999996
1
1
1
1
1
1
1
1
1
1
1
1
1.10242
1.00058
0.999997
1
1
1
1
1
1
1
1
1
1
1
1
2.06944
1.07333
1.00048
0.999999
1
1
1
1
1
1
1
1
1
1
1
3.31769
1.6844
1.04727
1.00049
1
1
1
1
1
1
1
1
1
1
1
3.24802
2.5506
1.36341
1.01954
1.0002
1
1
1
1
1
1
1
1
1
1
2.9322
2.86924
1.97813
1.15102
1.00509
1.00005
1
1
1
1
1
1
1
1
1
2.34375
2.81752
2.52933
1.5414
1.04819
1.00081
1
1
1
1
1
1
1
1
1
1.62493
2.46496
2.5865
2.08725
1.31026
1.03691
1.00187
1.00005
1
1
1
1
1
1
1
1.26872
2.05412
2.5064
2.36844
1.68364
1.109
1.00452
1.00009
1
1
1
1
1
1
1
0.925751
1.50819
2.17309
2.34898
2.14519
1.43849
1.04451
1.00112
1.00001
1
1
1
1
1
1
0.787127
1.10835
1.72679
2.2333
2.2215
1.84635
1.20481
1.01042
1.00014
1
1
1
1
1
1
0.727296
0.913077
1.3301
1.94162
2.19384
2.11356
1.54494
1.07777
1.00253
1.00003
1
1
1
1
1
0.693018
0.884535
1.06917
1.56488
2.05965
2.1129
1.8625
1.26684
1.0183
1.00031
1
1
1
1
1
0.645562
0.842827
0.937813
1.22814
1.78308
2.07423
2.01972
1.57003
1.10059
1.00396
1.00005
1
1
1
1
0.557949
0.744752
0.867183
1.07394
1.47747
1.93222
2.01334
1.82023
1.29054
1.02451
1.0005
1
1
1
1
0.51356
0.635917
0.785944
0.98764
1.24291
1.69206
1.96968
1.93605
1.55365
1.10822
1.00467
1.00006
1
1
1
0.50687
0.580498
0.702031
0.905673
1.0744
1.42499
1.84114
1.93096
1.77323
1.28628
1.02656
1.00062
1.00001
1
1
0.50395
0.558398
0.652357
0.832457
0.974496
1.22426
1.61439
1.88688
1.85795
1.52366
1.10636
1.00468
1.00006
1
1
0.502411
0.549582
0.634719
0.758242
0.877812
1.0846
1.39791
1.76932
1.84904
1.71022
1.27175
1.02692
1.00063
1.00001
1
0.497795
0.539458
0.607183
0.682352
0.781801
0.984951
1.21995
1.57983
1.8055
1.77285
1.46907
1.09447
1.00407
1.00005
1
0.475361
0.521929
0.590895
0.635549
0.71738
0.912782
1.06673
1.35015
1.69363
1.75565
1.62127
1.22413
1.0207
1.00043
1
0.438462
0.501553
0.570228
0.609677
0.680272
0.824726
0.952132
1.17895
1.52233
1.70512
1.66326
1.37782
1.06542
1.00245
1.00003
0.419477
0.478346
0.541098
0.577654
0.636027
0.719073
0.85357
1.07797
1.3419
1.61175
1.63604
1.49214
1.15278
1.011
1.00018
0.455429
0.437167
0.500077
0.544394
0.608307
0.65623
0.752316
0.957351
1.15374
1.47837
1.58523
1.52561
1.25563
1.03323
1.0009
0.585828
0.437819
0.451057
0.51024
0.587862
0.642413
0.692665
0.846309
1.01452
1.31883
1.51012
1.50362
1.33066
1.07366
1.00337
0.707571
0.496124
0.433617
0.47506
0.553897
0.614716
0.644135
0.765373
0.940942
1.17815
1.42066
1.45459
1.35928
1.11873
1.00891
0.756567
0.607244
0.453391
0.469475
0.515286
0.57213
0.606693
0.69448
0.858178
1.06755
1.33205
1.40246
1.34788
1.15568
1.01772
0.811765
0.749273
0.57657
0.478615
0.504072
0.551199
0.605437
0.682486
0.793261
0.967829
1.20591
1.31091
1.29392
1.15291
1.02353
0.856101
0.757435
0.691678
0.6208
0.55163
0.502415
0.48392
0.468035
0.453171
0.457264
0.453801
0.443354
0.436208
0.409669
0.461434
0.636348
0.737369
0.804524
0.812837
0.825193
0.669276
0.620732
0.572557
0.514448
0.467957
0.44846
0.442248
0.43616
0.438126
0.433878
0.431225
0.426257
0.424219
0.495953
0.653371
0.754495
0.792523
0.820019
0.819217
0.828005
0.512681
0.503793
0.487673
0.446954
0.401724
0.393887
0.39675
0.401902
0.405645
0.404804
0.403252
0.433592
0.558639
0.713098
0.774901
0.803074
0.825289
0.83338
0.82299
0.827657
0.391816
0.414318
0.406847
0.368519
0.3548
0.357761
0.360853
0.377531
0.38494
0.388327
0.459528
0.639492
0.759286
0.786855
0.820642
0.843204
0.853845
0.846044
0.823566
0.821099
0.310326
0.331257
0.346931
0.328831
0.309576
0.309328
0.320937
0.335318
0.389306
0.538101
0.716178
0.80311
0.807902
0.82348
0.859864
0.867266
0.864577
0.852602
0.813013
0.804978
0.243788
0.265302
0.274763
0.278482
0.280127
0.285227
0.306971
0.424356
0.661292
0.825308
0.852174
0.831848
0.831296
0.846981
0.869193
0.872368
0.869757
0.84881
0.801263
0.795504
0.191799
0.21664
0.234152
0.235549
0.24761
0.319816
0.524454
0.760335
0.843712
0.890554
0.886575
0.860774
0.849665
0.854152
0.865951
0.865627
0.857228
0.833957
0.795402
0.794665
0.135427
0.16149
0.239888
0.328026
0.504064
0.693075
0.782692
0.869011
0.898302
0.891337
0.886131
0.878423
0.868301
0.864098
0.860686
0.853664
0.837379
0.816888
0.795547
0.802144
0.278849
0.415651
0.539607
0.665261
0.774382
0.850958
0.864258
0.865651
0.866931
0.877449
0.892862
0.899304
0.886344
0.870239
0.854565
0.833738
0.815207
0.810436
0.810115
0.820332
0.560328
0.639047
0.699127
0.805601
0.840363
0.881587
0.876214
0.85146
0.848283
0.870544
0.906821
0.914823
0.897473
0.874171
0.844976
0.818358
0.809362
0.810786
0.821135
0.834797
)
;

boundaryField
{
    inlet
    {
        type            fixedValue;
        value           uniform 1;
    }
    outlet
    {
        type            zeroGradient;
    }
    airfoil
    {
        type            zeroGradient;
    }
    top
    {
        type            symmetryPlane;
    }
    bottom
    {
        type            symmetryPlane;
    }
    defaultFaces
    {
        type            empty;
    }
}


// ************************************************************************* //
