/*--------------------------------*- C++ -*----------------------------------*\
  =========                 |
  \\      /  F ield         | OpenFOAM: The Open Source CFD Toolbox
   \\    /   O peration     | Website:  https://openfoam.org
    \\  /    A nd           | Version:  7
     \\/     M anipulation  |
\*---------------------------------------------------------------------------*/
FoamFile
{
    version     2.0;
    format      ascii;
    class       volScalarField;
    location    "2.6";
    object      rho;
}
// * * * * * * * * * * * * * * * * * * * * * * * * * * * * * * * * * * * * * //

dimensions      [1 -3 0 0 0 0 0];

internalField   nonuniform List<scalar> 
3700
(
0.276134
0.370941
0.431378
0.470304
0.466115
0.466253
0.486878
0.508954
0.559188
0.615586
0.66268
0.680716
0.6693
0.646596
0.643964
0.654755
0.673979
0.705133
0.717122
0.722083
0.190853
0.153764
0.158131
0.151978
0.142294
0.150065
0.165555
0.190592
0.228157
0.274669
0.310133
0.321389
0.299022
0.254102
0.214589
0.210137
0.218647
0.235809
0.27304
0.293165
0.183466
0.132618
0.105355
0.0796521
0.0706503
0.0736348
0.0802143
0.0934762
0.103084
0.107379
0.100456
0.101306
0.10179
0.107568
0.119917
0.137923
0.156655
0.171144
0.182508
0.184731
0.174229
0.123582
0.0909599
0.0632477
0.0604485
0.064414
0.0764623
0.10577
0.128643
0.142562
0.148051
0.153771
0.152635
0.153806
0.156032
0.166643
0.184929
0.20821
0.233077
0.263663
0.161168
0.112915
0.0793481
0.0570267
0.0558774
0.0601365
0.0726241
0.103373
0.129549
0.15132
0.175094
0.191368
0.206395
0.216117
0.216398
0.210728
0.214132
0.230314
0.263406
0.324546
0.141365
0.104347
0.0696017
0.0554672
0.0548708
0.0599799
0.0737149
0.0998095
0.122593
0.147189
0.185653
0.209668
0.241235
0.27106
0.296534
0.307215
0.314299
0.324951
0.339546
0.399903
0.117506
0.0902894
0.0574954
0.0559086
0.0608622
0.0738472
0.102692
0.122834
0.131019
0.148497
0.18526
0.216969
0.263834
0.307255
0.347657
0.392696
0.428185
0.464481
0.481902
0.553703
0.0933733
0.0679996
0.0482439
0.0563656
0.0721614
0.104443
0.152462
0.178752
0.190268
0.209123
0.222389
0.245682
0.28906
0.342461
0.397663
0.462838
0.531441
0.603818
0.655487
0.776109
0.0695304
0.0491718
0.0426968
0.0561907
0.0756126
0.116245
0.172153
0.207797
0.256634
0.309345
0.341155
0.379325
0.416281
0.462976
0.503606
0.561768
0.64605
0.759168
0.855554
1.04366
0.0495929
0.0371644
0.0416889
0.0545617
0.0725239
0.115258
0.167827
0.204362
0.285327
0.380579
0.449514
0.519898
0.597323
0.673534
0.730115
0.795786
0.867354
0.982078
1.13584
1.34294
0.037127
0.0313246
0.0413983
0.0545386
0.0705832
0.116729
0.160469
0.19507
0.282848
0.416495
0.533303
0.649062
0.780148
0.887944
1.00233
1.11715
1.22827
1.34024
1.59065
1.57935
0.0291594
0.0280648
0.0438789
0.0579331
0.0798885
0.173264
0.218534
0.287873
0.406774
0.524244
0.686163
0.838829
1.00787
1.15131
1.32427
1.51364
1.70248
1.86045
2.14186
2.0821
0.0232089
0.024196
0.0437339
0.0711719
0.138946
0.297341
0.385953
0.546319
0.74731
0.93745
1.11651
1.27434
1.44256
1.59921
1.79259
2.04715
2.32001
2.57518
2.91929
2.89107
0.0203348
0.0218329
0.0482378
0.121425
0.243825
0.40867
0.566995
0.807419
1.08664
1.40397
1.64878
1.88504
2.11167
2.33417
2.60916
2.92101
3.24291
3.58478
3.88855
4.16201
0.0190468
0.0348367
0.0775695
0.179392
0.348677
0.496467
0.758147
1.11704
1.54011
1.98114
2.35057
2.69489
3.01422
3.34754
3.75852
4.15046
4.52541
4.88114
5.09173
5.25169
0.0192459
0.0576643
0.116026
0.216137
0.505809
0.851846
1.39494
1.96654
2.64147
3.18126
3.60383
3.99129
4.3662
4.77336
5.20922
5.48049
5.65194
5.72788
5.60335
5.43524
0.0178516
0.0787768
0.210517
0.468803
1.06218
1.99403
2.83157
3.65337
4.46616
4.98833
5.3111
5.63141
5.90957
6.11201
6.22139
6.11463
5.81063
5.07298
3.88583
2.63861
0.0469382
0.192597
0.665196
1.6729
2.93617
3.99527
4.90845
5.86555
6.62646
6.7142
6.61878
6.6197
6.55904
6.31767
5.60507
4.27598
2.92648
1.86872
1.42644
1.39007
0.429866
1.21878
2.76876
4.38086
5.80464
6.70236
7.49825
8.12125
7.93226
7.33059
6.74982
6.01228
4.74252
3.26256
2.00334
1.44327
1.38513
1.3929
1.39627
1.39923
3.23105
5.05591
6.77572
7.92319
8.64846
8.81439
9.02964
8.61282
6.30165
4.4581
3.29234
2.17088
1.50542
1.38173
1.3898
1.39469
1.39881
1.39997
1.40003
1.40002
9.66135
9.58666
9.54015
9.59865
9.68314
9.28766
8.31639
3.2865
0.90188
1.40001
1.40001
1.40001
1.40001
1.40001
1.40001
1.40001
1.40001
1.40001
1.40001
1.40001
9.65946
9.58096
9.503
9.44819
9.5652
7.94221
3.6739
1.4344
1.40001
1.40001
1.40001
1.40001
1.40001
1.40001
1.40001
1.40001
1.40001
1.40001
1.40001
1.40001
9.45174
9.5072
9.48665
9.32041
8.87036
4.60935
1.42637
1.39947
1.40001
1.40001
1.40001
1.40001
1.40001
1.40001
1.40001
1.40001
1.40001
1.40001
1.40001
1.40001
9.28424
9.4659
9.47176
9.07082
6.37713
1.9613
1.39296
1.40014
1.4
1.40001
1.40001
1.40001
1.40001
1.40001
1.40001
1.40001
1.40001
1.40001
1.40001
1.40001
9.10922
9.44262
9.42843
8.43308
3.76218
1.36579
1.40048
1.4
1.40001
1.40001
1.40001
1.40001
1.40001
1.40001
1.40001
1.40001
1.40001
1.40001
1.40001
1.40001
8.92238
9.40245
9.39311
6.87966
2.02196
1.40001
1.40001
1.40001
1.40001
1.40001
1.40001
1.40001
1.40001
1.40001
1.40001
1.40001
1.40001
1.40001
1.40001
1.40001
8.8269
9.23815
9.26786
4.95027
1.36279
1.40001
1.40001
1.40001
1.40001
1.40001
1.40001
1.40001
1.40001
1.40001
1.40001
1.40001
1.40001
1.40001
1.40001
1.40001
8.92223
9.17006
8.38485
2.9297
1.40001
1.40001
1.40001
1.40001
1.40001
1.40001
1.40001
1.40001
1.40001
1.40001
1.40001
1.40001
1.40001
1.40001
1.40001
1.40001
9.68747
9.29965
6.8749
1.66785
1.40001
1.40001
1.40001
1.40001
1.40001
1.40001
1.40001
1.40001
1.40001
1.40001
1.40001
1.40001
1.40001
1.40001
1.40001
1.40001
10.0581
8.86829
4.84501
1.38287
1.40001
1.40001
1.40001
1.40001
1.40001
1.40001
1.40001
1.40001
1.40001
1.40001
1.40001
1.40001
1.40001
1.40001
1.40001
1.40001
10.305
8.30951
3.20137
1.40001
1.40001
1.40001
1.40001
1.40001
1.40001
1.40001
1.40001
1.40001
1.40001
1.40001
1.40001
1.40001
1.40001
1.40001
1.40001
1.40001
10.3984
7.47946
2.22038
1.40001
1.40001
1.40001
1.40001
1.40001
1.40001
1.40001
1.40001
1.40001
1.40001
1.40001
1.40001
1.40001
1.40001
1.40001
1.40001
1.40001
10.4526
6.56476
1.62021
1.40001
1.40001
1.40001
1.40001
1.40001
1.40001
1.40001
1.40001
1.40001
1.40001
1.40001
1.40001
1.40001
1.40001
1.40001
1.40001
1.40001
10.2534
5.50713
1.40182
1.40001
1.40001
1.40001
1.40001
1.40001
1.40001
1.40001
1.40001
1.40001
1.40001
1.40001
1.40001
1.40001
1.40001
1.40001
1.40001
1.40001
10.0086
4.39207
1.40001
1.40001
1.40001
1.40001
1.40001
1.40001
1.40001
1.40001
1.40001
1.40001
1.40001
1.40001
1.40001
1.40001
1.40001
1.40001
1.40001
1.40001
9.54525
3.55433
1.40001
1.40001
1.40001
1.40001
1.40001
1.40001
1.40001
1.40001
1.40001
1.40001
1.40001
1.40001
1.40001
1.40001
1.40001
1.40001
1.40001
1.40001
9.278
2.71431
1.40001
1.40001
1.40001
1.40001
1.40001
1.40001
1.40001
1.40001
1.40001
1.40001
1.40001
1.40001
1.40001
1.40001
1.40001
1.40001
1.40001
1.40001
8.81436
1.91253
1.40001
1.40001
1.40001
1.40001
1.40001
1.40001
1.40001
1.40001
1.40001
1.40001
1.40001
1.40001
1.40001
1.40001
1.40001
1.40001
1.40001
1.40001
7.78204
1.40748
1.40001
1.40001
1.40001
1.40001
1.40001
1.40001
1.40001
1.40001
1.40001
1.40001
1.40001
1.40001
1.40001
1.40001
1.40001
1.40001
1.40001
1.40001
6.47244
1.40007
1.40001
1.40001
1.40001
1.40001
1.40001
1.40001
1.40001
1.40001
1.40001
1.40001
1.40001
1.40001
1.40001
1.40001
1.40001
1.40001
1.40001
1.40001
6.47339
1.40007
1.40001
1.40001
1.40001
1.40001
1.40001
1.40001
1.40001
1.40001
1.40001
1.40001
1.40001
1.40001
1.40001
1.40001
1.40001
1.40001
1.40001
1.40001
7.78322
1.40746
1.40001
1.40001
1.40001
1.40001
1.40001
1.40001
1.40001
1.40001
1.40001
1.40001
1.40001
1.40001
1.40001
1.40001
1.40001
1.40001
1.40001
1.40001
8.81337
1.91204
1.40001
1.40001
1.40001
1.40001
1.40001
1.40001
1.40001
1.40001
1.40001
1.40001
1.40001
1.40001
1.40001
1.40001
1.40001
1.40001
1.40001
1.40001
9.27896
2.71362
1.40001
1.40001
1.40001
1.40001
1.40001
1.40001
1.40001
1.40001
1.40001
1.40001
1.40001
1.40001
1.40001
1.40001
1.40001
1.40001
1.40001
1.40001
9.54485
3.55465
1.40001
1.40001
1.40001
1.40001
1.40001
1.40001
1.40001
1.40001
1.40001
1.40001
1.40001
1.40001
1.40001
1.40001
1.40001
1.40001
1.40001
1.40001
10.0078
4.39199
1.40001
1.40001
1.40001
1.40001
1.40001
1.40001
1.40001
1.40001
1.40001
1.40001
1.40001
1.40001
1.40001
1.40001
1.40001
1.40001
1.40001
1.40001
10.2541
5.50631
1.40189
1.40001
1.40001
1.40001
1.40001
1.40001
1.40001
1.40001
1.40001
1.40001
1.40001
1.40001
1.40001
1.40001
1.40001
1.40001
1.40001
1.40001
10.4525
6.56926
1.62027
1.40001
1.40001
1.40001
1.40001
1.40001
1.40001
1.40001
1.40001
1.40001
1.40001
1.40001
1.40001
1.40001
1.40001
1.40001
1.40001
1.40001
10.3965
7.47674
2.22427
1.40001
1.40001
1.40001
1.40001
1.40001
1.40001
1.40001
1.40001
1.40001
1.40001
1.40001
1.40001
1.40001
1.40001
1.40001
1.40001
1.40001
10.3051
8.31539
3.19951
1.40001
1.40001
1.40001
1.40001
1.40001
1.40001
1.40001
1.40001
1.40001
1.40001
1.40001
1.40001
1.40001
1.40001
1.40001
1.40001
1.40001
10.0562
8.86271
4.84883
1.38285
1.40001
1.40001
1.40001
1.40001
1.40001
1.40001
1.40001
1.40001
1.40001
1.40001
1.40001
1.40001
1.40001
1.40001
1.40001
1.40001
9.68738
9.30413
6.87732
1.66519
1.40001
1.40001
1.40001
1.40001
1.40001
1.40001
1.40001
1.40001
1.40001
1.40001
1.40001
1.40001
1.40001
1.40001
1.40001
1.40001
8.93031
9.174
8.38851
2.93038
1.40001
1.40001
1.40001
1.40001
1.40001
1.40001
1.40001
1.40001
1.40001
1.40001
1.40001
1.40001
1.40001
1.40001
1.40001
1.40001
8.8274
9.23884
9.26381
4.94931
1.36283
1.40001
1.40001
1.40001
1.40001
1.40001
1.40001
1.40001
1.40001
1.40001
1.40001
1.40001
1.40001
1.40001
1.40001
1.40001
8.91815
9.39275
9.3885
6.87688
2.01872
1.40001
1.40001
1.40001
1.40001
1.40001
1.40001
1.40001
1.40001
1.40001
1.40001
1.40001
1.40001
1.40001
1.40001
1.40001
9.10422
9.44074
9.42472
8.44065
3.76033
1.36579
1.40048
1.4
1.40001
1.40001
1.40001
1.40001
1.40001
1.40001
1.40001
1.40001
1.40001
1.40001
1.40001
1.40001
9.28217
9.46741
9.47232
9.05433
6.37285
1.96342
1.3929
1.40014
1.4
1.40001
1.40001
1.40001
1.40001
1.40001
1.40001
1.40001
1.40001
1.40001
1.40001
1.40001
9.45447
9.51087
9.49002
9.32504
8.8885
4.61871
1.42747
1.39945
1.40001
1.40001
1.40001
1.40001
1.40001
1.40001
1.40001
1.40001
1.40001
1.40001
1.40001
1.40001
9.66288
9.58415
9.50391
9.45243
9.5621
7.9361
3.68061
1.43566
1.40001
1.40001
1.40001
1.40001
1.40001
1.40001
1.40001
1.40001
1.40001
1.40001
1.40001
1.40001
9.66393
9.58745
9.53801
9.59454
9.67101
9.28373
8.31574
3.28451
0.903216
1.40001
1.40001
1.40001
1.40001
1.40001
1.40001
1.40001
1.40001
1.40001
1.40001
1.40001
3.23078
5.06022
6.7742
7.91623
8.63742
8.81361
9.03012
8.61163
6.30081
4.45728
3.29197
2.17124
1.50579
1.38177
1.38982
1.39471
1.39882
1.39997
1.40003
1.40002
0.429557
1.20856
2.77275
4.39176
5.79883
6.69331
7.49385
8.12086
7.93307
7.33227
6.75144
6.01356
4.74351
3.26234
2.00256
1.443
1.38514
1.39291
1.39627
1.39923
0.0489232
0.215069
0.665242
1.6652
2.93687
3.99791
4.90636
5.86069
6.62611
6.71568
6.6202
6.62027
6.55947
6.31762
5.60431
4.27532
2.92585
1.86818
1.42628
1.39006
0.0110769
0.063087
0.214477
0.480365
1.07585
1.99361
2.83263
3.65771
4.46978
4.98874
5.31222
5.63386
5.91149
6.11283
6.22208
6.11522
5.81115
5.0733
3.88596
2.63878
0.0151007
0.0536354
0.122179
0.21276
0.49198
0.856718
1.39769
1.96611
2.64001
3.1816
3.60572
3.99422
4.36903
4.77534
5.20969
5.48077
5.65279
5.72851
5.6039
5.43565
0.0188797
0.0378228
0.0851642
0.180239
0.345233
0.491301
0.753316
1.10779
1.53325
1.97536
2.34754
2.69366
3.01254
3.34536
3.75557
4.14743
4.52346
4.88073
5.09227
5.25203
0.0194292
0.0250886
0.0542025
0.126728
0.248629
0.402161
0.563379
0.807116
1.08485
1.40208
1.64761
1.88403
2.10989
2.3314
2.60544
2.91697
3.23985
3.58384
3.88949
4.16414
0.0213516
0.0251506
0.0462012
0.0752372
0.147005
0.297833
0.38764
0.548139
0.748877
0.938652
1.11724
1.27517
1.44471
1.60207
1.79526
2.04898
2.32122
2.57682
2.92174
2.89356
0.0267909
0.0287315
0.0458557
0.0595688
0.0827424
0.178496
0.226211
0.29177
0.407451
0.520998
0.683771
0.839407
1.01071
1.15452
1.32661
1.51475
1.70327
1.8618
2.14395
2.08413
0.0345794
0.0319267
0.0439121
0.055485
0.0696679
0.117394
0.160642
0.193157
0.276252
0.411213
0.53068
0.64886
0.781027
0.888638
1.00243
1.1171
1.22849
1.34103
1.59132
1.57953
0.0463535
0.0372033
0.0445066
0.0555001
0.0713775
0.11109
0.162998
0.200959
0.281586
0.379172
0.448671
0.519397
0.597012
0.673596
0.73015
0.795692
0.867451
0.982142
1.13561
1.34198
0.0661968
0.0472321
0.0440424
0.0563481
0.075108
0.11268
0.166901
0.205192
0.256842
0.311233
0.342887
0.380441
0.416733
0.462526
0.502278
0.560407
0.645293
0.758172
0.854124
1.04163
0.090355
0.0664728
0.0468425
0.0552415
0.0725765
0.103475
0.149686
0.179004
0.193899
0.213067
0.225427
0.245959
0.287201
0.340066
0.395461
0.461102
0.530026
0.602477
0.653782
0.77435
0.11406
0.0917197
0.0573238
0.0545231
0.0620211
0.0756191
0.104281
0.123515
0.131241
0.145908
0.181374
0.213043
0.26043
0.304486
0.345536
0.391282
0.427073
0.46323
0.480866
0.553682
0.148307
0.110592
0.0736822
0.0556078
0.055671
0.0606074
0.0736705
0.0965253
0.118143
0.141959
0.181206
0.206541
0.238776
0.269228
0.29531
0.30553
0.312674
0.323927
0.339418
0.400922
0.171752
0.122572
0.0858363
0.0583953
0.056755
0.0607567
0.0717971
0.0989635
0.124163
0.146358
0.171137
0.188942
0.204806
0.21466
0.215557
0.211118
0.215167
0.2325
0.265309
0.325654
0.179941
0.129769
0.0956465
0.0647908
0.0610056
0.0649006
0.0750764
0.101484
0.123939
0.13924
0.146889
0.153423
0.153838
0.155313
0.158326
0.169913
0.18772
0.209952
0.234289
0.264503
0.187405
0.134799
0.106048
0.0775578
0.0695665
0.0726748
0.0776666
0.0909408
0.10141
0.107586
0.10223
0.10281
0.104431
0.111531
0.124258
0.140836
0.158196
0.171591
0.181988
0.185028
0.195367
0.152686
0.146823
0.139032
0.15051
0.153377
0.144019
0.152065
0.163203
0.162235
0.142974
0.146566
0.167914
0.20841
0.248136
0.280536
0.315469
0.341835
0.33575
0.299161
0.285012
0.362471
0.409836
0.441787
0.476228
0.479665
0.467733
0.473161
0.507202
0.539276
0.576919
0.625241
0.64876
0.666559
0.694966
0.71719
0.727617
0.734982
0.718998
0.706032
0.777303
0.883161
0.970203
1.11889
1.16439
1.20261
1.19905
1.1774
1.1766
1.20733
1.25402
1.25799
1.23187
1.19838
1.16322
1.138
1.12464
1.12611
1.14929
1.17082
0.392319
0.571474
0.755064
0.930751
1.07328
1.18159
1.20023
1.20424
1.20658
1.22246
1.24465
1.25075
1.2321
1.20862
1.18459
1.1535
1.13032
1.12749
1.13335
1.15044
0.189681
0.225113
0.337744
0.465496
0.706676
0.970597
1.08875
1.20778
1.24917
1.23774
1.22972
1.2215
1.20562
1.19813
1.19508
1.1864
1.16418
1.13687
1.10995
1.12069
0.267828
0.304866
0.321147
0.326469
0.34572
0.449118
0.730984
1.05838
1.17605
1.24289
1.23813
1.19943
1.18006
1.18694
1.20674
1.20799
1.19472
1.16084
1.10915
1.1104
0.340111
0.370833
0.387106
0.391201
0.392214
0.398937
0.428753
0.591685
0.925231
1.15087
1.18854
1.15885
1.15729
1.1791
1.21151
1.21782
1.21334
1.18169
1.11455
1.10818
0.432652
0.462563
0.483571
0.458636
0.432884
0.432914
0.449271
0.469074
0.545057
0.752946
0.997851
1.11692
1.12412
1.14883
1.20033
1.2104
1.20499
1.18525
1.12812
1.11806
0.546563
0.578049
0.567219
0.513278
0.494929
0.499496
0.504159
0.527816
0.537894
0.542995
0.642404
0.893456
1.05958
1.09832
1.14905
1.17782
1.18911
1.17742
1.14374
1.13848
0.715871
0.702412
0.679906
0.623307
0.560707
0.549841
0.554002
0.561672
0.567505
0.566778
0.564128
0.60742
0.784011
0.99327
1.08464
1.1175
1.14872
1.16092
1.1458
1.1509
0.934468
0.865405
0.797978
0.71742
0.652116
0.625935
0.617651
0.609675
0.612408
0.606185
0.602788
0.595629
0.593565
0.694601
0.913708
1.04918
1.1061
1.14354
1.14255
1.15454
1.19444
1.05572
0.964426
0.866324
0.768875
0.700592
0.675369
0.654672
0.633401
0.638991
0.634192
0.619968
0.609974
0.572841
0.644854
0.889497
1.03041
1.12443
1.13428
1.15088
1.76699
1.28691
1.10013
1.01769
0.967975
0.899838
0.777397
0.715776
0.706927
0.704507
0.702344
0.695526
0.664423
0.612405
0.586363
0.638026
0.818011
0.988879
1.05706
1.13278
2.85916
2.09811
1.54319
1.2749
1.2349
1.17625
1.03853
0.886286
0.810209
0.780184
0.767936
0.753898
0.729386
0.700715
0.66791
0.610937
0.612131
0.693771
0.850784
1.04978
3.48777
3.02548
2.40419
1.85199
1.4907
1.30945
1.21098
1.0966
0.980176
0.911177
0.885999
0.847895
0.825869
0.797302
0.756535
0.698877
0.629688
0.606577
0.634515
0.806974
3.29977
3.27072
3.10972
2.70443
2.18054
1.71156
1.49825
1.37775
1.26363
1.16188
1.05842
0.952399
0.887767
0.852662
0.808419
0.761623
0.713621
0.663524
0.655816
0.669619
2.35097
2.99213
3.09632
3.05677
2.86988
2.48473
2.05979
1.73442
1.49935
1.35992
1.22614
1.09208
1.00131
0.950404
0.889869
0.851781
0.822919
0.774288
0.719566
0.703579
1.55188
2.01097
2.57839
2.94918
2.94672
2.89194
2.69402
2.36014
1.98814
1.70857
1.51492
1.37603
1.2746
1.15141
1.00468
0.918865
0.89987
0.860723
0.800204
0.770249
1.40631
1.4621
1.68567
2.15964
2.6016
2.8194
2.80936
2.74797
2.5689
2.25321
1.95157
1.70379
1.49023
1.33066
1.19284
1.05108
0.968777
0.902324
0.850408
0.849786
1.40013
1.40157
1.41455
1.50852
1.77225
2.19484
2.54294
2.70371
2.69582
2.63401
2.47013
2.20594
1.8857
1.64775
1.50662
1.33799
1.18273
1.06987
0.972402
0.957069
1.40001
1.40002
1.4002
1.40354
1.42555
1.54037
1.80532
2.172
2.47791
2.59549
2.58235
2.52149
2.36551
2.12669
1.87489
1.61269
1.41993
1.31682
1.20092
1.10973
1.40001
1.40001
1.40001
1.40004
1.40044
1.40553
1.43421
1.55097
1.79929
2.13033
2.39023
2.47713
2.45281
2.38228
2.25213
2.06624
1.844
1.64784
1.49393
1.35533
1.40001
1.40001
1.40001
1.40001
1.40001
1.40007
1.4007
1.40652
1.43705
1.54838
1.77916
2.05429
2.26637
2.32462
2.28663
2.21581
2.11114
1.9865
1.86304
1.68727
1.40001
1.40001
1.40001
1.40001
1.40001
1.40001
1.40001
1.40008
1.40087
1.40654
1.43758
1.53186
1.71274
1.92705
2.08643
2.13305
2.10238
2.03403
1.96139
1.83377
1.40001
1.40001
1.40001
1.40001
1.40001
1.40001
1.40001
1.40001
1.40001
1.40009
1.40089
1.40569
1.4289
1.4913
1.61318
1.75665
1.86132
1.90126
1.88537
1.81011
1.40001
1.40001
1.40001
1.40001
1.40001
1.40001
1.40001
1.40001
1.40001
1.40001
1.40001
1.40008
1.4006
1.40343
1.41536
1.44637
1.5028
1.56568
1.61725
1.61339
1.40001
1.40001
1.40001
1.40001
1.40001
1.40001
1.40001
1.40001
1.40001
1.40001
1.40001
1.40001
1.40001
1.40004
1.40026
1.40127
1.40471
1.41244
1.42474
1.43284
2.26129
3.42862
3.5995
2.91029
1.83179
1.4514
1.40261
1.40007
1.40001
1.40001
1.40001
1.40001
1.40001
1.40001
1.40001
3.25795
3.91834
3.5231
2.15343
1.46717
1.40113
1.40001
1.4
1.40001
1.40001
1.40001
1.40001
1.40001
1.40001
1.40001
4.07548
3.99111
2.7592
1.61031
1.4071
1.40007
1.40001
1.40001
1.40001
1.40001
1.40001
1.40001
1.40001
1.40001
1.40001
4.51453
3.55272
1.90581
1.42724
1.40028
1.40001
1.40001
1.40001
1.40001
1.40001
1.40001
1.40001
1.40001
1.40001
1.40001
4.61489
2.35199
1.46591
1.40069
1.40001
1.40001
1.40001
1.40001
1.40001
1.40001
1.40001
1.40001
1.40001
1.40001
1.40001
2.88593
1.50213
1.40068
1.4
1.4
1.40001
1.40001
1.40001
1.40001
1.40001
1.40001
1.40001
1.40001
1.40001
1.40001
1.54267
1.40081
1.4
1.4
1.40001
1.40001
1.40001
1.40001
1.40001
1.40001
1.40001
1.40001
1.40001
1.40001
1.40001
1.3974
1.39982
1.4
1.40001
1.40001
1.40001
1.40001
1.40001
1.40001
1.40001
1.40001
1.40001
1.40001
1.40001
1.40001
1.39996
1.40001
1.40001
1.40001
1.40001
1.40001
1.40001
1.40001
1.40001
1.40001
1.40001
1.40001
1.40001
1.40001
1.40001
1.40001
1.40001
1.40001
1.40001
1.40001
1.40001
1.40001
1.40001
1.40001
1.40001
1.40001
1.40001
1.40001
1.40001
1.40001
1.40001
1.40001
1.40001
1.40001
1.40001
1.40001
1.40001
1.40001
1.40001
1.40001
1.40001
1.40001
1.40001
1.40001
1.40001
1.40001
1.40001
1.40001
1.40001
1.40001
1.40001
1.40001
1.40001
1.40001
1.40001
1.40001
1.40001
1.40001
1.40001
1.40001
1.40001
1.40001
1.40001
1.40001
1.40001
1.40001
1.40001
1.40001
1.40001
1.40001
1.40001
1.40001
1.40001
1.40001
1.40001
1.40001
1.40001
1.40001
1.40001
1.40001
1.40001
1.40001
1.40001
1.40001
1.40001
1.40001
1.40001
1.40001
1.40001
1.40001
1.40001
1.40001
1.40001
1.40001
1.40001
1.40001
1.40001
1.40001
1.40001
1.40001
1.40001
1.40001
1.40001
1.40001
1.40001
1.40001
1.40001
1.40001
1.40001
1.40001
1.40001
1.40001
1.40001
1.40001
1.40001
1.40001
1.40001
1.40001
1.40001
1.40001
1.40001
1.40001
1.40001
1.40001
1.40001
1.40001
1.40001
1.40001
1.40001
1.40001
1.40001
1.40001
1.40001
1.40001
1.40001
1.40001
1.40001
1.40001
1.40001
1.40001
1.40001
1.40001
1.40001
1.40001
1.40001
1.40001
1.40001
1.40001
1.40001
1.40001
1.40001
1.40001
1.40001
1.40001
1.40001
1.40001
1.40001
1.40001
1.40001
1.40001
1.40001
1.40001
1.40001
1.40001
1.40001
1.40001
1.40001
1.40001
1.40001
1.40001
1.40001
1.40001
1.40001
1.40001
1.40001
1.40001
1.40001
1.40001
1.40001
1.40001
1.40001
1.40001
1.40001
1.40001
1.40001
1.40001
1.40001
1.40001
1.40001
1.40001
1.40001
1.40001
1.40001
1.40001
1.40001
1.40001
1.40001
1.40001
1.40001
1.40001
1.40001
1.40001
1.40001
1.40001
1.40001
1.40001
1.40001
1.40001
1.40001
1.40001
1.40001
1.40001
1.40001
1.40001
1.40001
1.40001
1.40001
1.40001
1.40001
1.40001
1.40001
1.40001
1.40001
1.40001
1.40001
1.40001
1.40001
1.40001
1.40001
1.40001
1.40001
1.40001
1.40001
1.40001
1.40001
1.40001
1.40001
1.40001
1.40001
1.40001
1.40001
1.40001
1.40001
1.40001
1.40001
1.40001
1.40001
1.40001
1.40001
1.40001
1.40001
1.40001
1.40001
1.40001
1.40001
1.40001
1.40001
1.40001
1.40001
1.40001
1.40001
1.40001
1.40001
1.40001
1.40001
1.40001
1.40001
1.40001
1.40001
1.40001
1.40001
1.40001
1.40001
1.40001
1.40001
1.40001
1.40001
1.40001
1.40001
1.40001
1.40001
1.40001
1.40001
1.40001
1.40001
1.40001
1.40001
1.40001
1.40001
1.40001
1.40001
1.40001
1.40001
1.40001
1.40001
1.40001
1.40001
1.40001
1.40001
1.40001
1.40001
1.40001
1.40001
1.40001
1.40001
1.40001
1.40001
1.40001
1.40001
1.40001
1.40001
1.40001
1.40001
1.40001
1.40001
1.40001
1.40001
1.40001
1.40001
1.40001
1.40001
1.40001
1.40001
1.40001
1.40001
1.40001
1.40001
1.40001
1.40001
1.40001
1.40001
1.40001
1.40001
1.40001
1.40001
1.40001
1.40001
1.40001
1.40001
1.40001
1.40001
1.40001
1.40001
1.40001
1.40001
1.40001
1.40001
1.40001
1.40001
1.40001
1.40001
1.40001
1.40001
1.40001
1.40001
1.40001
1.40001
1.40001
1.40001
1.40001
1.40001
1.40001
1.40001
1.40001
1.40001
1.40001
1.40001
1.40001
1.40001
1.40001
1.40001
1.40001
1.40001
1.40001
1.40001
1.40001
1.40001
1.40001
1.40001
1.40001
1.40001
1.40001
1.40001
1.40001
1.40001
1.40001
1.40001
1.40001
1.40001
1.40001
1.40001
1.40001
1.40001
1.40001
1.40001
1.40001
1.40001
1.40001
1.40001
1.40001
1.40001
1.40001
1.40001
1.40001
1.40001
1.40001
1.40001
1.40001
1.40001
1.40001
1.40001
1.40001
1.40001
1.40001
1.40001
1.40001
1.40001
1.40001
1.40001
1.40001
1.40001
1.40001
1.40001
1.40001
1.40001
1.40001
1.40001
1.40001
1.40001
1.40001
1.40001
1.40001
1.40001
1.40001
1.40001
1.40001
1.40001
1.40001
1.40001
1.40001
1.40001
1.40001
1.40001
1.40001
1.40001
1.40001
1.40001
1.40001
1.40001
1.40001
1.40001
1.40001
1.40001
1.40001
1.40001
1.40001
1.40001
1.40001
1.40001
1.40001
1.40001
1.40001
1.40001
1.40001
1.40001
1.40001
1.40001
1.40001
1.40001
1.40001
1.40001
1.40001
1.40001
1.40001
1.40001
1.40001
1.40001
1.40001
1.40001
1.40001
1.40001
1.40001
1.40001
1.40001
1.40001
1.40001
1.40001
1.40001
1.40001
1.40001
1.40001
1.40001
1.40001
1.40001
1.40001
1.40001
1.40001
1.40001
1.40001
1.40001
1.40001
1.40001
1.40001
1.40001
1.40001
1.40001
1.40001
1.40001
1.40001
1.40001
1.40001
1.40001
1.40001
1.40001
1.40001
1.40001
1.40001
1.40001
1.40001
1.40001
1.40001
1.40001
1.40001
1.40001
1.40001
1.40001
1.40001
1.40001
1.40001
1.40001
1.40001
1.40001
1.40001
1.40001
1.40001
1.40001
1.40001
1.40001
1.40001
1.40001
1.40001
1.40001
1.40001
1.40001
1.40001
1.40001
1.40001
1.40001
1.40001
1.40001
1.40001
1.40001
1.40001
1.40001
1.40001
1.40001
1.40001
1.40001
1.40001
1.40001
1.40001
1.40001
1.40001
1.40001
1.40001
1.40001
1.40001
1.40001
1.40001
1.40001
1.40001
1.40001
1.40001
1.40001
1.40001
1.40001
1.40001
1.40001
1.40001
1.40001
1.40001
1.40001
1.40001
1.40001
1.40001
1.40001
1.40001
1.40001
1.40001
1.40001
1.40001
1.40001
1.40001
1.40001
1.40001
1.40001
1.40001
1.40001
1.40001
1.40001
1.40001
1.40001
1.40001
1.40001
1.40001
1.40001
1.40001
1.40001
1.40001
1.40001
1.40001
1.40001
1.40001
1.40001
1.40001
1.40001
1.40001
1.40001
1.40001
1.40001
1.40001
1.40001
1.40001
1.40001
1.40001
1.40001
1.40001
1.40001
1.40001
1.40001
1.40001
1.40001
1.40001
1.40001
1.40001
1.40001
1.40001
1.40001
1.40001
1.40001
1.40001
1.40001
1.40001
1.40001
1.40001
1.40001
1.40001
1.40001
1.40001
1.40001
1.40001
1.40001
1.40001
1.40001
1.40001
1.40001
1.40001
1.40001
1.40001
1.40001
1.40001
1.40001
1.40001
1.40001
1.40001
1.40001
1.40001
1.40001
1.40001
1.40001
1.40001
1.40001
1.40001
1.40001
1.40001
1.40001
1.40001
1.40001
1.40001
1.40001
1.40001
1.40001
1.40001
1.40001
1.40001
1.40001
1.40001
1.40001
1.40001
1.40001
1.40001
1.40001
1.40001
1.40001
1.40001
1.40001
1.40001
1.40001
1.40001
1.40001
1.40001
1.40001
1.40001
1.40001
1.40001
1.40001
1.40001
1.40001
1.40001
1.40001
1.40001
1.40001
1.40001
1.40001
1.40001
1.40001
1.40001
1.40001
1.40001
1.40001
1.40001
1.40001
1.40001
1.40001
1.40001
1.40001
1.40001
1.40001
1.40001
1.40001
1.40001
1.40001
1.40001
1.40001
1.40001
1.40001
1.40001
1.40001
1.40001
1.40001
1.40001
1.40001
1.40001
1.40001
1.40001
1.40001
1.40001
1.40001
1.40001
1.40001
1.40001
1.40001
1.40001
1.40001
1.40001
1.40001
1.40001
1.40001
1.40001
1.40001
1.40001
1.40001
1.40001
1.40001
1.40001
1.40001
1.40001
1.40001
1.40001
1.40001
1.40001
1.40001
1.40001
1.40001
1.40001
1.40001
1.40001
1.40001
1.40001
1.40001
1.40001
1.40001
1.40001
1.40001
1.40001
1.40001
1.40001
1.40001
1.40001
1.40001
1.40001
1.40001
1.40001
1.40001
1.40001
1.40001
1.40001
1.40001
1.40001
1.40001
1.40001
1.40001
1.40001
1.40001
1.40001
1.40001
1.40001
1.40001
1.40001
1.40001
1.40001
1.40001
1.40001
1.40001
1.40001
1.40001
1.40001
1.40001
1.40001
1.40001
1.40001
1.40001
1.40001
1.40001
1.40001
1.40001
1.40001
1.40001
1.40001
1.40001
1.40001
1.40001
1.40001
1.40001
1.40001
1.40001
1.40001
1.40001
1.40001
1.40001
1.40001
1.40001
1.40001
1.40001
1.40001
1.39996
1.40001
1.40001
1.40001
1.40001
1.40001
1.40001
1.40001
1.40001
1.40001
1.40001
1.40001
1.40001
1.40001
1.40001
1.3974
1.39982
1.4
1.40001
1.40001
1.40001
1.40001
1.40001
1.40001
1.40001
1.40001
1.40001
1.40001
1.40001
1.40001
1.54273
1.40081
1.4
1.4
1.40001
1.40001
1.40001
1.40001
1.40001
1.40001
1.40001
1.40001
1.40001
1.40001
1.40001
2.88579
1.50209
1.40068
1.4
1.4
1.40001
1.40001
1.40001
1.40001
1.40001
1.40001
1.40001
1.40001
1.40001
1.40001
4.61475
2.35149
1.46583
1.40069
1.40001
1.40001
1.40001
1.40001
1.40001
1.40001
1.40001
1.40001
1.40001
1.40001
1.40001
4.51478
3.55248
1.90559
1.42723
1.40028
1.40001
1.40001
1.40001
1.40001
1.40001
1.40001
1.40001
1.40001
1.40001
1.40001
4.07637
3.99161
2.7591
1.61025
1.40709
1.40007
1.40001
1.40001
1.40001
1.40001
1.40001
1.40001
1.40001
1.40001
1.40001
3.2594
3.91859
3.52284
2.15328
1.46715
1.40113
1.40001
1.4
1.40001
1.40001
1.40001
1.40001
1.40001
1.40001
1.40001
2.26141
3.42859
3.59918
2.91005
1.83177
1.45143
1.40261
1.40007
1.40001
1.40001
1.40001
1.40001
1.40001
1.40001
1.40001
1.7668
2.85806
3.48773
3.29971
2.35121
1.55193
1.40631
1.40013
1.40001
1.40001
1.40001
1.40001
1.40001
1.40001
1.40001
1.29033
2.09995
3.02457
3.27068
2.99199
2.01097
1.4621
1.40157
1.40002
1.40001
1.40001
1.40001
1.40001
1.40001
1.40001
1.09764
1.54443
2.40445
3.10981
3.09631
2.57837
1.68564
1.41454
1.4002
1.40001
1.40001
1.40001
1.40001
1.40001
1.40001
1.01447
1.27309
1.85328
2.70428
3.05664
2.94909
2.15959
1.50851
1.40354
1.40004
1.40001
1.40001
1.40001
1.40001
1.40001
0.966788
1.23348
1.49064
2.18055
2.86992
2.94664
2.60145
1.77221
1.42555
1.40044
1.40001
1.40001
1.40001
1.40001
1.40001
0.900754
1.1755
1.30802
1.71239
2.48518
2.89195
2.81946
2.19478
1.54036
1.40553
1.40007
1.40001
1.40001
1.40001
1.40001
0.778862
1.03907
1.20977
1.49792
2.06009
2.69422
2.80945
2.54304
1.80531
1.43421
1.4007
1.40001
1.40001
1.40001
1.40001
0.717144
0.887625
1.0967
1.37788
1.73381
2.35992
2.74798
2.70373
2.17211
1.55101
1.40652
1.40008
1.40001
1.40001
1.40001
0.707901
0.810552
0.97993
1.26383
1.49932
1.98821
2.56887
2.69579
2.4779
1.7994
1.43707
1.40087
1.40001
1.40001
1.40001
0.703894
0.779867
0.910868
1.16199
1.36029
1.70879
2.25307
2.63399
2.59551
2.13037
1.54841
1.40654
1.40009
1.40001
1.40001
0.701803
0.767653
0.886404
1.05875
1.22571
1.51434
1.95159
2.47009
2.58239
2.39027
1.77915
1.43757
1.40089
1.40001
1.40001
0.695416
0.753602
0.848139
0.95312
1.092
1.37556
1.70372
2.20603
2.5216
2.47723
2.05428
1.53183
1.40568
1.40008
1.40001
0.664207
0.72924
0.825527
0.88799
1.00231
1.27507
1.49027
1.88602
2.3656
2.45292
2.26643
1.71272
1.4289
1.4006
1.40001
0.612821
0.700906
0.7968
0.852014
0.950681
1.15245
1.33061
1.64746
2.12684
2.38242
2.32469
1.92705
1.4913
1.40343
1.40004
0.586409
0.668612
0.75627
0.807453
0.889091
1.00522
1.19321
1.50675
1.87538
2.25225
2.28667
2.08645
1.61318
1.41536
1.40026
0.636554
0.611237
0.699152
0.761169
0.850532
0.917685
1.05208
1.33861
1.61308
2.0663
2.21582
2.13304
1.75665
1.44637
1.40127
0.818211
0.612227
0.630812
0.713613
0.82213
0.898561
0.969003
1.1838
1.41899
1.84392
2.11112
2.10237
1.86132
1.5028
1.40471
0.987698
0.693566
0.606596
0.664605
0.77489
0.860064
0.901413
1.07099
1.31649
1.64783
1.98644
2.034
1.90125
1.56568
1.41244
1.05602
0.848454
0.634319
0.656942
0.721117
0.800733
0.849246
0.97214
1.2011
1.49366
1.86295
1.96137
1.88535
1.61725
1.42474
1.13341
1.04701
0.806606
0.670139
0.705885
0.771927
0.847936
0.955827
1.11078
1.3547
1.68712
1.83374
1.81009
1.61339
1.43284
1.19345
1.05621
0.964767
0.866175
0.769891
0.701393
0.675727
0.653686
0.633038
0.638778
0.633993
0.619474
0.609561
0.572616
0.644792
0.888357
1.02881
1.12221
1.13385
1.15162
0.933613
0.866068
0.799024
0.71813
0.653369
0.626251
0.617671
0.609255
0.612035
0.606152
0.602487
0.595595
0.592796
0.692734
0.911954
1.05257
1.10528
1.14351
1.14243
1.15523
0.715627
0.703303
0.680876
0.624171
0.561135
0.55025
0.554272
0.561497
0.566744
0.565598
0.563458
0.605755
0.779883
0.99487
1.0809
1.11993
1.15063
1.16182
1.14738
1.15439
0.547271
0.578665
0.568288
0.514921
0.495788
0.499922
0.504244
0.527513
0.537847
0.542573
0.641742
0.892227
1.0589
1.09732
1.14432
1.17555
1.19011