/*--------------------------------*- C++ -*----------------------------------*\
  =========                 |
  \\      /  F ield         | OpenFOAM: The Open Source CFD Toolbox
   \\    /   O peration     | Website:  https://openfoam.org
    \\  /    A nd           | Version:  7
     \\/     M anipulation  |
\*---------------------------------------------------------------------------*/
FoamFile
{
    version     2.0;
    format      ascii;
    class       volScalarField;
    location    "2.6";
    object      T;
}
// * * * * * * * * * * * * * * * * * * * * * * * * * * * * * * * * * * * * * //

dimensions      [0 0 0 1 0 0 0];

internalField   nonuniform List<scalar> 
3700
(
100.71
100.818
100.843
100.829
100.8
100.809
100.879
100.957
101.05
101.139
101.182
101.182
101.17
101.138
101.068
101.014
101.011
101.045
101.071
101.072
100.273
100.254
100.304
100.3
100.265
100.316
100.436
100.525
100.628
100.764
100.864
100.866
100.816
100.662
100.424
100.292
100.288
100.321
100.41
100.47
100.293
100.195
100.126
100.036
100.001
100.005
100.009
100.032
100.028
100.007
99.9634
99.9474
99.937
99.95
99.9774
100.011
100.032
100.046
100.047
100.034
100.327
100.203
100.084
99.9496
99.9312
99.9505
99.999
100.069
100.091
100.084
100.072
100.054
100.027
100
99.9897
100.007
100.038
100.062
100.078
100.097
100.332
100.186
100.019
99.8843
99.8692
99.8855
99.9442
100.044
100.091
100.103
100.115
100.114
100.116
100.107
100.087
100.058
100.047
100.057
100.087
100.135
100.288
100.138
99.9558
99.8568
99.846
99.8696
99.9286
100.005
100.038
100.081
100.12
100.13
100.151
100.158
100.16
100.158
100.149
100.143
100.139
100.165
100.182
100.063
99.8843
99.8526
99.8454
99.8795
99.9553
100.002
100.023
100.061
100.099
100.122
100.155
100.178
100.192
100.212
100.221
100.227
100.228
100.251
100.076
99.9558
99.8301
99.8593
99.9087
100.001
100.076
100.088
100.077
100.095
100.103
100.121
100.149
100.18
100.209
100.237
100.264
100.284
100.294
100.33
99.9773
99.855
99.8031
99.8717
99.9526
100.08
100.155
100.166
100.182
100.205
100.21
100.222
100.234
100.244
100.25
100.265
100.294
100.329
100.351
100.394
99.8859
99.7867
99.8067
99.8686
99.9705
100.125
100.184
100.189
100.233
100.274
100.291
100.306
100.326
100.336
100.343
100.35
100.361
100.383
100.414
100.453
99.8228
99.7714
99.8347
99.8807
100.017
100.194
100.202
100.202
100.252
100.304
100.333
100.358
100.387
100.398
100.414
100.428
100.444
100.46
100.498
100.495
99.7813
99.8031
99.9267
99.9228
100.092
100.264
100.247
100.286
100.338
100.353
100.381
100.405
100.432
100.448
100.472
100.496
100.52
100.54
100.577
100.568
99.7366
99.8097
99.9479
99.969
100.188
100.325
100.336
100.392
100.437
100.474
100.489
100.5
100.51
100.52
100.537
100.564
100.594
100.621
100.656
100.654
99.6992
99.7139
99.9256
100.083
100.277
100.361
100.411
100.469
100.516
100.554
100.566
100.582
100.595
100.612
100.636
100.66
100.683
100.707
100.724
100.735
99.6752
99.6802
99.9197
100.172
100.343
100.384
100.464
100.531
100.583
100.615
100.634
100.653
100.673
100.7
100.73
100.755
100.772
100.783
100.779
100.774
99.6338
99.757
99.9715
100.201
100.416
100.517
100.6
100.651
100.696
100.713
100.725
100.742
100.764
100.792
100.814
100.823
100.821
100.813
100.788
100.745
99.5375
99.8342
100.163
100.412
100.568
100.688
100.74
100.777
100.801
100.811
100.821
100.836
100.852
100.858
100.856
100.845
100.792
100.677
100.515
100.277
99.5006
100.069
100.452
100.664
100.768
100.809
100.839
100.864
100.877
100.88
100.882
100.884
100.883
100.86
100.775
100.624
100.361
100.103
100.006
99.9978
100.124
100.528
100.74
100.832
100.882
100.902
100.922
100.924
100.918
100.908
100.893
100.84
100.73
100.477
100.151
100.011
99.9966
99.9985
99.9992
99.9998
100.696
100.836
100.911
100.947
100.959
100.951
100.953
100.931
100.843
100.761
100.574
100.231
100.029
99.9956
99.9977
99.9988
99.9998
100
100
100
100.998
100.995
100.992
100.987
100.978
100.947
100.888
100.467
99.8396
100
100
100
100
100
100
100
100
100
100
100
101
100.997
100.99
100.977
100.955
100.847
100.492
100.017
100
100
100
100
100
100
100
100
100
100
100
100
100.994
100.995
100.99
100.968
100.913
100.611
100.023
99.9996
100
100
100
100
100
100
100
100
100
100
100
100
100.989
100.994
100.989
100.952
100.777
100.229
99.9968
100
100
100
100
100
100
100
100
100
100
100
100
100
100.983
100.993
100.986
100.919
100.563
99.9921
100
100
100
100
100
100
100
100
100
100
100
100
100
100
100.976
100.989
100.982
100.832
100.264
100
100
100
100
100
100
100
100
100
100
100
100
100
100
100
100.972
100.978
100.97
100.703
99.9926
100
100
100
100
100
100
100
100
100
100
100
100
100
100
100
100.976
100.972
100.919
100.486
100
100
100
100
100
100
100
100
100
100
100
100
100
100
100
100
101.002
100.972
100.825
100.141
100
100
100
100
100
100
100
100
100
100
100
100
100
100
100
100
101.014
100.943
100.684
99.9964
100
100
100
100
100
100
100
100
100
100
100
100
100
100
100
100
101.023
100.904
100.503
100
100
100
100
100
100
100
100
100
100
100
100
100
100
100
100
100
101.027
100.854
100.313
100
100
100
100
100
100
100
100
100
100
100
100
100
100
100
100
100
101.03
100.796
100.109
100
100
100
100
100
100
100
100
100
100
100
100
100
100
100
100
100
101.023
100.729
100.001
100
100
100
100
100
100
100
100
100
100
100
100
100
100
100
100
100
101.014
100.655
100
100
100
100
100
100
100
100
100
100
100
100
100
100
100
100
100
100
100.989
100.577
100
100
100
100
100
100
100
100
100
100
100
100
100
100
100
100
100
100
100.963
100.456
100
100
100
100
100
100
100
100
100
100
100
100
100
100
100
100
100
100
100.907
100.235
100
100
100
100
100
100
100
100
100
100
100
100
100
100
100
100
100
100
100.847
100.005
100
100
100
100
100
100
100
100
100
100
100
100
100
100
100
100
100
100
100.811
100
100
100
100
100
100
100
100
100
100
100
100
100
100
100
100
100
100
100
100.811
100
100
100
100
100
100
100
100
100
100
100
100
100
100
100
100
100
100
100
100.847
100.005
100
100
100
100
100
100
100
100
100
100
100
100
100
100
100
100
100
100
100.907
100.234
100
100
100
100
100
100
100
100
100
100
100
100
100
100
100
100
100
100
100.963
100.456
100
100
100
100
100
100
100
100
100
100
100
100
100
100
100
100
100
100
100.989
100.577
100
100
100
100
100
100
100
100
100
100
100
100
100
100
100
100
100
100
101.014
100.655
100
100
100
100
100
100
100
100
100
100
100
100
100
100
100
100
100
100
101.023
100.729
100.001
100
100
100
100
100
100
100
100
100
100
100
100
100
100
100
100
100
101.03
100.796
100.109
100
100
100
100
100
100
100
100
100
100
100
100
100
100
100
100
100
101.027
100.854
100.315
100
100
100
100
100
100
100
100
100
100
100
100
100
100
100
100
100
101.023
100.905
100.503
100
100
100
100
100
100
100
100
100
100
100
100
100
100
100
100
100
101.014
100.942
100.685
99.9964
100
100
100
100
100
100
100
100
100
100
100
100
100
100
100
100
101.003
100.972
100.825
100.14
100
100
100
100
100
100
100
100
100
100
100
100
100
100
100
100
100.976
100.972
100.919
100.486
100
100
100
100
100
100
100
100
100
100
100
100
100
100
100
100
100.972
100.978
100.97
100.703
99.9926
100
100
100
100
100
100
100
100
100
100
100
100
100
100
100
100.976
100.988
100.982
100.832
100.263
100
100
100
100
100
100
100
100
100
100
100
100
100
100
100
100.983
100.992
100.986
100.919
100.563
99.9921
100
100
100
100
100
100
100
100
100
100
100
100
100
100
100.989
100.994
100.989
100.951
100.777
100.23
99.9968
100
100
100
100
100
100
100
100
100
100
100
100
100
100.995
100.996
100.99
100.968
100.913
100.612
100.023
99.9996
100
100
100
100
100
100
100
100
100
100
100
100
101
100.997
100.991
100.977
100.955
100.847
100.493
100.018
100
100
100
100
100
100
100
100
100
100
100
100
100.998
100.996
100.992
100.987
100.978
100.947
100.888
100.467
99.8399
100
100
100
100
100
100
100
100
100
100
100
100.696
100.836
100.911
100.946
100.959
100.951
100.953
100.931
100.843
100.761
100.574
100.231
100.029
99.9956
99.9977
99.9989
99.9998
100
100
100
100.123
100.524
100.74
100.833
100.882
100.902
100.921
100.924
100.918
100.908
100.894
100.841
100.73
100.477
100.151
100.011
99.9966
99.9985
99.9992
99.9998
99.5222
100.121
100.458
100.663
100.768
100.809
100.839
100.863
100.877
100.88
100.882
100.884
100.883
100.86
100.775
100.624
100.361
100.102
100.006
99.9978
99.4268
99.8165
100.17
100.417
100.572
100.687
100.739
100.777
100.801
100.811
100.821
100.836
100.852
100.858
100.856
100.845
100.792
100.677
100.515
100.277
99.6303
99.789
99.9969
100.193
100.404
100.516
100.599
100.651
100.696
100.713
100.725
100.742
100.764
100.792
100.814
100.823
100.821
100.813
100.788
100.745
99.709
99.7405
99.9428
100.174
100.335
100.38
100.461
100.527
100.581
100.614
100.633
100.653
100.673
100.699
100.73
100.754
100.772
100.783
100.779
100.774
99.6627
99.7819
99.9448
100.099
100.275
100.353
100.408
100.468
100.515
100.552
100.566
100.581
100.595
100.612
100.635
100.66
100.683
100.707
100.724
100.735
99.6682
99.8116
99.9598
99.9978
100.197
100.32
100.332
100.389
100.436
100.473
100.488
100.5
100.511
100.521
100.538
100.565
100.595
100.622
100.656
100.654
99.7096
99.796
99.9388
99.9524
100.105
100.265
100.246
100.285
100.339
100.354
100.381
100.405
100.433
100.449
100.473
100.497
100.52
100.54
100.578
100.569
99.7572
99.7595
99.8552
99.8989
100.026
100.2
100.214
100.208
100.253
100.303
100.333
100.358
100.388
100.399
100.415
100.428
100.444
100.46
100.498
100.494
99.8204
99.7672
99.8267
99.8763
99.9676
100.118
100.185
100.191
100.233
100.274
100.291
100.306
100.327
100.337
100.344
100.35
100.36
100.382
100.413
100.453
99.9173
99.8235
99.8069
99.8689
99.9474
100.07
100.151
100.166
100.183
100.207
100.211
100.223
100.233
100.242
100.248
100.264
100.293
100.329
100.35
100.394
100.017
99.9227
99.8149
99.8448
99.9056
99.9972
100.071
100.09
100.08
100.095
100.101
100.116
100.143
100.175
100.205
100.235
100.263
100.283
100.293
100.329
100.121
100.036
99.8719
99.837
99.8442
99.88
99.95
99.9927
100.012
100.048
100.091
100.114
100.149
100.173
100.189
100.21
100.22
100.227
100.228
100.252
100.275
100.137
99.9625
99.8485
99.8441
99.8668
99.9207
99.9911
100.023
100.065
100.112
100.124
100.146
100.156
100.16
100.158
100.15
100.144
100.141
100.168
100.366
100.215
100.037
99.8831
99.8664
99.8823
99.9355
100.026
100.076
100.094
100.11
100.111
100.116
100.108
100.09
100.062
100.052
100.062
100.092
100.137
100.369
100.236
100.099
99.9504
99.9271
99.9457
99.9885
100.057
100.081
100.078
100.074
100.059
100.036
100.01
100
100.018
100.045
100.066
100.08
100.098
100.35
100.23
100.135
100.027
99.9917
99.9987
100.002
100.028
100.03
100.013
99.9774
99.9584
99.9515
99.9655
99.9913
100.019
100.037
100.047
100.047
100.034
100.32
100.268
100.261
100.27
100.378
100.411
100.369
100.384
100.432
100.407
100.282
100.261
100.36
100.523
100.583
100.59
100.593
100.591
100.562
100.46
100.691
100.797
100.803
100.81
100.843
100.856
100.862
100.898
100.986
101.042
101.034
101.032
101.071
101.141
101.153
101.146
101.134
101.124
101.105
101.07
101.049
101.019
101.004
100.99
100.963
100.942
100.919
100.891
100.875
100.871
100.866
100.854
100.827
100.797
100.78
100.775
100.77
100.749
100.68
100.41
100.576
100.63
100.709
100.733
100.764
100.79
100.799
100.81
100.81
100.805
100.797
100.786
100.765
100.745
100.739
100.741
100.745
100.733
100.674
100.429
100.026
100.058
100.188
100.281
100.406
100.504
100.566
100.637
100.669
100.665
100.658
100.652
100.644
100.638
100.641
100.657
100.687
100.687
100.651
100.462
100.084
100.096
100.097
100.09
100.101
100.186
100.338
100.462
100.521
100.541
100.538
100.53
100.53
100.533
100.54
100.556
100.597
100.623
100.608
100.481
100.136
100.143
100.137
100.127
100.119
100.123
100.148
100.254
100.4
100.461
100.46
100.455
100.459
100.468
100.475
100.486
100.519
100.555
100.551
100.472
100.182
100.189
100.189
100.168
100.147
100.147
100.155
100.167
100.214
100.319
100.392
100.417
100.42
100.425
100.437
100.448
100.471
100.497
100.496
100.445
100.232
100.239
100.228
100.195
100.188
100.189
100.189
100.196
100.199
100.201
100.25
100.344
100.388
100.39
100.402
100.421
100.443
100.455
100.453
100.41
100.297
100.285
100.274
100.251
100.228
100.217
100.213
100.208
100.205
100.2
100.195
100.212
100.286
100.348
100.368
100.391
100.415
100.423
100.419
100.374
100.362
100.342
100.32
100.292
100.271
100.255
100.239
100.225
100.219
100.211
100.204
100.196
100.188
100.232
100.304
100.353
100.386
100.395
100.392
100.345
100.427
100.397
100.372
100.341
100.311
100.284
100.261
100.24
100.222
100.218
100.21
100.198
100.186
100.161
100.189
100.286
100.342
100.368
100.364
100.317
100.533
100.443
100.396
100.37
100.356
100.337
100.291
100.256
100.242
100.233
100.225
100.216
100.196
100.168
100.147
100.165
100.238
100.294
100.301
100.27
100.62
100.548
100.47
100.41
100.395
100.38
100.345
100.3
100.265
100.243
100.23
100.218
100.201
100.181
100.161
100.131
100.118
100.145
100.2
100.19
100.609
100.588
100.543
100.478
100.417
100.376
100.355
100.331
100.298
100.267
100.249
100.226
100.209
100.191
100.168
100.137
100.106
100.077
100.068
100.074
100.488
100.547
100.541
100.518
100.472
100.409
100.374
100.35
100.326
100.297
100.264
100.228
100.201
100.181
100.157
100.13
100.102
100.072
100.049
99.9883
100.251
100.377
100.446
100.483
100.474
100.449
100.406
100.362
100.323
100.295
100.264
100.231
100.202
100.179
100.152
100.13
100.107
100.073
100.039
99.9735
100.043
100.146
100.254
100.336
100.388
100.414
100.405
100.38
100.341
100.303
100.271
100.245
100.222
100.188
100.147
100.113
100.092
100.063
100.031
99.9677
100.002
100.015
100.065
100.154
100.233
100.29
100.329
100.349
100.34
100.315
100.282
100.248
100.211
100.179
100.15
100.11
100.075
100.042
100.015
99.9627
100
100
100.003
100.025
100.077
100.149
100.208
100.249
100.28
100.291
100.282
100.26
100.222
100.187
100.161
100.126
100.087
100.05
100.014
99.9643
100
100
100
100.001
100.006
100.031
100.081
100.139
100.187
100.217
100.243
100.242
100.232
100.208
100.175
100.134
100.095
100.064
100.029
99.9813
100
100
100
100
100
100.001
100.008
100.032
100.078
100.129
100.169
100.193
100.204
100.2
100.187
100.165
100.133
100.096
100.062
100.019
100
100
100
100
100
100
100
100.001
100.008
100.032
100.074
100.118
100.148
100.167
100.166
100.159
100.145
100.126
100.104
100.069
100
100
100
100
100
100
100
100
100
100.001
100.008
100.028
100.062
100.099
100.122
100.132
100.129
100.119
100.106
100.084
100
100
100
100
100
100
100
100
100
100
100
100.001
100.006
100.02
100.044
100.07
100.087
100.092
100.09
100.078
100
100
100
100
100
100
100
100
100
100
100
100
100
100.001
100.003
100.01
100.022
100.035
100.044
100.043
100
100
100
100
100
100
100
100
100
100
100
100
100
100
100
100
100.001
100.003
100.005
100.007
100.597
100.653
100.61
100.416
100.142
100.017
100.001
100
100
100
100
100
100
100
100
100.671
100.662
100.518
100.218
100.022
100
100
100
100
100
100
100
100
100
100
100.705
100.635
100.373
100.073
100.002
100
100
100
100
100
100
100
100
100
100
100.719
100.517
100.167
100.009
100
100
100
100
100
100
100
100
100
100
100
100.651
100.284
100.024
100
100
100
100
100
100
100
100
100
100
100
100
100.396
100.038
100
100
100
100
100
100
100
100
100
100
100
100
100
100.043
100
100
100
100
100
100
100
100
100
100
100
100
100
100
99.9995
100
100
100
100
100
100
100
100
100
100
100
100
100
100
100
100
100
100
100
100
100
100
100
100
100
100
100
100
100
100
100
100
100
100
100
100
100
100
100
100
100
100
100
100
100
100
100
100
100
100
100
100
100
100
100
100
100
100
100
100
100
100
100
100
100
100
100
100
100
100
100
100
100
100
100
100
100
100
100
100
100
100
100
100
100
100
100
100
100
100
100
100
100
100
100
100
100
100
100
100
100
100
100
100
100
100
100
100
100
100
100
100
100
100
100
100
100
100
100
100
100
100
100
100
100
100
100
100
100
100
100
100
100
100
100
100
100
100
100
100
100
100
100
100
100
100
100
100
100
100
100
100
100
100
100
100
100
100
100
100
100
100
100
100
100
100
100
100
100
100
100
100
100
100
100
100
100
100
100
100
100
100
100
100
100
100
100
100
100
100
100
100
100
100
100
100
100
100
100
100
100
100
100
100
100
100
100
100
100
100
100
100
100
100
100
100
100
100
100
100
100
100
100
100
100
100
100
100
100
100
100
100
100
100
100
100
100
100
100
100
100
100
100
100
100
100
100
100
100
100
100
100
100
100
100
100
100
100
100
100
100
100
100
100
100
100
100
100
100
100
100
100
100
100
100
100
100
100
100
100
100
100
100
100
100
100
100
100
100
100
100
100
100
100
100
100
100
100
100
100
100
100
100
100
100
100
100
100
100
100
100
100
100
100
100
100
100
100
100
100
100
100
100
100
100
100
100
100
100
100
100
100
100
100
100
100
100
100
100
100
100
100
100
100
100
100
100
100
100
100
100
100
100
100
100
100
100
100
100
100
100
100
100
100
100
100
100
100
100
100
100
100
100
100
100
100
100
100
100
100
100
100
100
100
100
100
100
100
100
100
100
100
100
100
100
100
100
100
100
100
100
100
100
100
100
100
100
100
100
100
100
100
100
100
100
100
100
100
100
100
100
100
100
100
100
100
100
100
100
100
100
100
100
100
100
100
100
100
100
100
100
100
100
100
100
100
100
100
100
100
100
100
100
100
100
100
100
100
100
100
100
100
100
100
100
100
100
100
100
100
100
100
100
100
100
100
100
100
100
100
100
100
100
100
100
100
100
100
100
100
100
100
100
100
100
100
100
100
100
100
100
100
100
100
100
100
100
100
100
100
100
100
100
100
100
100
100
100
100
100
100
100
100
100
100
100
100
100
100
100
100
100
100
100
100
100
100
100
100
100
100
100
100
100
100
100
100
100
100
100
100
100
100
100
100
100
100
100
100
100
100
100
100
100
100
100
100
100
100
100
100
100
100
100
100
100
100
100
100
100
100
100
100
100
100
100
100
100
100
100
100
100
100
100
100
100
100
100
100
100
100
100
100
100
100
100
100
100
100
100
100
100
100
100
100
100
100
100
100
100
100
100
100
100
100
100
100
100
100
100
100
100
100
100
100
100
100
100
100
100
100
100
100
100
100
100
100
100
100
100
100
100
100
100
100
100
100
100
100
100
100
100
100
100
100
100
100
100
100
100
100
100
100
100
100
100
100
100
100
100
100
100
100
100
100
100
100
100
100
100
100
100
100
100
100
100
100
100
100
100
100
100
100
100
100
100
100
100
100
100
100
100
100
100
100
100
100
100
100
100
100
100
100
100
100
100
100
100
100
100
100
100
100
100
100
100
100
100
100
100
100
100
100
100
100
100
100
100
100
100
100
100
100
100
100
100
100
100
100
100
100
100
100
100
100
100
100
100
100
100
100
100
100
100
100
100
100
100
100
100
100
100
100
100
100
100
100
100
100
100
100
100
100
100
100
100
100
100
100
100
100
100
100
100
100
100
100
100
100
100
100
100
100
100
100
100
100
100
100
100
100
100
100
100
100
100
100
100
100
100
100
100
100
100
100
100
100
100
100
100
100
100
100
100
100
100
100
100
100
100
100
100
100
100
100
100
100
100
100
100
100
100
100
100
100
100
100
100
100
100
100
100
100
100
99.9995
100
100
100
100
100
100
100
100
100
100
100
100
100
100
100.043
100
100
100
100
100
100
100
100
100
100
100
100
100
100
100.396
100.038
100
100
100
100
100
100
100
100
100
100
100
100
100
100.651
100.284
100.024
100
100
100
100
100
100
100
100
100
100
100
100
100.719
100.517
100.167
100.009
100
100
100
100
100
100
100
100
100
100
100
100.705
100.635
100.373
100.073
100.002
100
100
100
100
100
100
100
100
100
100
100.671
100.662
100.518
100.218
100.022
100
100
100
100
100
100
100
100
100
100
100.597
100.653
100.609
100.416
100.142
100.017
100.001
100
100
100
100
100
100
100
100
100.533
100.62
100.609
100.488
100.251
100.043
100.002
100
100
100
100
100
100
100
100
100.444
100.549
100.588
100.547
100.377
100.146
100.015
100
100
100
100
100
100
100
100
100.395
100.471
100.543
100.541
100.446
100.254
100.065
100.003
100
100
100
100
100
100
100
100.369
100.41
100.478
100.518
100.483
100.336
100.154
100.025
100.001
100
100
100
100
100
100
100.356
100.395
100.417
100.472
100.474
100.388
100.233
100.077
100.006
100
100
100
100
100
100
100.337
100.38
100.376
100.409
100.449
100.414
100.29
100.149
100.031
100.001
100
100
100
100
100
100.291
100.345
100.355
100.374
100.406
100.405
100.329
100.208
100.081
100.008
100
100
100
100
100
100.257
100.3
100.33
100.35
100.362
100.38
100.349
100.249
100.139
100.033
100.001
100
100
100
100
100.243
100.265
100.298
100.326
100.323
100.341
100.34
100.28
100.187
100.078
100.008
100
100
100
100
100.233
100.243
100.267
100.297
100.295
100.303
100.315
100.291
100.217
100.129
100.032
100.001
100
100
100
100.225
100.23
100.249
100.264
100.264
100.271
100.282
100.282
100.243
100.169
100.074
100.008
100
100
100
100.216
100.218
100.226
100.228
100.231
100.245
100.248
100.26
100.242
100.193
100.118
100.028
100.001
100
100
100.196
100.201
100.209
100.201
100.202
100.222
100.211
100.222
100.232
100.204
100.148
100.062
100.006
100
100
100.168
100.181
100.191
100.18
100.179
100.189
100.179
100.187
100.208
100.2
100.167
100.099
100.02
100.001
100
100.147
100.161
100.168
100.157
100.152
100.148
100.15
100.161
100.175
100.187
100.166
100.122
100.044
100.003
100
100.165
100.131
100.137
100.129
100.129
100.113
100.111
100.126
100.134
100.165
100.159
100.132
100.07
100.01
100
100.238
100.118
100.106
100.102
100.107
100.091
100.076
100.087
100.095
100.133
100.145
100.129
100.087
100.022
100.001
100.294
100.146
100.077
100.072
100.073
100.063
100.042
100.05
100.064
100.096
100.126
100.119
100.092
100.035
100.003
100.301
100.199
100.068
100.05
100.04
100.031
100.015
100.014
100.029
100.062
100.104
100.106
100.09
100.044
100.005
100.27
100.189
100.074
99.9888
99.9742
99.9681
99.9621
99.964
99.9815
100.019
100.069
100.084
100.078
100.043
100.007
100.427
100.398
100.372
100.34
100.311
100.284
100.261
100.239
100.222
100.218
100.21
100.198
100.186
100.161
100.189
100.285
100.341
100.368
100.364
100.317
100.362
100.342
100.32
100.292
100.272
100.255
100.239
100.225
100.219
100.211
100.204
100.196
100.188
100.231
100.304
100.354
100.385
100.395
100.392
100.345
100.298
100.286
100.274
100.251
100.228
100.217
100.213
100.208
100.205
100.2
100.195
100.211
100.284
100.349
100.367
100.391
100.415
100.423
100.42
100.376
100.233
100.239
100.229
100.196
100.189
100.189
100.189
100.196
100.199
100.2
100.249
100.343
100.387
100.39
100.401
100.42
100.443
100.455
100.454
100.412
100.183
100.189
100.189
100.168
100.147
100.147
100.155
100.167
100.213
100.317
100.392
100.417
100.42
100.425
100.437
100.448
100.471
100.498
100.497
100.447
100.136
100.142
100.134
100.125
100.119
100.123
100.148
100.255
100.398
100.461
100.46
100.455
100.459
100.468
100.475
100.485
100.519
100.555
100.551
100.472
100.083
100.094
100.101
100.092
100.101
100.184
100.339
100.463
100.52
100.54
100.536
100.529
100.531
100.534
100.541
100.556
100.597
100.623
100.608
100.48
100.024
100.062
100.182
100.272
100.404
100.503
100.567
100.637
100.669
100.667
100.66
100.654
100.648
100.643
100.646
100.66
100.689
100.688
100.65
100.461
100.555
100.641
100.706
100.723
100.76
100.792
100.803
100.809
100.81
100.806
100.801
100.792
100.774
100.753
100.744
100.747
100.748
100.734
100.672
100.427
101.04
101.022
101.003
100.985
100.959
100.947
100.927
100.893
100.875
100.873
100.87
100.861
100.836
100.806
100.785
100.776
100.771
100.75
100.678
100.409
)
;

boundaryField
{
    inlet
    {
        type            fixedValue;
        value           uniform 100;
    }
    outlet
    {
        type            inletOutlet;
        inletValue      uniform 100;
        value           nonuniform List<scalar> 
50
(
100.27
100.19
100.074
99.9879
99.9732
99.9675
99.9626
99.9642
99.9812
100.019
100.069
100.084
100.078
100.043
100.007
100.409
100.427
100.461
100.48
100.472
100.445
100.409
100.374
100.344
100.316
100.317
100.345
100.375
100.412
100.447
100.472
100.479
100.46
100.426
100.407
100.27
100.188
100.073
99.9884
99.9739
99.9679
99.962
99.9639
99.9814
100.019
100.069
100.084
100.078
100.043
100.007
)
;
    }
    airfoil
    {
        type            zeroGradient;
    }
    top
    {
        type            symmetryPlane;
    }
    bottom
    {
        type            symmetryPlane;
    }
    defaultFaces
    {
        type            empty;
    }
}


// ************************************************************************* //
