/*--------------------------------*- C++ -*----------------------------------*\
  =========                 |
  \\      /  F ield         | OpenFOAM: The Open Source CFD Toolbox
   \\    /   O peration     | Website:  https://openfoam.org
    \\  /    A nd           | Version:  7
     \\/     M anipulation  |
\*---------------------------------------------------------------------------*/
FoamFile
{
    version     2.0;
    format      ascii;
    class       volScalarField;
    location    "7.4";
    object      p;
}
// * * * * * * * * * * * * * * * * * * * * * * * * * * * * * * * * * * * * * //

dimensions      [1 -1 -2 0 0 0 0];

internalField   nonuniform List<scalar> 
3700
(
0.206474
0.270759
0.325553
0.367731
0.361467
0.370309
0.375644
0.377982
0.398983
0.415979
0.447201
0.464952
0.466426
0.479483
0.490943
0.508688
0.511188
0.505081
0.531102
0.530843
0.142249
0.112997
0.1174
0.112003
0.108705
0.116251
0.125353
0.136076
0.154112
0.165025
0.17715
0.176843
0.162946
0.161835
0.171606
0.185111
0.186184
0.185987
0.198013
0.209003
0.135057
0.0966049
0.0763974
0.0523571
0.0470609
0.0512307
0.0575313
0.0697615
0.080857
0.0809441
0.0799164
0.0792316
0.0786551
0.0801848
0.0849414
0.0944855
0.105408
0.116173
0.126677
0.135511
0.122116
0.0891209
0.0677875
0.0443594
0.0417956
0.0468483
0.0556763
0.0731162
0.0863883
0.100455
0.115442
0.118268
0.121338
0.121924
0.122633
0.124282
0.12896
0.139729
0.155036
0.182494
0.102543
0.081435
0.0606653
0.0411749
0.0400196
0.0454103
0.0544762
0.0698784
0.0830352
0.100794
0.124076
0.137774
0.151988
0.162385
0.170526
0.170333
0.166466
0.167745
0.175461
0.213134
0.086686
0.073287
0.0498541
0.0400058
0.0401994
0.0488244
0.0623408
0.0724009
0.0824415
0.0973979
0.120394
0.141471
0.167233
0.191874
0.211849
0.230479
0.240743
0.250984
0.252423
0.276055
0.0720662
0.0578912
0.0387089
0.0403338
0.0484314
0.0677089
0.0863083
0.0969201
0.105914
0.115024
0.123198
0.139666
0.171646
0.206216
0.237725
0.273473
0.306762
0.339718
0.360456
0.397208
0.0557211
0.0434343
0.0332696
0.0412789
0.0556281
0.0794501
0.103447
0.125532
0.152808
0.174468
0.176225
0.186782
0.200271
0.228832
0.265663
0.312518
0.365366
0.424388
0.473199
0.559972
0.0401516
0.0325914
0.0320073
0.0432694
0.0578824
0.0813747
0.105958
0.133555
0.183988
0.226908
0.257807
0.286342
0.312269
0.344035
0.367826
0.401602
0.447
0.528085
0.602529
0.751018
0.028801
0.024324
0.0306649
0.044169
0.0587417
0.0807331
0.100286
0.128115
0.186892
0.254061
0.31383
0.366711
0.43072
0.484806
0.534083
0.585571
0.635526
0.701287
0.799986
0.957532
0.0220232
0.0195128
0.0274378
0.0430546
0.0658529
0.0983628
0.111149
0.13855
0.187598
0.261738
0.354612
0.440861
0.542441
0.622115
0.712777
0.805247
0.896939
0.97497
1.14081
1.12156
0.0183469
0.0174665
0.0264441
0.045675
0.0854736
0.14147
0.173947
0.242199
0.328071
0.410588
0.506944
0.604972
0.713485
0.810431
0.92552
1.0715
1.22386
1.35444
1.55505
1.49937
0.0156418
0.0169708
0.0336264
0.0685384
0.127987
0.207994
0.284902
0.404855
0.549295
0.702398
0.829514
0.945996
1.06011
1.16606
1.28754
1.45406
1.65424
1.84743
2.11375
2.09925
0.0143913
0.020299
0.0492785
0.106301
0.173343
0.257479
0.3847
0.546759
0.752828
0.988179
1.17166
1.34771
1.5127
1.67766
1.87675
2.1012
2.32863
2.58322
2.80889
2.99956
0.0135408
0.026968
0.0676421
0.130199
0.211274
0.302484
0.510239
0.764763
1.08684
1.40518
1.66862
1.90673
2.13797
2.38316
2.69055
2.9777
3.25312
3.51564
3.6774
3.79268
0.00878763
0.0347017
0.0897431
0.1371
0.308411
0.652665
1.02797
1.44369
1.9246
2.32389
2.61707
2.87485
3.13237
3.42623
3.75149
3.95405
4.07814
4.12971
4.03891
3.91484
0.00580164
0.0403303
0.164302
0.349015
0.814165
1.47292
2.05612
2.63145
3.21486
3.5941
3.81639
4.0307
4.21926
4.37501
4.47738
4.40384
4.18649
3.651
2.79121
1.88814
0.0386784
0.173632
0.477745
1.20688
2.15412
2.88809
3.53206
4.22058
4.79116
4.83778
4.76528
4.74297
4.69187
4.51724
4.01336
3.06482
2.09402
1.33424
1.01871
0.992916
0.302274
0.852728
1.98828
3.15443
4.1847
4.87011
5.44864
5.88308
5.73739
5.29101
4.86667
4.32971
3.41021
2.33565
1.42884
1.02988
0.989417
0.994943
0.997326
0.999439
2.31531
3.63781
4.86869
5.69612
6.27493
6.43568
6.5658
6.23629
4.53619
3.20096
2.36247
1.55872
1.07981
0.987305
0.992869
0.996317
0.999184
0.999976
1.00002
1.00001
6.95126
6.89806
6.85786
6.9089
7.01606
6.77351
5.99877
2.33367
0.649653
1
1
1
1
1
1
1
1
1
1
1
6.95221
6.88511
6.79855
6.73816
6.69802
5.7564
2.70468
1.03329
1
1
1
1
1
1
1
1
1
1
1
1
6.79483
6.84073
6.83419
6.71444
6.30367
3.38473
1.03686
0.999169
1
1
1
1
1
1
1
1
1
1
1
1
6.66162
6.79383
6.82503
6.67056
4.69714
1.3779
0.994197
1.00011
0.999999
1
1
1
1
1
1
1
1
1
1
1
6.56028
6.78523
6.79279
6.03041
2.69092
0.976034
1.00035
0.999994
1
1
1
1
1
1
1
1
1
1
1
1
6.47355
6.8257
6.77448
4.94546
1.49623
1
1
1
1
1
1
1
1
1
1
1
1
1
1
1
6.41399
6.74082
6.74553
3.56065
0.973058
1
1
1
1
1
1
1
1
1
1
1
1
1
1
1
6.46517
6.62186
6.00944
2.04405
0.999999
1
1
1
1
1
1
1
1
1
1
1
1
1
1
1
6.97653
6.636
4.87062
1.21212
1
1
1
1
1
1
1
1
1
1
1
1
1
1
1
1
7.293
6.42177
3.40901
0.987955
1
1
1
1
1
1
1
1
1
1
1
1
1
1
1
1
7.443
5.95422
2.30731
1
1
1
1
1
1
1
1
1
1
1
1
1
1
1
1
1
7.5033
5.39484
1.60682
1
1
1
1
1
1
1
1
1
1
1
1
1
1
1
1
1
7.52062
4.76695
1.17983
1
1
1
1
1
1
1
1
1
1
1
1
1
1
1
1
1
7.34594
4.03394
1.02113
1
1
1
1
1
1
1
1
1
1
1
1
1
1
1
1
1
7.23965
3.19939
1
1
1
1
1
1
1
1
1
1
1
1
1
1
1
1
1
1
6.95702
2.4707
1
1
1
1
1
1
1
1
1
1
1
1
1
1
1
1
1
1
6.61335
1.89848
1
1
1
1
1
1
1
1
1
1
1
1
1
1
1
1
1
1
6.35774
1.38342
1
1
1
1
1
1
1
1
1
1
1
1
1
1
1
1
1
1
5.70915
1.00636
1
1
1
1
1
1
1
1
1
1
1
1
1
1
1
1
1
1
4.63661
1.00006
1
1
1
1
1
1
1
1
1
1
1
1
1
1
1
1
1
1
4.63921
1.00006
1
1
1
1
1
1
1
1
1
1
1
1
1
1
1
1
1
1
5.69021
1.00627
1
1
1
1
1
1
1
1
1
1
1
1
1
1
1
1
1
1
6.36852
1.38446
1
1
1
1
1
1
1
1
1
1
1
1
1
1
1
1
1
1
6.62254
1.91472
1
1
1
1
1
1
1
1
1
1
1
1
1
1
1
1
1
1
6.9266
2.47488
1
1
1
1
1
1
1
1
1
1
1
1
1
1
1
1
1
1
7.25975
3.17961
1
1
1
1
1
1
1
1
1
1
1
1
1
1
1
1
1
1
7.35167
4.02865
1.02038
1
1
1
1
1
1
1
1
1
1
1
1
1
1
1
1
1
7.51072
4.76398
1.18247
1
1
1
1
1
1
1
1
1
1
1
1
1
1
1
1
1
7.4956
5.40784
1.60919
1
1
1
1
1
1
1
1
1
1
1
1
1
1
1
1
1
7.43648
5.9541
2.31749
1
1
1
1
1
1
1
1
1
1
1
1
1
1
1
1
1
7.28861
6.41332
3.41587
0.988027
1
1
1
1
1
1
1
1
1
1
1
1
1
1
1
1
6.98762
6.65533
4.87373
1.20133
1
1
1
1
1
1
1
1
1
1
1
1
1
1
1
1
6.45779
6.61509
6.00513
2.0529
0.999999
1
1
1
1
1
1
1
1
1
1
1
1
1
1
1
6.39705
6.70803
6.74127
3.55536
0.973052
1
1
1
1
1
1
1
1
1
1
1
1
1
1
1
6.46804
6.83268
6.78715
4.96356
1.48829
1
1
1
1
1
1
1
1
1
1
1
1
1
1
1
6.56879
6.80502
6.79522
6.00987
2.71481
0.975707
1.00035
0.999994
1
1
1
1
1
1
1
1
1
1
1
1
6.67203
6.80443
6.82591
6.65502
4.69113
1.37396
0.994465
1.00011
0.999999
1
1
1
1
1
1
1
1
1
1
1
6.79389
6.83751
6.83749
6.72371
6.33735
3.36039
1.03126
0.999332
1
1
1
1
1
1
1
1
1
1
1
1
6.95109
6.88761
6.81155
6.73777
6.68697
5.75887
2.6997
1.03349
1
1
1
1
1
1
1
1
1
1
1
1
6.95434
6.90307
6.86602
6.89747
6.99116
6.76725
6.00551
2.36597
0.64217
1
1
1
1
1
1
1
1
1
1
1
2.31797
3.63727
4.87528
5.69438
6.25945
6.43114
6.56001
6.23999
4.53972
3.20184
2.36014
1.55463
1.07786
0.987137
0.992809
0.996286
0.999179
0.999976
1.00002
1.00001
0.301277
0.872323
2.00151
3.16507
4.1875
4.86827
5.44472
5.88093
5.73482
5.28818
4.86408
4.32832
3.4098
2.33712
1.43019
1.03033
0.989411
0.994938
0.997325
0.999438
0.0333449
0.131907
0.476294
1.20302
2.15334
2.89327
3.53779
4.22421
4.78941
4.83675
4.76845
4.74953
4.69895
4.52057
4.01206
3.06322
2.09427
1.33504
1.01893
0.992902
0.0134
0.0494931
0.137485
0.344727
0.811779
1.47145
2.05549
2.63248
3.21466
3.59213
3.82096
4.03887
4.22636
4.37604
4.47502
4.4016
4.18474
3.65058
2.79199
1.88958
0.0183097
0.0447957
0.0830917
0.129359
0.298015
0.645682
1.02503
1.43782
1.91756
2.31715
2.61669
2.87892
3.13563
3.42639
3.74958
3.95076
4.07469
4.12838
4.03817
3.91522
0.0192676
0.0347516
0.0649257
0.126126
0.213715
0.29781
0.503566
0.758804
1.08256
1.40223
1.66903
1.90895
2.13963
2.38388
2.69027
2.9768
3.25117
3.51353
3.67618
3.79247
0.0180029
0.0241503
0.0461281
0.105751
0.17855
0.257567
0.383016
0.545407
0.751243
0.988053
1.17269
1.34883
1.51353
1.6786
1.87773
2.10139
2.32752
2.58091
2.80693
2.9993
0.0169361
0.0192048
0.034258
0.0703632
0.133025
0.211561
0.287414
0.406634
0.549259
0.701796
0.829035
0.945528
1.06018
1.16683
1.28943
1.45583
1.65453
1.84694
2.11283
2.09906
0.0185903
0.0203104
0.0320353
0.0494339
0.0869369
0.147
0.177186
0.244308
0.329961
0.410625
0.506337
0.60442
0.714024
0.81206
0.927762
1.07318
1.22411
1.35384
1.55521
1.49935
0.0232388
0.0232731
0.0340702
0.044607
0.0631924
0.101244
0.112053
0.138381
0.188139
0.26374
0.356036
0.441811
0.543632
0.623371
0.713572
0.80519
0.896439
0.974397
1.14081
1.12298
0.030329
0.0268688
0.0362402
0.0449658
0.0562868
0.0814233
0.101614
0.129063
0.187436
0.254559
0.314155
0.367282
0.431357
0.485246
0.533795
0.584831
0.635036
0.702147
0.800221
0.958806
0.0405309
0.0325559
0.0361056
0.0445897
0.0562747
0.0820557
0.107585
0.134104
0.183567
0.226229
0.257096
0.285983
0.311777
0.343208
0.366832
0.400995
0.447099
0.529149
0.603238
0.750721
0.0550133
0.0434037
0.0349991
0.0428805
0.0542428
0.0798138
0.10467
0.125135
0.150773
0.171672
0.174126
0.185086
0.198687
0.227794
0.265392
0.313021
0.365827
0.424317
0.472864
0.558799
0.0734686
0.0579566
0.0385529
0.0415362
0.0471498
0.0673437
0.0864935
0.0947289
0.102943
0.112068
0.121329
0.138427
0.171191
0.206816
0.238407
0.273937
0.306757
0.339098
0.359754
0.396927
0.0928651
0.0737266
0.0487503
0.0392651
0.0386241
0.0478668
0.0616968
0.0705317
0.0812123
0.0959661
0.118653
0.140561
0.167859
0.192842
0.212461
0.230478
0.240406
0.250617
0.252205
0.276252
0.103125
0.0793567
0.0601552
0.0399919
0.0384864
0.0435574
0.0540339
0.0683611
0.0823971
0.0994555
0.123064
0.138033
0.152808
0.162933
0.170744
0.169904
0.166191
0.167639
0.175692
0.213979
0.11026
0.0837005
0.0682091
0.0432395
0.0398713
0.0446287
0.0554947
0.0714613
0.085861
0.10049
0.116329
0.118814
0.121176
0.121337
0.122165
0.124107
0.129075
0.140222
0.155797
0.183455
0.118391
0.090416
0.0742892
0.0509321
0.0437584
0.0477183
0.0563377
0.0688782
0.0801218
0.0836983
0.0809619
0.0794804
0.0785044
0.0798966
0.0848689
0.095006
0.106296
0.117218
0.127706
0.136194
0.131382
0.107331
0.0953606
0.0802271
0.0813255
0.0843512
0.0924077
0.112657
0.136667
0.147118
0.152472
0.161195
0.169424
0.173084
0.168721
0.172084
0.188911
0.214334
0.239649
0.230755
0.202439
0.285002
0.309852
0.320929
0.328285
0.336174
0.342344
0.358417
0.391051
0.411047
0.44338
0.468545
0.4765
0.489231
0.489173
0.504143
0.523984
0.528071
0.538523
0.529853
0.563348
0.633589
0.711914
0.816903
0.812387
0.827917
0.837105
0.862112
0.900286
0.931961
0.936968
0.936533
0.935173
0.952351
0.966755
0.960238
0.947957
0.945627
0.949311
0.95721
0.300385
0.419865
0.527888
0.68014
0.757177
0.827573
0.828891
0.847725
0.886192
0.920999
0.9322
0.936155
0.933777
0.941262
0.955558
0.962516
0.960584
0.957042
0.950652
0.951778
0.138054
0.161353
0.218983
0.312594
0.530667
0.69898
0.761543
0.831607
0.887632
0.92167
0.932216
0.935652
0.934111
0.933555
0.940552
0.955606
0.96445
0.965142
0.960335
0.955327
0.193303
0.210978
0.235658
0.24488
0.268925
0.360013
0.565165
0.734224
0.821029
0.887419
0.932013
0.932027
0.933283
0.931245
0.937042
0.951463
0.964679
0.966182
0.962951
0.958026
0.242853
0.2569
0.268371
0.296735
0.304579
0.293928
0.321506
0.416427
0.599799
0.774696
0.886242
0.921487
0.938828
0.934662
0.934206
0.948358
0.9643
0.96377
0.960368
0.9608
0.309596
0.319844
0.326834
0.340812
0.340359
0.336784
0.344407
0.335938
0.358224
0.473318
0.690794
0.865766
0.929701
0.938776
0.932325
0.944256
0.960747
0.959417
0.955601
0.963507
0.401328
0.394219
0.373957
0.377527
0.386742
0.383687
0.382288
0.378074
0.363557
0.365743
0.444063
0.650892
0.856231
0.940326
0.929487
0.938451
0.943202
0.938923
0.947762
0.963708
0.53118
0.498361
0.43279
0.421468
0.428323
0.432196
0.431544
0.421806
0.403621
0.382947
0.385155
0.438225
0.619636
0.864888
0.911573
0.940841
0.932322
0.932093
0.949707
0.966593
0.689336
0.624756
0.499595
0.475336
0.475638
0.478747
0.473828
0.461164
0.440397
0.417602
0.397383
0.400905
0.439998
0.620305
0.838019
0.934522
0.917913
0.926705
0.961434
0.967942
0.875102
0.779642
0.628026
0.542628
0.524904
0.526914
0.521393
0.501338
0.484555
0.455867
0.439523
0.422852
0.427398
0.458742
0.619467
0.846866
0.884621
0.93061
0.97101
0.963918
1.25523
0.988666
0.826434
0.688998
0.597126
0.566065
0.576644
0.580675
0.56257
0.53435
0.503276
0.478972
0.468906
0.461127
0.478163
0.56988
0.748403
0.885683
0.937752
0.95322
2.02811
1.47496
1.19067
1.02051
0.872944
0.709842
0.672825
0.656894
0.620931
0.581032
0.555079
0.537131
0.531155
0.520406
0.490334
0.488799
0.525573
0.640197
0.786415
0.909452
2.50349
2.1672
1.71831
1.337
1.1316
0.945739
0.8071
0.753058
0.689685
0.654908
0.655692
0.637228
0.609801
0.585357
0.55209
0.521199
0.524349
0.535635
0.576776
0.743175
2.36825
2.34696
2.24055
1.92306
1.55281
1.29716
1.06598
0.960321
0.882259
0.812356
0.764891
0.70862
0.651649
0.619147
0.608418
0.590722
0.570662
0.557643
0.546164
0.578634
1.6856
2.14284
2.22063
2.19114
2.04753
1.79738
1.49284
1.24168
1.08228
0.94868
0.866993
0.801999
0.717637
0.696155
0.697561
0.684642
0.657338
0.623179
0.574402
0.57127
1.10764
1.43832
1.849
2.1112
2.10974
2.07603
1.94256
1.68658
1.43784
1.21816
1.07332
1.00002
0.911906
0.848782
0.793866
0.739093
0.698818
0.661875
0.631207
0.606818
1.00447
1.04463
1.20628
1.54576
1.85774
2.02417
2.02058
1.97167
1.83715
1.62604
1.3865
1.21682
1.08768
0.977761
0.895536
0.813718
0.762903
0.736969
0.730174
0.699452
1.00009
1.00114
1.01041
1.07856
1.26564
1.57304
1.82463
1.93475
1.92737
1.88701
1.76619
1.57841
1.38557
1.21305
1.10208
1.01669
0.928946
0.8738
0.831996
0.763062
1
1.00001
1.00014
1.00251
1.01871
1.09925
1.29237
1.56018
1.76755
1.85566
1.84966
1.81499
1.71902
1.55454
1.3802
1.23165
1.10215
0.993973
0.916986
0.830139
1
1
1
1.00003
1.00032
1.00381
1.02532
1.10899
1.28676
1.52044
1.70618
1.78736
1.7836
1.75663
1.67715
1.5372
1.38418
1.2332
1.12208
0.995458
1
1
1
1
1
1.00005
1.00052
1.00468
1.02687
1.10539
1.2653
1.47201
1.63959
1.72758
1.72402
1.70325
1.64551
1.53045
1.39637
1.19472
1
1
1
1
1
1
1
1.00006
1.00059
1.00487
1.02461
1.09618
1.23237
1.42515
1.56739
1.66745
1.66701
1.65533
1.61797
1.46516
1
1
1
1
1
1
1
1
1.00001
1.00007
1.00053
1.0046
1.0211
1.08
1.19868
1.37284
1.50957
1.59806
1.61429
1.5919
1
1
1
1
1
1
1
1
1
1
1.00001
1.00006
1.00048
1.0034
1.01842
1.06239
1.16429
1.31565
1.44471
1.54817
1
1
1
1
1
1
1
1
1
1
1
1
1
1.00005
1.00042
1.00249
1.01412
1.0518
1.13709
1.38794
1.62137
2.46089
2.58464
2.08659
1.31024
1.03701
1.00188
1.00005
1
1
1
1
1
1
1
2.3405
2.81341
2.52693
1.54189
1.04846
1.00081
1
1
1
1
1
1
1
1
1
2.92947
2.86797
1.98134
1.15329
1.00529
1.00005
1
1
1
1
1
1
1
1
1
3.25081
2.55616
1.36427
1.01909
1.00018
1
1
1
1
1
1
1
1
1
1
3.3231
1.68209
1.04725
1.00054
1
1
1
1
1
1
1
1
1
1
1
2.06848
1.07319
1.00047
0.999999
0.999999
1
1
1
1
1
1
1
1
1
1
1.10165
1.00056
0.999997
1
1
1
1
1
1
1
1
1
1
1
1
0.998145
0.999864
0.999996
1
1
1
1
1
1
1
1
1
1
1
1
0.999966
1
1
1
1
1
1
1
1
1
1
1
1
1
1
1
1
1
1
1
1
1
1
1
1
1
1
1
1
1
1
1
1
1
1
1
1
1
1
1
1
1
1
1
1
1
1
1
1
1
1
1
1
1
1
1
1
1
1
1
1
1
1
1
1
1
1
1
1
1
1
1
1
1
1
1
1
1
1
1
1
1
1
1
1
1
1
1
1
1
1
1
1
1
1
1
1
1
1
1
1
1
1
1
1
1
1
1
1
1
1
1
1
1
1
1
1
1
1
1
1
1
1
1
1
1
1
1
1
1
1
1
1
1
1
1
1
1
1
1
1
1
1
1
1
1
1
1
1
1
1
1
1
1
1
1
1
1
1
1
1
1
1
1
1
1
1
1
1
1
1
1
1
1
1
1
1
1
1
1
1
1
1
1
1
1
1
1
1
1
1
1
1
1
1
1
1
1
1
1
1
1
1
1
1
1
1
1
1
1
1
1
1
1
1
1
1
1
1
1
1
1
1
1
1
1
1
1
1
1
1
1
1
1
1
1
1
1
1
1
1
1
1
1
1
1
1
1
1
1
1
1
1
1
1
1
1
1
1
1
1
1
1
1
1
1
1
1
1
1
1
1
1
1
1
1
1
1
1
1
1
1
1
1
1
1
1
1
1
1
1
1
1
1
1
1
1
1
1
1
1
1
1
1
1
1
1
1
1
1
1
1
1
1
1
1
1
1
1
1
1
1
1
1
1
1
1
1
1
1
1
1
1
1
1
1
1
1
1
1
1
1
1
1
1
1
1
1
1
1
1
1
1
1
1
1
1
1
1
1
1
1
1
1
1
1
1
1
1
1
1
1
1
1
1
1
1
1
1
1
1
1
1
1
1
1
1
1
1
1
1
1
1
1
1
1
1
1
1
1
1
1
1
1
1
1
1
1
1
1
1
1
1
1
1
1
1
1
1
1
1
1
1
1
1
1
1
1
1
1
1
1
1
1
1
1
1
1
1
1
1
1
1
1
1
1
1
1
1
1
1
1
1
1
1
1
1
1
1
1
1
1
1
1
1
1
1
1
1
1
1
1
1
1
1
1
1
1
1
1
1
1
1
1
1
1
1
1
1
1
1
1
1
1
1
1
1
1
1
1
1
1
1
1
1
1
1
1
1
1
1
1
1
1
1
1
1
1
1
1
1
1
1
1
1
1
1
1
1
1
1
1
1
1
1
1
1
1
1
1
1
1
1
1
1
1
1
1
1
1
1
1
1
1
1
1
1
1
1
1
1
1
1
1
1
1
1
1
1
1
1
1
1
1
1
1
1
1
1
1
1
1
1
1
1
1
1
1
1
1
1
1
1
1
1
1
1
1
1
1
1
1
1
1
1
1
1
1
1
1
1
1
1
1
1
1
1
1
1
1
1
1
1
1
1
1
1
1
1
1
1
1
1
1
1
1
1
1
1
1
1
1
1
1
1
1
1
1
1
1
1
1
1
1
1
1
1
1
1
1
1
1
1
1
1
1
1
1
1
1
1
1
1
1
1
1
1
1
1
1
1
1
1
1
1
1
1
1
1
1
1
1
1
1
1
1
1
1
1
1
1
1
1
1
1
1
1
1
1
1
1
1
1
1
1
1
1
1
1
1
1
1
1
1
1
1
1
1
1
1
1
1
1
1
1
1
1
1
1
1
1
1
1
1
1
1
1
1
1
1
1
1
1
1
1
1
1
1
1
1
1
1
1
1
1
1
1
1
1
1
1
1
1
1
1
1
1
1
1
1
1
1
1
1
1
1
1
1
1
1
1
1
1
1
1
1
1
1
1
1
1
1
1
1
1
1
1
1
1
1
1
1
1
1
1
1
1
1
1
1
1
1
1
1
1
1
1
1
1
1
1
1
1
1
1
1
1
1
1
1
1
1
1
1
1
0.999966
1
1
1
1
1
1
1
1
1
1
1
1
1
1
0.998142
0.999864
0.999996
1
1
1
1
1
1
1
1
1
1
1
1
1.10197
1.00057
0.999997
1
1
1
1
1
1
1
1
1
1
1
1
2.06922
1.07325
1.00047
0.999999
0.999999
1
1
1
1
1
1
1
1
1
1
3.32333
1.68212
1.04722
1.00054
1
1
1
1
1
1
1
1
1
1
1
3.25106
2.55612
1.36418
1.01908
1.00018
1
1
1
1
1
1
1
1
1
1
2.93016
2.86822
1.98103
1.15322
1.00528
1.00005
1
1
1
1
1
1
1
1
1
2.34047
2.81347
2.52679
1.54174
1.04845
1.00081
1
1
1
1
1
1
1
1
1
1.62275
2.46078
2.58449
2.08647
1.31021
1.037
1.00188
1.00005
1
1
1
1
1
1
1
1.24796
2.0245
2.50435
2.36851
1.68613
1.1079
1.00448
1.00009
1
1
1
1
1
1
1
0.997668
1.48337
2.16201
2.34697
2.14115
1.43794
1.04464
1.00114
1.00001
1
1
1
1
1
1
0.818944
1.18746
1.72701
2.24105
2.22178
1.8487
1.20591
1.01039
1.00014
1
1
1
1
1
1
0.681413
1.00916
1.33663
1.92539
2.19271
2.11148
1.54525
1.07839
1.0025
1.00003
1
1
1
1
1
0.599873
0.868883
1.12367
1.55363
2.04969
2.11051
1.85806
1.26576
1.01871
1.00032
1
1
1
1
1
0.569669
0.718004
0.948869
1.29826
1.79486
2.07658
2.02432
1.57294
1.09944
1.00382
1.00005
1
1
1
1
0.57732
0.67219
0.802716
1.0762
1.50168
1.94059
2.02023
1.82446
1.29229
1.02533
1.00052
1
1
1
1
0.579729
0.658228
0.743323
0.947392
1.24668
1.69094
1.97245
1.93514
1.56013
1.10892
1.00467
1.00006
1
1
1
0.560671
0.62358
0.693409
0.873966
1.072
1.44085
1.83813
1.9277
1.76789
1.28683
1.0269
1.00059
1.00001
1
1
0.523275
0.584436
0.679777
0.824829
0.943485
1.21233
1.6227
1.8868
1.85519
1.52071
1.10551
1.00484
1.00007
1
1
0.489175
0.54617
0.666258
0.775452
0.871413
1.07576
1.38647
1.76503
1.84928
1.70553
1.2651
1.02482
1.00055
1.00001
1
0.47347
0.534393
0.635382
0.707084
0.799554
0.999562
1.22085
1.57892
1.81468
1.78747
1.47312
1.0958
1.0045
1.00006
1
0.465334
0.530863
0.609401
0.651603
0.717015
0.909541
1.08613
1.38439
1.71923
1.78382
1.6393
1.23266
1.02125
1.00048
1
0.459455
0.517145
0.583881
0.620421
0.702513
0.844428
0.976032
1.21854
1.55477
1.75642
1.72714
1.42468
1.07999
1.0034
1.00005
0.477772
0.485985
0.548567
0.602927
0.702775
0.793898
0.890403
1.10024
1.38072
1.67674
1.72375
1.56808
1.1981
1.01833
1.00042
0.568852
0.487044
0.515568
0.586499
0.68591
0.743349
0.813883
1.00816
1.22889
1.53794
1.70319
1.66745
1.37279
1.06233
1.00249
0.751498
0.524943
0.520066
0.572692
0.657451
0.699974
0.765047
0.928474
1.10046
1.38316
1.64482
1.66665
1.51003
1.16472
1.01418
0.886983
0.641865
0.534609
0.56066
0.622373
0.660827
0.738143
0.878392
0.996956
1.23028
1.52917
1.65442
1.59779
1.31541
1.05176
0.936509
0.788795
0.578827
0.546234
0.571024
0.631219
0.729501
0.834079
0.921854
1.12255
1.39606
1.61725
1.61404
1.44444
1.13682
0.952538
0.910426
0.746657
0.578703
0.571394
0.610607
0.696661
0.762382
0.832086
0.998161
1.19579
1.46535
1.59195
1.54837
1.38776
0.879281
0.779668
0.627628
0.543278
0.528987
0.531848
0.526561
0.508294
0.486901
0.444629
0.435073
0.42438
0.428506
0.461573
0.619936
0.84004
0.882056
0.932309
0.968643
0.961591
0.693631
0.623754
0.499752
0.469398
0.477756
0.484186
0.47846
0.468294
0.447973
0.418759
0.402638
0.404844
0.443719
0.62136
0.838959
0.942253
0.917161
0.928219
0.961059
0.965358
0.530895
0.495949
0.432961
0.425859
0.431701
0.432713
0.432317
0.423444
0.405261
0.382217
0.384438
0.438448
0.625883
0.854641
0.92865
0.952597
0.942671
0.932421
0.952502
0.964933
0.399602
0.393179
0.376302
0.380184
0.386965
0.383212
0.384421
0.379979
0.366072
0.367227
0.446145
0.656247
0.848773
0.94533
0.937835
0.948045
0.946731
0.937259
0.94556
0.962441
0.307203
0.319331
0.33022
0.343529
0.338195
0.33235
0.33955
0.334054
0.359272
0.478229
0.693245
0.869465
0.91962
0.944684
0.937686
0.943961
0.951251
0.94928
0.950277
0.960328
0.242643
0.256398
0.270114
0.298053
0.305281
0.293414
0.311602
0.406063
0.599149
0.77743
0.88606
0.918322
0.930426
0.934085
0.932376
0.941743
0.952393
0.953061
0.954124
0.960295
0.19315
0.210441
0.227972
0.242632
0.264436
0.334084
0.532683
0.733545
0.817292
0.879954
0.92713
0.928887
0.928376
0.927754
0.931584
0.944291
0.958654
0.961525
0.962073
0.961569
0.137502
0.159966
0.243905
0.351416
0.53285
0.678596
0.761326
0.84325
0.888798
0.914316
0.928299
0.932893
0.932938
0.933651
0.939071
0.95223
0.963445
0.965528
0.96498
0.961907
0.279489
0.411484
0.557225
0.70549
0.757819
0.811347
0.836553
0.866781
0.898807
0.922864
0.936454
0.938276
0.932554
0.935738
0.95021
0.961342
0.964611
0.965265
0.960846
0.958061
0.555514
0.634702
0.719625
0.822299
0.816865
0.835552
0.836946
0.86709
0.900304
0.919533
0.922938
0.923431
0.928234
0.948326
0.96695
0.966927
0.960155
0.955719
0.951645
0.957457
)
;

boundaryField
{
    inlet
    {
        type            fixedValue;
        value           uniform 1;
    }
    outlet
    {
        type            zeroGradient;
    }
    airfoil
    {
        type            zeroGradient;
    }
    top
    {
        type            symmetryPlane;
    }
    bottom
    {
        type            symmetryPlane;
    }
    defaultFaces
    {
        type            empty;
    }
}


// ************************************************************************* //
