/*--------------------------------*- C++ -*----------------------------------*\
  =========                 |
  \\      /  F ield         | OpenFOAM: The Open Source CFD Toolbox
   \\    /   O peration     | Website:  https://openfoam.org
    \\  /    A nd           | Version:  7
     \\/     M anipulation  |
\*---------------------------------------------------------------------------*/
FoamFile
{
    version     2.0;
    format      ascii;
    class       volScalarField;
    location    "7.4";
    object      rho;
}
// * * * * * * * * * * * * * * * * * * * * * * * * * * * * * * * * * * * * * //

dimensions      [1 -3 0 0 0 0 0];

internalField   nonuniform List<scalar> 
3700
(
0.286995
0.375985
0.451523
0.509948
0.501392
0.513653
0.520907
0.523949
0.552636
0.575733
0.618815
0.643422
0.645607
0.663826
0.679707
0.704304
0.707881
0.699628
0.735711
0.735382
0.198477
0.157745
0.163751
0.156126
0.151527
0.161976
0.174551
0.189497
0.214566
0.229569
0.24629
0.245908
0.226794
0.225396
0.238959
0.257758
0.259402
0.25936
0.276111
0.291395
0.18841
0.134945
0.106824
0.0733101
0.0659178
0.0717437
0.080541
0.0976255
0.113137
0.113285
0.111875
0.110941
0.110159
0.112307
0.118956
0.132286
0.147546
0.162593
0.177279
0.189637
0.170364
0.124503
0.0948289
0.0621552
0.058579
0.065641
0.0779647
0.102311
0.120855
0.14051
0.161458
0.16543
0.169749
0.170608
0.171645
0.173976
0.180517
0.195548
0.216925
0.255264
0.143174
0.113831
0.0849171
0.0577218
0.0561124
0.0636469
0.076308
0.0978223
0.1162
0.140986
0.173498
0.19265
0.212504
0.227036
0.238438
0.238213
0.232881
0.234713
0.245501
0.298066
0.121174
0.102517
0.0698396
0.0560946
0.0563704
0.0684362
0.0873289
0.101369
0.115396
0.136278
0.168394
0.197826
0.233792
0.268187
0.296083
0.322108
0.336464
0.350805
0.352866
0.385878
0.100836
0.0810579
0.054273
0.056555
0.0678947
0.0948382
0.120831
0.135668
0.148237
0.160941
0.172344
0.195341
0.23999
0.288243
0.332206
0.382072
0.428502
0.474499
0.503458
0.554716
0.0780428
0.0608758
0.0466662
0.0578707
0.0779274
0.111191
0.144704
0.175555
0.213663
0.243916
0.246404
0.261152
0.28
0.319874
0.371256
0.436575
0.510222
0.592473
0.660533
0.781401
0.056298
0.0457216
0.0448971
0.0606393
0.081049
0.113837
0.148169
0.186696
0.257065
0.316967
0.360087
0.399928
0.436105
0.480445
0.513654
0.560774
0.624041
0.736953
0.84063
1.0473
0.0404222
0.0341536
0.0430107
0.0618742
0.0821961
0.112886
0.140229
0.179083
0.261055
0.354748
0.438087
0.511827
0.60103
0.676459
0.745138
0.816886
0.886467
0.978028
1.11541
1.33452
0.0309305
0.0274105
0.0384829
0.0602916
0.0920744
0.13745
0.155339
0.193576
0.261991
0.365413
0.494884
0.615074
0.756547
0.867563
0.993818
1.12255
1.25014
1.35865
1.58917
1.56248
0.0257774
0.0245369
0.0370716
0.0639402
0.119457
0.197603
0.242936
0.338065
0.457715
0.57266
0.706931
0.843486
0.994601
1.12961
1.28978
1.49282
1.70458
1.886
2.16449
2.08722
0.0219838
0.0238266
0.0470958
0.0958936
0.178802
0.290346
0.397537
0.564574
0.765643
0.978668
1.15559
1.31764
1.47645
1.6239
1.79289
2.02437
2.3024
2.57049
2.93991
2.91978
0.0202261
0.0284765
0.0689925
0.148608
0.242088
0.359301
0.536451
0.762
1.04864
1.37592
1.63112
1.87588
2.10521
2.3344
2.61086
2.92241
3.23797
3.59111
3.90413
4.16875
0.0190224
0.0378277
0.0946895
0.181969
0.294981
0.422026
0.711154
1.06516
1.51286
1.95536
2.32149
2.65223
2.97324
3.31333
3.73958
4.13768
4.51954
4.88362
5.10849
5.26889
0.0123551
0.0486626
0.125613
0.191667
0.430229
0.908813
1.43045
2.00797
2.67579
3.23033
3.6374
3.99504
4.35198
4.75904
5.20978
5.49055
5.66298
5.73495
5.6102
5.44023
0.00817917
0.0565618
0.229584
0.486615
1.13308
2.04782
2.85736
3.65567
4.46524
4.99138
5.29949
5.59623
5.85709
6.07302
6.21521
6.11382
5.81508
5.07701
3.88764
2.63609
0.0543859
0.242702
0.665824
1.67851
2.99259
4.01074
4.9037
5.85833
6.64947
6.71389
6.61316
6.58207
6.51125
6.27035
5.5757
4.26426
2.92116
1.86604
1.42612
1.39012
0.422662
1.18766
2.76319
4.37973
5.80724
6.75686
7.55822
8.16095
7.95933
7.34092
6.7531
6.01112
4.73975
3.25447
1.9974
1.44169
1.38523
1.39295
1.39627
1.39922
3.21909
5.05078
6.75472
7.89987
8.7011
8.92456
9.10515
8.65024
6.29768
4.44761
3.28865
2.17718
1.51129
1.38229
1.39005
1.39486
1.39887
1.39997
1.40003
1.40002
9.63582
9.56237
9.50694
9.57792
9.727
9.39317
8.32433
3.25217
0.910943
1.40001
1.40001
1.40001
1.40001
1.40001
1.40001
1.40001
1.40001
1.40001
1.40001
1.40001
9.63729
9.54453
9.42513
9.34256
9.28899
7.9901
3.76723
1.44628
1.40001
1.40001
1.40001
1.40001
1.40001
1.40001
1.40001
1.40001
1.40001
1.40001
1.40001
1.40001
9.41949
9.48307
9.47446
9.3103
8.74573
4.70929
1.45113
1.39885
1.40001
1.40001
1.40001
1.40001
1.40001
1.40001
1.40001
1.40001
1.40001
1.40001
1.40001
1.40001
9.23518
9.41811
9.46173
9.25034
6.52496
1.92495
1.39193
1.40017
1.4
1.40001
1.40001
1.40001
1.40001
1.40001
1.40001
1.40001
1.40001
1.40001
1.40001
1.40001
9.09504
9.40616
9.41703
8.36556
3.74607
1.36656
1.40049
1.4
1.40001
1.40001
1.40001
1.40001
1.40001
1.40001
1.40001
1.40001
1.40001
1.40001
1.40001
1.40001
8.97515
9.46209
9.39183
6.8663
2.08879
1.40001
1.40001
1.40001
1.40001
1.40001
1.40001
1.40001
1.40001
1.40001
1.40001
1.40001
1.40001
1.40001
1.40001
1.40001
8.89283
9.34504
9.3526
4.95034
1.36239
1.40001
1.40001
1.40001
1.40001
1.40001
1.40001
1.40001
1.40001
1.40001
1.40001
1.40001
1.40001
1.40001
1.40001
1.40001
8.9637
9.18144
8.33702
2.84838
1.4
1.40001
1.40001
1.40001
1.40001
1.40001
1.40001
1.40001
1.40001
1.40001
1.40001
1.40001
1.40001
1.40001
1.40001
1.40001
9.67037
9.20168
6.7636
1.69442
1.4
1.40001
1.40001
1.40001
1.40001
1.40001
1.40001
1.40001
1.40001
1.40001
1.40001
1.40001
1.40001
1.40001
1.40001
1.40001
10.1076
8.90658
4.74078
1.38319
1.40001
1.40001
1.40001
1.40001
1.40001
1.40001
1.40001
1.40001
1.40001
1.40001
1.40001
1.40001
1.40001
1.40001
1.40001
1.40001
10.3145
8.26147
3.21402
1.40001
1.40001
1.40001
1.40001
1.40001
1.40001
1.40001
1.40001
1.40001
1.40001
1.40001
1.40001
1.40001
1.40001
1.40001
1.40001
1.40001
10.3974
7.48874
2.2424
1.40001
1.40001
1.40001
1.40001
1.40001
1.40001
1.40001
1.40001
1.40001
1.40001
1.40001
1.40001
1.40001
1.40001
1.40001
1.40001
1.40001
10.421
6.62057
1.64977
1.40001
1.40001
1.40001
1.40001
1.40001
1.40001
1.40001
1.40001
1.40001
1.40001
1.40001
1.40001
1.40001
1.40001
1.40001
1.40001
1.40001
10.1798
5.60582
1.42938
1.40001
1.40001
1.40001
1.40001
1.40001
1.40001
1.40001
1.40001
1.40001
1.40001
1.40001
1.40001
1.40001
1.40001
1.40001
1.40001
1.40001
10.0345
4.44963
1.40001
1.40001
1.40001
1.40001
1.40001
1.40001
1.40001
1.40001
1.40001
1.40001
1.40001
1.40001
1.40001
1.40001
1.40001
1.40001
1.40001
1.40001
9.645
3.43982
1.40001
1.40001
1.40001
1.40001
1.40001
1.40001
1.40001
1.40001
1.40001
1.40001
1.40001
1.40001
1.40001
1.40001
1.40001
1.40001
1.40001
1.40001
9.17131
2.64627
1.40001
1.40001
1.40001
1.40001
1.40001
1.40001
1.40001
1.40001
1.40001
1.40001
1.40001
1.40001
1.40001
1.40001
1.40001
1.40001
1.40001
1.40001
8.81987
1.93203
1.40001
1.40001
1.40001
1.40001
1.40001
1.40001
1.40001
1.40001
1.40001
1.40001
1.40001
1.40001
1.40001
1.40001
1.40001
1.40001
1.40001
1.40001
7.92469
1.40883
1.40001
1.40001
1.40001
1.40001
1.40001
1.40001
1.40001
1.40001
1.40001
1.40001
1.40001
1.40001
1.40001
1.40001
1.40001
1.40001
1.40001
1.40001
6.43928
1.40009
1.40001
1.40001
1.40001
1.40001
1.40001
1.40001
1.40001
1.40001
1.40001
1.40001
1.40001
1.40001
1.40001
1.40001
1.40001
1.40001
1.40001
1.40001
6.44288
1.40009
1.40001
1.40001
1.40001
1.40001
1.40001
1.40001
1.40001
1.40001
1.40001
1.40001
1.40001
1.40001
1.40001
1.40001
1.40001
1.40001
1.40001
1.40001
7.8986
1.4087
1.40001
1.40001
1.40001
1.40001
1.40001
1.40001
1.40001
1.40001
1.40001
1.40001
1.40001
1.40001
1.40001
1.40001
1.40001
1.40001
1.40001
1.40001
8.8348
1.93347
1.40001
1.40001
1.40001
1.40001
1.40001
1.40001
1.40001
1.40001
1.40001
1.40001
1.40001
1.40001
1.40001
1.40001
1.40001
1.40001
1.40001
1.40001
9.18379
2.66875
1.40001
1.40001
1.40001
1.40001
1.40001
1.40001
1.40001
1.40001
1.40001
1.40001
1.40001
1.40001
1.40001
1.40001
1.40001
1.40001
1.40001
1.40001
9.60279
3.44563
1.40001
1.40001
1.40001
1.40001
1.40001
1.40001
1.40001
1.40001
1.40001
1.40001
1.40001
1.40001
1.40001
1.40001
1.40001
1.40001
1.40001
1.40001
10.0623
4.42231
1.40001
1.40001
1.40001
1.40001
1.40001
1.40001
1.40001
1.40001
1.40001
1.40001
1.40001
1.40001
1.40001
1.40001
1.40001
1.40001
1.40001
1.40001
10.188
5.59855
1.42835
1.40001
1.40001
1.40001
1.40001
1.40001
1.40001
1.40001
1.40001
1.40001
1.40001
1.40001
1.40001
1.40001
1.40001
1.40001
1.40001
1.40001
10.4074
6.61644
1.65343
1.40001
1.40001
1.40001
1.40001
1.40001
1.40001
1.40001
1.40001
1.40001
1.40001
1.40001
1.40001
1.40001
1.40001
1.40001
1.40001
1.40001
10.3867
7.50666
2.2457
1.40001
1.40001
1.40001
1.40001
1.40001
1.40001
1.40001
1.40001
1.40001
1.40001
1.40001
1.40001
1.40001
1.40001
1.40001
1.40001
1.40001
10.3054
8.26122
3.22812
1.40001
1.40001
1.40001
1.40001
1.40001
1.40001
1.40001
1.40001
1.40001
1.40001
1.40001
1.40001
1.40001
1.40001
1.40001
1.40001
1.40001
10.1014
8.89486
4.75024
1.38329
1.40001
1.40001
1.40001
1.40001
1.40001
1.40001
1.40001
1.40001
1.40001
1.40001
1.40001
1.40001
1.40001
1.40001
1.40001
1.40001
9.68566
9.22838
6.76796
1.67946
1.40001
1.40001
1.40001
1.40001
1.40001
1.40001
1.40001
1.40001
1.40001
1.40001
1.40001
1.40001
1.40001
1.40001
1.40001
1.40001
8.95353
9.17213
8.3311
2.86065
1.4
1.40001
1.40001
1.40001
1.40001
1.40001
1.40001
1.40001
1.40001
1.40001
1.40001
1.40001
1.40001
1.40001
1.40001
1.40001
8.86947
9.29985
9.34685
4.94295
1.36238
1.40001
1.40001
1.40001
1.40001
1.40001
1.40001
1.40001
1.40001
1.40001
1.40001
1.40001
1.40001
1.40001
1.40001
1.40001
8.96757
9.47176
9.40937
6.89143
2.0778
1.40001
1.40001
1.40001
1.40001
1.40001
1.40001
1.40001
1.40001
1.40001
1.40001
1.40001
1.40001
1.40001
1.40001
1.40001
9.10681
9.4335
9.42036
8.33714
3.77917
1.3661
1.40049
1.4
1.40001
1.40001
1.40001
1.40001
1.40001
1.40001
1.40001
1.40001
1.40001
1.40001
1.40001
1.40001
9.24956
9.43274
9.46286
9.22869
6.51651
1.91946
1.3923
1.40016
1.4
1.40001
1.40001
1.40001
1.40001
1.40001
1.40001
1.40001
1.40001
1.40001
1.40001
1.40001
9.41813
9.47855
9.47894
9.32308
8.79239
4.67561
1.44334
1.39908
1.40001
1.40001
1.40001
1.40001
1.40001
1.40001
1.40001
1.40001
1.40001
1.40001
1.40001
1.40001
9.63569
9.54795
9.44308
9.34205
9.27386
7.99376
3.7604
1.44657
1.40001
1.40001
1.40001
1.40001
1.40001
1.40001
1.40001
1.40001
1.40001
1.40001
1.40001
1.40001
9.64011
9.56932
9.51823
9.56217
9.69267
9.38453
8.33351
3.29692
0.900491
1.40001
1.40001
1.40001
1.40001
1.40001
1.40001
1.40001
1.40001
1.40001
1.40001
1.40001
3.2228
5.05006
6.76386
7.89753
8.67974
8.91834
9.0971
8.65527
6.30258
4.44888
3.2855
2.17153
1.50857
1.38206
1.38997
1.39482
1.39886
1.39997
1.40003
1.40002
0.421278
1.21483
2.78148
4.39445
5.81113
6.75434
7.55276
8.1579
7.9557
7.33696
6.74952
6.00926
4.73921
3.25649
1.99927
1.44231
1.38523
1.39294
1.39627
1.39922
0.0469228
0.184561
0.663804
1.67314
2.99153
4.01794
4.91163
5.8633
6.64698
6.71247
6.61757
6.59118
6.52106
6.27496
5.57387
4.26202
2.9215
1.86716
1.42642
1.3901
0.0188487
0.0694405
0.192227
0.480659
1.12975
2.04575
2.85647
3.65707
4.46491
4.98865
5.30585
5.60758
5.86694
6.07444
6.21191
6.1107
5.81264
5.07644
3.88873
2.6381
0.0257114
0.0628579
0.11636
0.180871
0.415775
0.899099
1.42634
1.9998
2.666
3.22099
3.6369
4.0007
4.35652
4.75927
5.20711
5.48598
5.65819
5.73312
5.60919
5.44074
0.0270427
0.0487935
0.0909565
0.176311
0.298397
0.415532
0.701883
1.05689
1.5069
1.95126
2.32206
2.65533
2.97555
3.31433
3.73917
4.13642
4.51683
4.8807
5.10681
5.2686
0.0252702
0.0339036
0.0646356
0.147867
0.249364
0.359442
0.534119
0.760128
1.04644
1.37576
1.63257
1.87745
2.10637
2.3357
2.6122
2.92267
3.23643
3.58792
3.90141
4.16838
0.0237757
0.0269454
0.0479969
0.0984588
0.185841
0.295325
0.401041
0.567057
0.765605
0.977847
1.15494
1.31701
1.47655
1.62497
1.7955
2.02682
2.30281
2.56982
2.93863
2.91952
0.0260854
0.0284872
0.0448762
0.0691981
0.121503
0.205309
0.247454
0.341009
0.460355
0.572729
0.706106
0.842732
0.995356
1.13187
1.2929
1.49516
1.70494
1.88517
2.16471
2.08719
0.0325866
0.0326338
0.0477293
0.0624597
0.0883595
0.14146
0.156596
0.19334
0.262751
0.368215
0.49688
0.616405
0.758208
0.869314
0.994929
1.12248
1.24945
1.35786
1.58916
1.56444
0.0425043
0.0376725
0.0507856
0.0629914
0.0787674
0.113838
0.142079
0.180407
0.261823
0.355453
0.438549
0.512631
0.601923
0.677078
0.744744
0.815865
0.885791
0.979228
1.11573
1.33629
0.0567658
0.0456369
0.0506174
0.0624876
0.0788033
0.114786
0.150444
0.187471
0.256493
0.316032
0.359107
0.399437
0.435429
0.479302
0.512278
0.559936
0.624183
0.738433
0.841613
1.04689
0.076992
0.0608064
0.0490776
0.0601103
0.0759961
0.111707
0.146424
0.175018
0.21084
0.240027
0.243483
0.258793
0.277792
0.318426
0.370879
0.437277
0.510864
0.592372
0.660063
0.779764
0.102728
0.0811244
0.0540489
0.0582404
0.066109
0.0943372
0.121104
0.132621
0.144097
0.156819
0.169739
0.193614
0.239357
0.289079
0.333157
0.382717
0.428493
0.473631
0.502474
0.554319
0.129724
0.103106
0.0682933
0.0550605
0.0541712
0.0671024
0.0864358
0.0987651
0.113688
0.134288
0.16597
0.196557
0.234665
0.269536
0.296934
0.322105
0.335991
0.350289
0.352558
0.386149
0.143969
0.110926
0.0842003
0.0560693
0.0539721
0.0610582
0.075696
0.0957108
0.115316
0.139121
0.172084
0.19301
0.213646
0.227799
0.238739
0.237611
0.232493
0.234559
0.245819
0.299243
0.153904
0.116957
0.0954098
0.0605893
0.0558934
0.0625411
0.077715
0.100003
0.120118
0.140557
0.162692
0.166188
0.169518
0.169785
0.170987
0.173726
0.180673
0.196231
0.217983
0.256606
0.165258
0.126326
0.103877
0.0713145
0.0613082
0.0668396
0.0788754
0.0963912
0.112108
0.117124
0.11333
0.111284
0.109944
0.111901
0.118851
0.133009
0.148782
0.164046
0.178712
0.19059
0.183415
0.149863
0.133192
0.112097
0.113535
0.117754
0.128959
0.157047
0.190313
0.20485
0.212284
0.224347
0.235719
0.240851
0.234991
0.239818
0.263228
0.298545
0.333719
0.32145
0.281469
0.39563
0.43005
0.445399
0.455496
0.466436
0.47497
0.497022
0.541677
0.569102
0.613716
0.648493
0.659545
0.677234
0.677293
0.698105
0.725564
0.731237
0.745727
0.733849
0.780405
0.877952
0.986823
1.13259
1.1266
1.14828
1.16129
1.19622
1.24927
1.29329
1.30038
1.29993
1.29821
1.32213
1.34218
1.33328
1.31636
1.31319
1.31836
1.32941
0.417985
0.583962
0.734124
0.945645
1.05211
1.14927
1.1511
1.17736
1.23079
1.2791
1.29465
1.30017
1.29694
1.30737
1.32724
1.33694
1.33428
1.32938
1.32055
1.32219
0.193226
0.225734
0.306127
0.436582
0.73979
0.973373
1.05987
1.15704
1.23482
1.28194
1.29635
1.30104
1.29884
1.29802
1.30769
1.32852
1.34068
1.34157
1.33487
1.32793
0.270397
0.29511
0.329617
0.342509
0.37602
0.502866
0.788212
1.02328
1.14391
1.23596
1.29758
1.29749
1.29916
1.29625
1.30422
1.32413
1.34232
1.34429
1.33973
1.33283
0.33954
0.35919
0.375236
0.414848
0.425826
0.410956
0.44934
0.581518
0.836737
1.07996
1.23489
1.2837
1.30773
1.30192
1.30125
1.32082
1.34282
1.34201
1.33722
1.33776
0.432647
0.446991
0.456787
0.476304
0.475676
0.47068
0.481308
0.469506
0.50056
0.660863
0.963494
1.20667
1.29547
1.30808
1.29912
1.31567
1.33851
1.33663
1.33129
1.34225
0.560509
0.550662
0.52249
0.52747
0.540311
0.53605
0.534086
0.52822
0.508042
0.511122
0.620251
0.908119
1.19359
1.31048
1.29545
1.30791
1.31448
1.30853
1.3208
1.34296
0.74137
0.695732
0.604442
0.588674
0.598229
0.603637
0.60273
0.58917
0.563867
0.535152
0.538272
0.612227
0.864773
1.20582
1.27076
1.31144
1.29959
1.29927
1.32375
1.34723
0.961508
0.871648
0.697422
0.663661
0.664123
0.668491
0.661666
0.644034
0.615125
0.583433
0.555362
0.560293
0.614798
0.865862
1.16871
1.30287
1.27977
1.29198
1.34025
1.34931
1.21985
1.08706
0.876139
0.757325
0.732738
0.735603
0.727951
0.700033
0.676677
0.636768
0.614089
0.590939
0.597289
0.641029
0.864825
1.1812
1.2337
1.2976
1.35378
1.34393
1.74805
1.37776
1.15223
0.961106
0.833347
0.790209
0.804966
0.810609
0.785435
0.746186
0.702973
0.669181
0.655217
0.644433
0.668213
0.796
1.04451
1.2355
1.30798
1.32948
2.82193
2.05385
1.65893
1.42246
1.21725
0.990398
0.939007
0.916911
0.866888
0.811362
0.775255
0.750321
0.742086
0.727188
0.685317
0.683262
0.734554
0.894285
1.09796
1.26919
3.48371
3.01639
2.39277
1.86296
1.57741
1.31892
1.12611
1.05101
0.962836
0.914422
0.915585
0.889966
0.851851
0.817882
0.77159
0.728584
0.733047
0.748892
0.806317
1.03818
3.29945
3.26789
3.11989
2.67848
2.16378
1.80835
1.4868
1.33986
1.23128
1.13401
1.06801
0.989716
0.910415
0.865194
0.850323
0.825743
0.797858
0.779789
0.763865
0.80924
2.35395
2.98874
3.09509
3.05289
2.85307
2.50509
2.08147
1.73207
1.51026
1.32433
1.21064
1.12017
1.00265
0.972804
0.974858
0.956948
0.918971
0.871424
0.803415
0.799205
1.55004
2.01074
2.58204
2.94579
2.94227
2.89442
2.70859
2.35228
2.00608
1.7003
1.49864
1.39658
1.27385
1.18597
1.10951
1.03324
0.977164
0.925695
0.882949
0.849022
1.40625
1.46227
1.6877
2.16073
2.59483
2.82567
2.81947
2.75076
2.56332
2.26928
1.9357
1.69938
1.51948
1.36632
1.25173
1.13769
1.06689
1.03077
1.02134
0.97857
1.40013
1.40159
1.41454
1.50961
1.77053
2.19899
2.54917
2.7019
2.69081
2.63416
2.46573
2.20408
1.9354
1.69497
1.54028
1.42124
1.29893
1.22206
1.1638
1.06769
1.40001
1.40002
1.40021
1.40351
1.42611
1.5385
1.80786
2.18119
2.46995
2.59232
2.58335
2.53481
2.40097
2.17168
1.92869
1.72158
1.54102
1.39016
1.28279
1.16164
1.40001
1.40001
1.40001
1.40004
1.40046
1.40532
1.43534
1.55208
1.80006
2.12589
2.38462
2.49751
2.49181
2.45415
2.34329
2.14817
1.93483
1.7243
1.56934
1.3927
1.40001
1.40001
1.40001
1.40001
1.40001
1.40007
1.40073
1.40653
1.4375
1.54706
1.77014
2.05841
2.2919
2.41442
2.40916
2.38017
2.29964
2.13919
1.95225
1.67099
1.40001
1.40001
1.40001
1.40001
1.40001
1.40001
1.40001
1.40009
1.40082
1.4068
1.43435
1.53421
1.72421
1.99308
2.19131
2.33073
2.3299
2.31361
2.2615
2.04839
1.40001
1.40001
1.40001
1.40001
1.40001
1.40001
1.40001
1.40001
1.40001
1.4001
1.40075
1.40642
1.42945
1.51164
1.6772
1.92012
2.11071
2.23405
2.25654
2.2253
1.40001
1.40001
1.40001
1.40001
1.40001
1.40001
1.40001
1.40001
1.40001
1.40001
1.40001
1.40009
1.40067
1.40475
1.42571
1.48707
1.62923
1.84036
2.02032
2.16448
1.40001
1.40001
1.40001
1.40001
1.40001
1.40001
1.40001
1.40001
1.40001
1.40001
1.40001
1.40001
1.40001
1.40007
1.4006
1.40349
1.41972
1.47229
1.59129
1.94109
2.25649
3.42295
3.59659
2.90913
1.83174
1.45157
1.40262
1.40007
1.40001
1.40001
1.40001
1.40001
1.40001
1.40001
1.40001
3.25487
3.91289
3.51947
2.15395
1.46753
1.40113
1.40001
1.4
1.40001
1.40001
1.40001
1.40001
1.40001
1.40001
1.40001
4.07258
3.9898
2.76355
1.61341
1.40737
1.40008
1.40001
1.40001
1.40001
1.40001
1.40001
1.40001
1.40001
1.40001
1.40001
4.51867
3.56024
1.90681
1.4266
1.40025
1.40001
1.40001
1.40001
1.40001
1.40001
1.40001
1.40001
1.40001
1.40001
1.40001
4.62225
2.34828
1.4658
1.40076
1.40001
1.40001
1.40001
1.40001
1.40001
1.40001
1.40001
1.40001
1.40001
1.40001
1.40001
2.88449
1.5019
1.40066
1.4
1.4
1.4
1.40001
1.40001
1.40001
1.40001
1.40001
1.40001
1.40001
1.40001
1.40001
1.54166
1.40079
1.4
1.4
1.40001
1.40001
1.40001
1.40001
1.40001
1.40001
1.40001
1.40001
1.40001
1.40001
1.40001
1.39742
1.39982
1.4
1.4
1.40001
1.40001
1.40001
1.40001
1.40001
1.40001
1.40001
1.40001
1.40001
1.40001
1.40001
1.39996
1.40001
1.40001
1.40001
1.40001
1.40001
1.40001
1.40001
1.40001
1.40001
1.40001
1.40001
1.40001
1.40001
1.40001
1.40001
1.40001
1.40001
1.40001
1.40001
1.40001
1.40001
1.40001
1.40001
1.40001
1.40001
1.40001
1.40001
1.40001
1.40001
1.40001
1.40001
1.40001
1.40001
1.40001
1.40001
1.40001
1.40001
1.40001
1.40001
1.40001
1.40001
1.40001
1.40001
1.40001
1.40001
1.40001
1.40001
1.40001
1.40001
1.40001
1.40001
1.40001
1.40001
1.40001
1.40001
1.40001
1.40001
1.40001
1.40001
1.40001
1.40001
1.40001
1.40001
1.40001
1.40001
1.40001
1.40001
1.40001
1.40001
1.40001
1.40001
1.40001
1.40001
1.40001
1.40001
1.40001
1.40001
1.40001
1.40001
1.40001
1.40001
1.40001
1.40001
1.40001
1.40001
1.40001
1.40001
1.40001
1.40001
1.40001
1.40001
1.40001
1.40001
1.40001
1.40001
1.40001
1.40001
1.40001
1.40001
1.40001
1.40001
1.40001
1.40001
1.40001
1.40001
1.40001
1.40001
1.40001
1.40001
1.40001
1.40001
1.40001
1.40001
1.40001
1.40001
1.40001
1.40001
1.40001
1.40001
1.40001
1.40001
1.40001
1.40001
1.40001
1.40001
1.40001
1.40001
1.40001
1.40001
1.40001
1.40001
1.40001
1.40001
1.40001
1.40001
1.40001
1.40001
1.40001
1.40001
1.40001
1.40001
1.40001
1.40001
1.40001
1.40001
1.40001
1.40001
1.40001
1.40001
1.40001
1.40001
1.40001
1.40001
1.40001
1.40001
1.40001
1.40001
1.40001
1.40001
1.40001
1.40001
1.40001
1.40001
1.40001
1.40001
1.40001
1.40001
1.40001
1.40001
1.40001
1.40001
1.40001
1.40001
1.40001
1.40001
1.40001
1.40001
1.40001
1.40001
1.40001
1.40001
1.40001
1.40001
1.40001
1.40001
1.40001
1.40001
1.40001
1.40001
1.40001
1.40001
1.40001
1.40001
1.40001
1.40001
1.40001
1.40001
1.40001
1.40001
1.40001
1.40001
1.40001
1.40001
1.40001
1.40001
1.40001
1.40001
1.40001
1.40001
1.40001
1.40001
1.40001
1.40001
1.40001
1.40001
1.40001
1.40001
1.40001
1.40001
1.40001
1.40001
1.40001
1.40001
1.40001
1.40001
1.40001
1.40001
1.40001
1.40001
1.40001
1.40001
1.40001
1.40001
1.40001
1.40001
1.40001
1.40001
1.40001
1.40001
1.40001
1.40001
1.40001
1.40001
1.40001
1.40001
1.40001
1.40001
1.40001
1.40001
1.40001
1.40001
1.40001
1.40001
1.40001
1.40001
1.40001
1.40001
1.40001
1.40001
1.40001
1.40001
1.40001
1.40001
1.40001
1.40001
1.40001
1.40001
1.40001
1.40001
1.40001
1.40001
1.40001
1.40001
1.40001
1.40001
1.40001
1.40001
1.40001
1.40001
1.40001
1.40001
1.40001
1.40001
1.40001
1.40001
1.40001
1.40001
1.40001
1.40001
1.40001
1.40001
1.40001
1.40001
1.40001
1.40001
1.40001
1.40001
1.40001
1.40001
1.40001
1.40001
1.40001
1.40001
1.40001
1.40001
1.40001
1.40001
1.40001
1.40001
1.40001
1.40001
1.40001
1.40001
1.40001
1.40001
1.40001
1.40001
1.40001
1.40001
1.40001
1.40001
1.40001
1.40001
1.40001
1.40001
1.40001
1.40001
1.40001
1.40001
1.40001
1.40001
1.40001
1.40001
1.40001
1.40001
1.40001
1.40001
1.40001
1.40001
1.40001
1.40001
1.40001
1.40001
1.40001
1.40001
1.40001
1.40001
1.40001
1.40001
1.40001
1.40001
1.40001
1.40001
1.40001
1.40001
1.40001
1.40001
1.40001
1.40001
1.40001
1.40001
1.40001
1.40001
1.40001
1.40001
1.40001
1.40001
1.40001
1.40001
1.40001
1.40001
1.40001
1.40001
1.40001
1.40001
1.40001
1.40001
1.40001
1.40001
1.40001
1.40001
1.40001
1.40001
1.40001
1.40001
1.40001
1.40001
1.40001
1.40001
1.40001
1.40001
1.40001
1.40001
1.40001
1.40001
1.40001
1.40001
1.40001
1.40001
1.40001
1.40001
1.40001
1.40001
1.40001
1.40001
1.40001
1.40001
1.40001
1.40001
1.40001
1.40001
1.40001
1.40001
1.40001
1.40001
1.40001
1.40001
1.40001
1.40001
1.40001
1.40001
1.40001
1.40001
1.40001
1.40001
1.40001
1.40001
1.40001
1.40001
1.40001
1.40001
1.40001
1.40001
1.40001
1.40001
1.40001
1.40001
1.40001
1.40001
1.40001
1.40001
1.40001
1.40001
1.40001
1.40001
1.40001
1.40001
1.40001
1.40001
1.40001
1.40001
1.40001
1.40001
1.40001
1.40001
1.40001
1.40001
1.40001
1.40001
1.40001
1.40001
1.40001
1.40001
1.40001
1.40001
1.40001
1.40001
1.40001
1.40001
1.40001
1.40001
1.40001
1.40001
1.40001
1.40001
1.40001
1.40001
1.40001
1.40001
1.40001
1.40001
1.40001
1.40001
1.40001
1.40001
1.40001
1.40001
1.40001
1.40001
1.40001
1.40001
1.40001
1.40001
1.40001
1.40001
1.40001
1.40001
1.40001
1.40001
1.40001
1.40001
1.40001
1.40001
1.40001
1.40001
1.40001
1.40001
1.40001
1.40001
1.40001
1.40001
1.40001
1.40001
1.40001
1.40001
1.40001
1.40001
1.40001
1.40001
1.40001
1.40001
1.40001
1.40001
1.40001
1.40001
1.40001
1.40001
1.40001
1.40001
1.40001
1.40001
1.40001
1.40001
1.40001
1.40001
1.40001
1.40001
1.40001
1.40001
1.40001
1.40001
1.40001
1.40001
1.40001
1.40001
1.40001
1.40001
1.40001
1.40001
1.40001
1.40001
1.40001
1.40001
1.40001
1.40001
1.40001
1.40001
1.40001
1.40001
1.40001
1.40001
1.40001
1.40001
1.40001
1.40001
1.40001
1.40001
1.40001
1.40001
1.40001
1.40001
1.40001
1.40001
1.40001
1.40001
1.40001
1.40001
1.40001
1.40001
1.40001
1.40001
1.40001
1.40001
1.40001
1.40001
1.40001
1.40001
1.40001
1.40001
1.40001
1.40001
1.40001
1.40001
1.40001
1.40001
1.40001
1.40001
1.40001
1.40001
1.40001
1.40001
1.40001
1.40001
1.40001
1.40001
1.40001
1.40001
1.40001
1.40001
1.40001
1.40001
1.40001
1.40001
1.40001
1.40001
1.40001
1.40001
1.40001
1.40001
1.40001
1.40001
1.40001
1.40001
1.40001
1.40001
1.40001
1.40001
1.40001
1.40001
1.40001
1.40001
1.40001
1.40001
1.40001
1.40001
1.40001
1.40001
1.40001
1.40001
1.40001
1.40001
1.40001
1.40001
1.40001
1.40001
1.40001
1.40001
1.40001
1.40001
1.40001
1.40001
1.40001
1.40001
1.40001
1.40001
1.40001
1.40001
1.40001
1.40001
1.40001
1.40001
1.40001
1.40001
1.40001
1.40001
1.40001
1.40001
1.40001
1.40001
1.40001
1.40001
1.40001
1.40001
1.40001
1.40001
1.40001
1.40001
1.40001
1.40001
1.40001
1.40001
1.40001
1.40001
1.40001
1.40001
1.40001
1.40001
1.40001
1.40001
1.40001
1.40001
1.40001
1.40001
1.40001
1.40001
1.40001
1.40001
1.40001
1.40001
1.40001
1.40001
1.40001
1.40001
1.40001
1.40001
1.40001
1.40001
1.40001
1.40001
1.40001
1.40001
1.40001
1.40001
1.40001
1.40001
1.40001
1.40001
1.40001
1.40001
1.40001
1.40001
1.40001
1.40001
1.40001
1.40001
1.40001
1.40001
1.40001
1.40001
1.40001
1.40001
1.40001
1.40001
1.40001
1.40001
1.40001
1.40001
1.40001
1.40001
1.40001
1.40001
1.40001
1.40001
1.40001
1.40001
1.40001
1.40001
1.40001
1.40001
1.40001
1.40001
1.40001
1.40001
1.40001
1.40001
1.40001
1.40001
1.40001
1.40001
1.40001
1.40001
1.40001
1.40001
1.40001
1.40001
1.40001
1.40001
1.40001
1.40001
1.40001
1.40001
1.40001
1.40001
1.40001
1.40001
1.40001
1.40001
1.40001
1.40001
1.40001
1.40001
1.40001
1.40001
1.40001
1.40001
1.40001
1.40001
1.40001
1.40001
1.40001
1.40001
1.40001
1.40001
1.40001
1.40001
1.40001
1.40001
1.40001
1.40001
1.40001
1.40001
1.40001
1.40001
1.40001
1.40001
1.40001
1.40001
1.40001
1.40001
1.40001
1.40001
1.40001
1.40001
1.40001
1.40001
1.40001
1.40001
1.40001
1.40001
1.40001
1.40001
1.40001
1.40001
1.40001
1.40001
1.40001
1.40001
1.40001
1.40001
1.40001
1.40001
1.40001
1.40001
1.40001
1.40001
1.40001
1.40001
1.40001
1.40001
1.40001
1.40001
1.40001
1.40001
1.40001
1.39996
1.40001
1.40001
1.40001
1.40001
1.40001
1.40001
1.40001
1.40001
1.40001
1.40001
1.40001
1.40001
1.40001
1.40001
1.39741
1.39982
1.4
1.4
1.40001
1.40001
1.40001
1.40001
1.40001
1.40001
1.40001
1.40001
1.40001
1.40001
1.40001
1.5421
1.40079
1.4
1.4
1.40001
1.40001
1.40001
1.40001
1.40001
1.40001
1.40001
1.40001
1.40001
1.40001
1.40001
2.8855
1.50198
1.40066
1.4
1.4
1.4
1.40001
1.40001
1.40001
1.40001
1.40001
1.40001
1.40001
1.40001
1.40001
4.62256
2.34832
1.46576
1.40076
1.40001
1.40001
1.40001
1.40001
1.40001
1.40001
1.40001
1.40001
1.40001
1.40001
1.40001
4.519
3.56018
1.9067
1.42659
1.40025
1.40001
1.40001
1.40001
1.40001
1.40001
1.40001
1.40001
1.40001
1.40001
1.40001
4.07353
3.99015
2.76312
1.61331
1.40737
1.40008
1.40001
1.40001
1.40001
1.40001
1.40001
1.40001
1.40001
1.40001
1.40001
3.25484
3.91297
3.51927
2.15374
1.46752
1.40113
1.40001
1.4
1.40001
1.40001
1.40001
1.40001
1.40001
1.40001
1.40001
2.25841
3.42279
3.59638
2.90896
1.8317
1.45155
1.40262
1.40007
1.40001
1.40001
1.40001
1.40001
1.40001
1.40001
1.40001
1.73796
2.81692
3.4849
3.29981
2.35469
1.5504
1.40626
1.40013
1.40001
1.40001
1.40001
1.40001
1.40001
1.40001
1.40001
1.39027
2.06552
3.0092
3.26791
2.98639
2.0102
1.46228
1.40159
1.40002
1.40001
1.40001
1.40001
1.40001
1.40001
1.40001
1.14182
1.65447
2.40485
3.12058
3.09669
2.58161
1.68718
1.4145
1.40021
1.40001
1.40001
1.40001
1.40001
1.40001
1.40001
0.950564
1.40666
1.86243
2.68172
3.05506
2.94618
2.16002
1.50938
1.4035
1.40004
1.40001
1.40001
1.40001
1.40001
1.40001
0.837183
1.21162
1.56636
2.16491
2.85607
2.94334
2.59528
1.7707
1.42612
1.40046
1.40001
1.40001
1.40001
1.40001
1.40001
0.795235
1.00178
1.32328
1.80987
2.50158
2.89519
2.82587
2.19886
1.53875
1.40533
1.40007
1.40001
1.40001
1.40001
1.40001
0.805911
0.938129
1.12002
1.50103
2.09376
2.70584
2.819
2.54892
1.80775
1.43536
1.40073
1.40001
1.40001
1.40001
1.40001
0.80929
0.918766
1.03746
1.32187
1.73901
2.35833
2.75183
2.70244
2.18113
1.55199
1.40652
1.40009
1.40001
1.40001
1.40001
0.782791
0.870579
0.968025
1.21974
1.49594
2.01026
2.56468
2.69127
2.47043
1.80016
1.43755
1.40083
1.40001
1.40001
1.40001
0.730754
0.816096
0.949059
1.15139
1.3171
1.69218
2.26463
2.63388
2.59166
2.12628
1.54723
1.40676
1.4001
1.40001
1.40001
0.683321
0.762821
0.930289
1.08272
1.21681
1.50205
1.93567
2.46412
2.58282
2.38371
1.76985
1.43464
1.40077
1.40001
1.40001
0.661521
0.746505
0.887384
0.987571
1.11676
1.39594
1.70499
2.20478
2.53438
2.49768
2.05995
1.53369
1.40629
1.40009
1.40001
0.650245
0.741681
0.851294
0.910352
1.00179
1.27056
1.51731
1.93375
2.40126
2.49211
2.2915
1.72461
1.42967
1.40067
1.40001
0.642107
0.72265
0.815831
0.86698
0.981679
1.1799
1.3639
1.70261
2.17201
2.45386
2.4138
1.99242
1.51163
1.40475
1.40007
0.667676
0.679252
0.766677
0.842668
0.982134
1.10957
1.24458
1.53772
1.92941
2.34273
2.40878
2.19227
1.67639
1.42558
1.40059
0.794578
0.680818
0.720728
0.819843
0.958714
1.03918
1.13793
1.40936
1.71774
2.1492
2.38009
2.33073
1.92005
1.48698
1.40348
1.04884
0.733684
0.727068
0.800678
0.91912
0.978774
1.06989
1.29827
1.53866
1.93341
2.29868
2.32939
2.11135
1.62982
1.4198
1.23732
0.896618
0.747449
0.783991
0.870297
0.924227
1.0324
1.22847
1.39432
1.72024
2.13741
2.31233
2.23367
1.84002
1.47224
1.30624
1.10127
0.809173
0.763968
0.798706
0.882967
1.0204
1.16671
1.28958
1.57
1.95182
2.2605
2.25619
2.01994
1.59091
1.32852
1.27053
1.04303
0.809335
0.79938
0.854317
0.97468
1.06674
1.16436
1.39647
1.67248
2.04865
2.22537
2.16475
1.94083
1.22566
1.0871
0.875588
0.758243
0.738432
0.742469
0.735142
0.709718
0.679947
0.62111
0.607894
0.593078
0.598839
0.644981
0.865486
1.17172
1.23014
1.29997
1.35048
1.34069
0.967484
0.870258
0.697642
0.655408
0.667076
0.676058
0.668105
0.653958
0.62568
0.585046
0.562694
0.565791
0.619983
0.867331
1.17001
1.31362
1.27873
1.29409
1.33972
1.34571
0.740974
0.692378
0.604682
0.594795
0.602937
0.60435
0.603797
0.591444
0.566149
0.534137
0.537266
0.612538
0.87346
1.19157
1.29448
1.32777
1.31398
1.29973
1.32763
1.34491
0.558105
0.549215
0.525758
0.531174
0.540624
0.535381
0.537055
0.530872
0.511543
0.513194
0.623151
0.91556
1.18322
1.31743
1.30702
1.32123
1.31939
1.30622
1.31775
1.34119
0.42931
0.446278
0.461507
0.48009