/*--------------------------------*- C++ -*----------------------------------*\
  =========                 |
  \\      /  F ield         | OpenFOAM: The Open Source CFD Toolbox
   \\    /   O peration     | Website:  https://openfoam.org
    \\  /    A nd           | Version:  7
     \\/     M anipulation  |
\*---------------------------------------------------------------------------*/
FoamFile
{
    version     2.0;
    format      ascii;
    class       volScalarField;
    location    "7.4";
    object      T;
}
// * * * * * * * * * * * * * * * * * * * * * * * * * * * * * * * * * * * * * //

dimensions      [0 0 0 1 0 0 0];

internalField   nonuniform List<scalar> 
3700
(
100.721
100.819
100.942
100.956
100.93
100.931
100.959
100.998
101.075
101.153
101.175
101.168
101.145
101.123
101.12
101.116
101.1
101.07
101.065
101.061
100.339
100.287
100.372
100.435
100.436
100.479
100.54
100.533
100.556
100.639
100.699
100.681
100.587
100.521
100.54
100.542
100.484
100.394
100.402
100.415
100.356
100.224
100.124
99.9864
99.9509
99.9714
100.004
100.042
100.056
100.033
100.007
99.9848
99.9625
99.9572
99.9686
99.9958
100.017
100.031
100.039
100.041
100.352
100.214
100.078
99.9165
99.8891
99.9192
99.9773
100.051
100.074
100.09
100.1
100.088
100.074
100.051
100.025
100.012
100.015
100.037
100.058
100.089
100.27
100.156
100.017
99.8671
99.849
99.8865
99.9462
100.008
100.042
100.089
100.12
100.121
100.132
100.134
100.125
100.106
100.074
100.056
100.059
100.108
100.154
100.083
99.9376
99.8462
99.8386
99.8805
99.9411
99.9931
100.02
100.058
100.094
100.119
100.143
100.163
100.171
100.175
100.171
100.164
100.15
100.156
100.057
99.9878
99.852
99.8453
99.8668
99.9521
100.001
100.015
100.029
100.058
100.078
100.098
100.131
100.16
100.184
100.207
100.225
100.234
100.235
100.248
99.9579
99.889
99.8101
99.8618
99.9386
100.035
100.085
100.109
100.126
100.14
100.127
100.132
100.136
100.154
100.182
100.218
100.253
100.282
100.295
100.328
99.8482
99.7956
99.807
99.8979
99.9835
100.077
100.116
100.151
100.202
100.222
100.234
100.238
100.246
100.251
100.254
100.262
100.282
100.321
100.347
100.394
99.751
99.7077
99.8146
99.9395
100.052
100.125
100.122
100.156
100.228
100.264
100.291
100.307
100.329
100.336
100.346
100.357
100.369
100.386
100.411
100.452
99.6837
99.6626
99.8184
99.9753
100.13
100.188
100.174
100.204
100.247
100.28
100.318
100.347
100.38
100.392
100.41
100.428
100.447
100.465
100.502
100.494
99.6448
99.6589
99.866
100.008
100.173
100.231
100.243
100.3
100.347
100.378
100.395
100.412
100.43
100.443
100.461
100.488
100.518
100.542
100.581
100.57
99.6128
99.7168
99.9603
100.063
100.213
100.292
100.334
100.394
100.44
100.479
100.496
100.513
100.522
100.529
100.54
100.559
100.589
100.619
100.658
100.657
99.6137
99.7971
99.9967
100.144
100.245
100.326
100.397
100.455
100.508
100.547
100.564
100.582
100.598
100.614
100.636
100.66
100.683
100.708
100.726
100.735
99.6575
99.8088
100.01
100.171
100.272
100.345
100.447
100.517
100.577
100.609
100.628
100.648
100.67
100.697
100.727
100.752
100.771
100.784
100.781
100.776
99.576
99.8355
100.022
100.143
100.36
100.542
100.609
100.658
100.697
100.716
100.729
100.745
100.766
100.792
100.813
100.822
100.82
100.814
100.79
100.746
99.305
99.8247
100.191
100.412
100.596
100.697
100.742
100.776
100.797
100.809
100.82
100.836
100.852
100.856
100.855
100.844
100.792
100.678
100.516
100.277
99.5664
100.158
100.454
100.663
100.775
100.813
100.84
100.862
100.875
100.879
100.881
100.883
100.881
100.858
100.772
100.622
100.359
100.102
100.006
99.9978
100.124
100.519
100.739
100.833
100.884
100.908
100.925
100.924
100.918
100.906
100.892
100.84
100.729
100.475
100.149
100.01
99.9967
99.9985
99.9992
99.9998
100.694
100.835
100.91
100.946
100.964
100.957
100.956
100.932
100.842
100.759
100.572
100.231
100.03
99.9957
99.9977
99.9989
99.9998
100
100
100
100.996
100.993
100.99
100.987
100.982
100.956
100.889
100.461
99.8436
100
100
100
100
100
100
100
100
100
100
100
100.994
100.992
100.985
100.973
100.95
100.862
100.513
100.022
100
100
100
100
100
100
100
100
100
100
100
100
100.991
100.991
100.986
100.966
100.908
100.623
100.033
99.9994
100
100
100
100
100
100
100
100
100
100
100
100
100.987
100.99
100.987
100.957
100.782
100.214
99.9967
100
100
100
100
100
100
100
100
100
100
100
100
100
100.983
100.991
100.987
100.921
100.567
99.9922
100
100
100
100
100
100
100
100
100
100
100
100
100
100
100.979
100.993
100.985
100.835
100.285
100
100
100
100
100
100
100
100
100
100
100
100
100
100
100
100.976
100.986
100.975
100.699
99.9925
100
100
100
100
100
100
100
100
100
100
100
100
100
100
100
100.977
100.972
100.914
100.467
100
100
100
100
100
100
100
100
100
100
100
100
100
100
100
100
101.001
100.964
100.817
100.15
100
100
100
100
100
100
100
100
100
100
100
100
100
100
100
100
101.016
100.942
100.672
99.9965
100
100
100
100
100
100
100
100
100
100
100
100
100
100
100
100
101.025
100.901
100.505
100
100
100
100
100
100
100
100
100
100
100
100
100
100
100
100
100
101.032
100.855
100.319
100
100
100
100
100
100
100
100
100
100
100
100
100
100
100
100
100
101.035
100.803
100.121
100
100
100
100
100
100
100
100
100
100
100
100
100
100
100
100
100
101.027
100.744
100.014
100
100
100
100
100
100
100
100
100
100
100
100
100
100
100
100
100
101.007
100.664
100
100
100
100
100
100
100
100
100
100
100
100
100
100
100
100
100
100
100.984
100.557
100
100
100
100
100
100
100
100
100
100
100
100
100
100
100
100
100
100
100.953
100.439
100
100
100
100
100
100
100
100
100
100
100
100
100
100
100
100
100
100
100.918
100.247
100
100
100
100
100
100
100
100
100
100
100
100
100
100
100
100
100
100
100.86
100.005
100
100
100
100
100
100
100
100
100
100
100
100
100
100
100
100
100
100
100.807
100
100
100
100
100
100
100
100
100
100
100
100
100
100
100
100
100
100
100
100.808
100
100
100
100
100
100
100
100
100
100
100
100
100
100
100
100
100
100
100
100.857
100.005
100
100
100
100
100
100
100
100
100
100
100
100
100
100
100
100
100
100
100.919
100.247
100
100
100
100
100
100
100
100
100
100
100
100
100
100
100
100
100
100
100.956
100.445
100
100
100
100
100
100
100
100
100
100
100
100
100
100
100
100
100
100
100.984
100.558
100
100
100
100
100
100
100
100
100
100
100
100
100
100
100
100
100
100
101.007
100.659
100
100
100
100
100
100
100
100
100
100
100
100
100
100
100
100
100
100
101.024
100.743
100.013
100
100
100
100
100
100
100
100
100
100
100
100
100
100
100
100
100
101.035
100.803
100.123
100
100
100
100
100
100
100
100
100
100
100
100
100
100
100
100
100
101.032
100.857
100.32
100
100
100
100
100
100
100
100
100
100
100
100
100
100
100
100
100
101.026
100.903
100.507
100
100
100
100
100
100
100
100
100
100
100
100
100
100
100
100
100
101.016
100.942
100.673
99.9965
100
100
100
100
100
100
100
100
100
100
100
100
100
100
100
100
101.002
100.966
100.817
100.144
100
100
100
100
100
100
100
100
100
100
100
100
100
100
100
100
100.976
100.971
100.914
100.469
100
100
100
100
100
100
100
100
100
100
100
100
100
100
100
100
100.974
100.983
100.973
100.699
99.9926
100
100
100
100
100
100
100
100
100
100
100
100
100
100
100
100.978
100.993
100.985
100.836
100.28
100
100
100
100
100
100
100
100
100
100
100
100
100
100
100
100.983
100.992
100.987
100.92
100.571
99.9921
100
100
100
100
100
100
100
100
100
100
100
100
100
100
100.987
100.991
100.988
100.958
100.784
100.213
99.9968
100
100
100
100
100
100
100
100
100
100
100
100
100
100.991
100.992
100.987
100.967
100.909
100.619
100.03
99.9994
100
100
100
100
100
100
100
100
100
100
100
100
100.995
100.992
100.986
100.973
100.948
100.859
100.51
100.022
100
100
100
100
100
100
100
100
100
100
100
100
100.996
100.993
100.99
100.986
100.98
100.955
100.891
100.469
99.8389
100
100
100
100
100
100
100
100
100
100
100
100.694
100.834
100.91
100.945
100.962
100.956
100.956
100.933
100.842
100.758
100.569
100.229
100.029
99.9956
99.9977
99.9989
99.9998
100
100
100
100.121
100.529
100.742
100.834
100.884
100.907
100.925
100.925
100.918
100.907
100.892
100.839
100.729
100.476
100.15
100.011
99.9967
99.9985
99.9992
99.9998
99.4891
100.06
100.453
100.663
100.774
100.813
100.841
100.863
100.876
100.879
100.881
100.883
100.882
100.858
100.772
100.622
100.359
100.102
100.006
99.9978
99.5299
99.7841
100.131
100.408
100.597
100.698
100.743
100.777
100.798
100.809
100.82
100.836
100.852
100.857
100.855
100.844
100.792
100.678
100.516
100.278
99.6975
99.7714
99.9733
100.128
100.348
100.54
100.61
100.658
100.697
100.715
100.728
100.745
100.766
100.792
100.813
100.822
100.82
100.813
100.789
100.746
99.7487
99.7108
99.9338
100.151
100.27
100.338
100.443
100.515
100.577
100.609
100.628
100.648
100.67
100.697
100.728
100.752
100.771
100.784
100.781
100.776
99.7384
99.7253
99.9134
100.125
100.243
100.321
100.394
100.453
100.507
100.547
100.564
100.582
100.597
100.614
100.637
100.66
100.683
100.707
100.726
100.735
99.726
99.7827
99.9259
100.051
100.212
100.292
100.334
100.394
100.439
100.478
100.495
100.511
100.522
100.529
100.54
100.56
100.588
100.619
100.658
100.657
99.7743
99.8157
99.9407
100.014
100.172
100.239
100.245
100.3
100.346
100.375
100.392
100.41
100.43
100.443
100.462
100.488
100.517
100.542
100.581
100.571
99.8399
99.8428
99.9353
99.9846
100.125
100.2
100.178
100.204
100.245
100.278
100.316
100.346
100.38
100.392
100.41
100.427
100.446
100.464
100.502
100.494
99.8974
99.851
99.9033
99.9379
100.044
100.136
100.128
100.156
100.225
100.262
100.29
100.306
100.329
100.335
100.345
100.356
100.368
100.386
100.411
100.452
99.9606
99.8717
99.863
99.9011
99.9766
100.08
100.117
100.147
100.196
100.218
100.231
100.235
100.243
100.249
100.252
100.261
100.282
100.322
100.347
100.394
100.035
99.9326
99.8396
99.8713
99.9264
100.029
100.078
100.098
100.115
100.131
100.121
100.127
100.133
100.153
100.181
100.218
100.254
100.283
100.295
100.328
100.125
100.019
99.8617
99.8463
99.8503
99.941
99.9895
100
100.017
100.048
100.072
100.095
100.13
100.161
100.184
100.208
100.226
100.234
100.235
100.249
100.222
100.108
99.9377
99.838
99.8204
99.8678
99.9306
99.9794
100.008
100.049
100.087
100.117
100.145
100.165
100.172
100.176
100.172
100.164
100.15
100.157
100.282
100.156
100.02
99.8567
99.8316
99.8728
99.9363
99.9949
100.035
100.084
100.119
100.122
100.134
100.136
100.127
100.107
100.075
100.058
100.061
100.11
100.3
100.192
100.087
99.9114
99.8687
99.903
99.9715
100.044
100.073
100.092
100.104
100.092
100.076
100.051
100.026
100.014
100.018
100.041
100.061
100.09
100.296
100.203
100.124
99.9869
99.9246
99.9494
99.9972
100.04
100.056
100.046
100.015
99.9904
99.9658
99.9596
99.9713
99.9998
100.022
100.036
100.043
100.043
100.284
100.268
100.235
100.197
100.282
100.287
100.319
100.429
100.537
100.545
100.554
100.592
100.626
100.609
100.519
100.459
100.474
100.511
100.536
100.5
100.692
100.853
100.871
100.876
100.901
100.903
100.908
100.959
101.07
101.119
101.144
101.152
101.146
101.136
101.115
101.103
101.105
101.103
101.101
101.083
101.062
101.034
100.999
100.978
100.954
100.941
100.918
100.898
100.892
100.886
100.875
100.863
100.85
100.844
100.84
100.83
100.819
100.814
100.81
100.804
100.611
100.659
100.67
100.693
100.754
100.813
100.812
100.804
100.803
100.805
100.806
100.804
100.798
100.796
100.795
100.792
100.79
100.789
100.785
100.779
100.026
100.071
100.147
100.241
100.425
100.534
100.594
100.624
100.638
100.655
100.676
100.682
100.687
100.691
100.695
100.702
100.712
100.718
100.719
100.718
100.084
100.088
100.093
100.095
100.127
100.229
100.383
100.453
100.484
100.521
100.558
100.567
100.573
100.578
100.586
100.598
100.614
100.623
100.627
100.631
100.134
100.131
100.129
100.14
100.138
100.133
100.172
100.255
100.357
100.428
100.474
100.497
100.507
100.507
100.51
100.521
100.536
100.542
100.546
100.551
100.182
100.177
100.171
100.175
100.174
100.174
100.179
100.172
100.191
100.27
100.376
100.448
100.472
100.475
100.472
100.478
100.489
100.491
100.492
100.497
100.241
100.226
100.201
100.203
100.209
100.208
100.209
100.206
100.185
100.18
100.232
100.345
100.431
100.456
100.451
100.453
100.457
100.456
100.459
100.465
100.308
100.284
100.243
100.235
100.238
100.239
100.238
100.231
100.214
100.182
100.176
100.211
100.315
100.417
100.428
100.438
100.436
100.436
100.441
100.446
100.371
100.346
100.289
100.273
100.267
100.263
100.256
100.248
100.233
100.208
100.176
100.174
100.196
100.297
100.387
100.42
100.415
100.419
100.43
100.431
100.434
100.409
100.354
100.311
100.291
100.283
100.275
100.263
100.252
100.228
100.203
100.179
100.179
100.189
100.281
100.374
100.387
100.405
100.417
100.413
100.531
100.463
100.415
100.364
100.316
100.289
100.291
100.289
100.276
100.256
100.23
100.206
100.191
100.178
100.182
100.231
100.312
100.361
100.373
100.379
100.618
100.541
100.483
100.441
100.4
100.342
100.314
100.299
100.279
100.257
100.24
100.222
100.207
100.19
100.168
100.155
100.17
100.223
100.276
100.319
100.608
100.587
100.538
100.475
100.434
100.388
100.34
100.312
100.283
100.268
100.261
100.242
100.22
100.198
100.174
100.151
100.142
100.134
100.145
100.218
100.489
100.547
100.542
100.516
100.47
100.425
100.375
100.343
100.316
100.29
100.267
100.238
100.208
100.187
100.172
100.154
100.134
100.117
100.1
100.105
100.25
100.376
100.446
100.482
100.473
100.449
100.409
100.363
100.327
100.289
100.26
100.235
100.204
100.187
100.177
100.162
100.142
100.118
100.093
100.072
100.043
100.145
100.255
100.336
100.387
100.415
100.407
100.38
100.344
100.302
100.268
100.247
100.221
100.197
100.171
100.145
100.121
100.101
100.084
100.062
100.002
100.015
100.066
100.155
100.232
100.29
100.332
100.349
100.34
100.317
100.279
100.246
100.216
100.187
100.162
100.133
100.11
100.096
100.089
100.068
100
100
100.003
100.025
100.077
100.149
100.209
100.25
100.279
100.291
100.281
100.259
100.228
100.195
100.171
100.15
100.124
100.103
100.086
100.056
100
100
100
100.001
100.006
100.03
100.081
100.14
100.187
100.216
100.239
100.244
100.236
100.216
100.187
100.159
100.13
100.102
100.078
100.048
100
100
100
100
100
100.001
100.008
100.033
100.078
100.128
100.169
100.192
100.21
100.209
100.201
100.182
100.156
100.126
100.1
100.068
100
100
100
100
100
100
100
100.001
100.008
100.032
100.073
100.117
100.154
100.174
100.186
100.184
100.178
100.161
100.137
100.097
100
100
100
100
100
100
100
100
100
100.002
100.008
100.029
100.065
100.108
100.139
100.159
100.168
100.167
100.162
100.139
100
100
100
100
100
100
100
100
100
100
100
100.001
100.007
100.024
100.057
100.097
100.127
100.145
100.154
100.151
100
100
100
100
100
100
100
100
100
100
100
100
100
100.001
100.006
100.019
100.048
100.085
100.113
100.137
100
100
100
100
100
100
100
100
100
100
100
100
100
100
100
100.001
100.004
100.016
100.041
100.105
100.596
100.652
100.609
100.416
100.142
100.017
100.001
100
100
100
100
100
100
100
100
100.671
100.662
100.519
100.218
100.022
100
100
100
100
100
100
100
100
100
100
100.705
100.636
100.374
100.074
100.002
100
100
100
100
100
100
100
100
100
100
100.719
100.517
100.166
100.009
100
100
100
100
100
100
100
100
100
100
100
100.651
100.283
100.024
100
100
100
100
100
100
100
100
100
100
100
100
100.395
100.038
100
100
100
100
100
100
100
100
100
100
100
100
100
100.042
100
100
100
100
100
100
100
100
100
100
100
100
100
100
99.9995
100
100
100
100
100
100
100
100
100
100
100
100
100
100
100
100
100
100
100
100
100
100
100
100
100
100
100
100
100
100
100
100
100
100
100
100
100
100
100
100
100
100
100
100
100
100
100
100
100
100
100
100
100
100
100
100
100
100
100
100
100
100
100
100
100
100
100
100
100
100
100
100
100
100
100
100
100
100
100
100
100
100
100
100
100
100
100
100
100
100
100
100
100
100
100
100
100
100
100
100
100
100
100
100
100
100
100
100
100
100
100
100
100
100
100
100
100
100
100
100
100
100
100
100
100
100
100
100
100
100
100
100
100
100
100
100
100
100
100
100
100
100
100
100
100
100
100
100
100
100
100
100
100
100
100
100
100
100
100
100
100
100
100
100
100
100
100
100
100
100
100
100
100
100
100
100
100
100
100
100
100
100
100
100
100
100
100
100
100
100
100
100
100
100
100
100
100
100
100
100
100
100
100
100
100
100
100
100
100
100
100
100
100
100
100
100
100
100
100
100
100
100
100
100
100
100
100
100
100
100
100
100
100
100
100
100
100
100
100
100
100
100
100
100
100
100
100
100
100
100
100
100
100
100
100
100
100
100
100
100
100
100
100
100
100
100
100
100
100
100
100
100
100
100
100
100
100
100
100
100
100
100
100
100
100
100
100
100
100
100
100
100
100
100
100
100
100
100
100
100
100
100
100
100
100
100
100
100
100
100
100
100
100
100
100
100
100
100
100
100
100
100
100
100
100
100
100
100
100
100
100
100
100
100
100
100
100
100
100
100
100
100
100
100
100
100
100
100
100
100
100
100
100
100
100
100
100
100
100
100
100
100
100
100
100
100
100
100
100
100
100
100
100
100
100
100
100
100
100
100
100
100
100
100
100
100
100
100
100
100
100
100
100
100
100
100
100
100
100
100
100
100
100
100
100
100
100
100
100
100
100
100
100
100
100
100
100
100
100
100
100
100
100
100
100
100
100
100
100
100
100
100
100
100
100
100
100
100
100
100
100
100
100
100
100
100
100
100
100
100
100
100
100
100
100
100
100
100
100
100
100
100
100
100
100
100
100
100
100
100
100
100
100
100
100
100
100
100
100
100
100
100
100
100
100
100
100
100
100
100
100
100
100
100
100
100
100
100
100
100
100
100
100
100
100
100
100
100
100
100
100
100
100
100
100
100
100
100
100
100
100
100
100
100
100
100
100
100
100
100
100
100
100
100
100
100
100
100
100
100
100
100
100
100
100
100
100
100
100
100
100
100
100
100
100
100
100
100
100
100
100
100
100
100
100
100
100
100
100
100
100
100
100
100
100
100
100
100
100
100
100
100
100
100
100
100
100
100
100
100
100
100
100
100
100
100
100
100
100
100
100
100
100
100
100
100
100
100
100
100
100
100
100
100
100
100
100
100
100
100
100
100
100
100
100
100
100
100
100
100
100
100
100
100
100
100
100
100
100
100
100
100
100
100
100
100
100
100
100
100
100
100
100
100
100
100
100
100
100
100
100
100
100
100
100
100
100
100
100
100
100
100
100
100
100
100
100
100
100
100
100
100
100
100
100
100
100
100
100
100
100
100
100
100
100
100
100
100
100
100
100
100
100
100
100
100
100
100
100
100
100
100
100
100
100
100
100
100
100
100
100
100
100
100
100
100
100
100
100
100
100
100
100
100
100
100
100
100
100
100
100
100
100
100
100
100
100
100
100
100
100
100
100
100
100
100
100
100
100
100
100
100
100
100
100
100
100
100
100
100
100
100
100
100
100
100
100
100
100
100
100
100
100
100
100
100
100
100
100
100
100
100
100
100
100
100
100
100
100
100
100
100
100
100
100
100
100
100
100
100
100
100
100
100
100
100
100
100
100
100
100
100
100
100
100
100
100
100
100
100
100
100
100
100
100
100
100
100
100
100
100
100
100
100
100
100
100
100
100
100
100
100
100
100
100
100
100
100
100
100
100
100
100
100
100
100
100
100
100
100
100
100
100
100
99.9995
100
100
100
100
100
100
100
100
100
100
100
100
100
100
100.042
100
100
100
100
100
100
100
100
100
100
100
100
100
100
100.396
100.038
100
100
100
100
100
100
100
100
100
100
100
100
100
100.652
100.283
100.024
100
100
100
100
100
100
100
100
100
100
100
100
100.719
100.517
100.166
100.009
100
100
100
100
100
100
100
100
100
100
100
100.705
100.636
100.374
100.074
100.002
100
100
100
100
100
100
100
100
100
100
100.671
100.662
100.518
100.218
100.022
100
100
100
100
100
100
100
100
100
100
100.596
100.652
100.609
100.416
100.142
100.017
100.001
100
100
100
100
100
100
100
100
100.529
100.617
100.608
100.489
100.251
100.043
100.002
100
100
100
100
100
100
100
100
100.465
100.543
100.586
100.546
100.376
100.145
100.015
100
100
100
100
100
100
100
100
100.412
100.483
100.539
100.541
100.446
100.255
100.066
100.003
100
100
100
100
100
100
100
100.36
100.438
100.475
100.516
100.482
100.336
100.154
100.025
100.001
100
100
100
100
100
100
100.316
100.398
100.433
100.47
100.473
100.387
100.232
100.077
100.006
100
100
100
100
100
100
100.29
100.343
100.388
100.426
100.449
100.415
100.29
100.149
100.03
100.001
100
100
100
100
100
100.29
100.313
100.338
100.377
100.411
100.407
100.331
100.209
100.081
100.008
100
100
100
100
100
100.288
100.3
100.308
100.34
100.365
100.381
100.349
100.25
100.14
100.033
100.001
100
100
100
100
100.275
100.28
100.284
100.313
100.325
100.345
100.34
100.279
100.187
100.079
100.008
100
100
100
100
100.251
100.26
100.277
100.293
100.287
100.301
100.316
100.291
100.216
100.128
100.032
100.002
100
100
100
100.223
100.238
100.266
100.27
100.261
100.268
100.279
100.281
100.24
100.169
100.073
100.008
100
100
100
100.202
100.221
100.243
100.238
100.235
100.247
100.247
100.259
100.244
100.192
100.117
100.029
100.001
100
100
100.188
100.206
100.22
100.208
100.204
100.221
100.216
100.228
100.236
100.21
100.154
100.065
100.007
100
100
100.176
100.188
100.197
100.186
100.188
100.195
100.187
100.197
100.216
100.209
100.174
100.107
100.024
100.001
100
100.181
100.166
100.172
100.17
100.179
100.171
100.16
100.17
100.187
100.201
100.186
100.139
100.057
100.006
100
100.229
100.154
100.148
100.154
100.163
100.145
100.132
100.147
100.158
100.182
100.184
100.159
100.097
100.019
100.001
100.311
100.169
100.141
100.137
100.143
100.122
100.111
100.123
100.129
100.156
100.177
100.168
100.127
100.048
100.004
100.36
100.223
100.135
100.119
100.118
100.101
100.097
100.105
100.102
100.126
100.161
100.167
100.145
100.085
100.016
100.373
100.277
100.147
100.1
100.091
100.084
100.088
100.087
100.079
100.1
100.137
100.162
100.154
100.113
100.041
100.379
100.32
100.22
100.105
100.072
100.063
100.067
100.056
100.049
100.069
100.098
100.139
100.151
100.137
100.105
100.436
100.409
100.353
100.31
100.292
100.286
100.278
100.267
100.253
100.221
100.199
100.178
100.179
100.19
100.28
100.37
100.386
100.406
100.417
100.413
100.372
100.345
100.289
100.267
100.268
100.267
100.261
100.253
100.237
100.208
100.178
100.175
100.198
100.297
100.387
100.422
100.415
100.419
100.431
100.431
100.308
100.282
100.242
100.237
100.24
100.24
100.24
100.233
100.215
100.181
100.177
100.211
100.318
100.414
100.435
100.442
100.439
100.436
100.442
100.446
100.24
100.225
100.203
100.204
100.209
100.209
100.212
100.207
100.188
100.18
100.233
100.348
100.428
100.459
100.455
100.457
100.457
100.455
100.458
100.465
100.181
100.176
100.174
100.177
100.172
100.171
100.176
100.171
100.192
100.272
100.376
100.449
100.469
100.477
100.475
100.478
100.484
100.486
100.488
100.496
100.134
100.132
100.129
100.141
100.142
100.134
100.159
100.246
100.358
100.43
100.474
100.497
100.504
100.507
100.51
100.52
100.53
100.535
100.541
100.551
100.084
100.085
100.094
100.097
100.123
100.204
100.357
100.451
100.489
100.525
100.559
100.567
100.574
100.579
100.586
100.598
100.61
100.617
100.623
100.632
100.025
100.065
100.189
100.294
100.433
100.503
100.561
100.616
100.648
100.666
100.68
100.685
100.691
100.696
100.699
100.705
100.712
100.716
100.719
100.72
100.547
100.63
100.717
100.754
100.778
100.78
100.781
100.796
100.812
100.814
100.811
100.808
100.804
100.8
100.799
100.796
100.793
100.791
100.787
100.782
101.04
101.019
101.014
101.002
100.966
100.935
100.903
100.895
100.891
100.883
100.869
100.859
100.85
100.846
100.843
100.834
100.824
100.817
100.81
100.804
)
;

boundaryField
{
    inlet
    {
        type            fixedValue;
        value           uniform 100;
    }
    outlet
    {
        type            inletOutlet;
        inletValue      uniform 100;
        value           nonuniform List<scalar> 
50
(
100.379
100.319
100.218
100.105
100.072
100.062
100.068
100.056
100.048
100.068
100.097
100.139
100.151
100.137
100.105
100.804
100.779
100.718
100.631
100.551
100.497
100.465
100.446
100.431
100.413
100.413
100.431
100.446
100.465
100.496
100.551
100.632
100.72
100.782
100.804
100.379
100.32
100.22
100.105
100.072
100.063
100.067
100.056
100.049
100.069
100.098
100.139
100.151
100.137
100.105
)
;
    }
    airfoil
    {
        type            zeroGradient;
    }
    top
    {
        type            symmetryPlane;
    }
    bottom
    {
        type            symmetryPlane;
    }
    defaultFaces
    {
        type            empty;
    }
}


// ************************************************************************* //
