/*--------------------------------*- C++ -*----------------------------------*\
  =========                 |
  \\      /  F ield         | OpenFOAM: The Open Source CFD Toolbox
   \\    /   O peration     | Website:  https://openfoam.org
    \\  /    A nd           | Version:  7
     \\/     M anipulation  |
\*---------------------------------------------------------------------------*/
FoamFile
{
    version     2.0;
    format      ascii;
    class       volVectorField;
    location    "7.4";
    object      U;
}
// * * * * * * * * * * * * * * * * * * * * * * * * * * * * * * * * * * * * * //

dimensions      [0 1 -1 0 0 0 0];

internalField   nonuniform List<vector> 
3700
(
(1.41216 -0.529164 0)
(1.37109 -0.552464 0)
(1.28613 -0.321533 0)
(1.30461 -0.262345 0)
(1.38038 -0.296859 0)
(1.4087 -0.287973 0)
(1.452 -0.214467 0)
(1.50097 -0.255872 0)
(1.53433 -0.284876 0)
(1.51186 -0.187864 0)
(1.54566 -0.0789702 0)
(1.6021 -0.0769444 0)
(1.63648 -0.145742 0)
(1.65833 -0.210352 0)
(1.65253 -0.18533 0)
(1.69839 -0.145101 0)
(1.75491 -0.183651 0)
(1.81931 -0.259951 0)
(1.86605 -0.26858 0)
(1.87294 -0.23938 0)
(1.63015 -1.46021 0)
(1.81893 -1.4943 0)
(1.86945 -1.66671 0)
(1.87514 -1.75342 0)
(1.85023 -1.76514 0)
(1.82234 -1.70636 0)
(1.79255 -1.48597 0)
(1.76201 -1.45761 0)
(1.76155 -1.39416 0)
(1.71341 -1.16081 0)
(1.78677 -0.95628 0)
(1.90149 -0.95463 0)
(2.02363 -1.08677 0)
(2.04334 -1.19009 0)
(2.04949 -1.20025 0)
(2.08018 -1.15036 0)
(2.15833 -1.24539 0)
(2.22713 -1.2735 0)
(2.27092 -1.28172 0)
(2.32121 -1.17595 0)
(1.67275 -1.43685 0)
(2.01429 -1.34242 0)
(2.179 -1.90575 0)
(2.13601 -2.21824 0)
(2.08119 -2.33786 0)
(2.03142 -2.38418 0)
(2.03457 -2.22352 0)
(1.94974 -2.1925 0)
(1.98411 -2.12296 0)
(2.0348 -2.05313 0)
(2.15033 -1.98067 0)
(2.25789 -1.95132 0)
(2.364 -1.88049 0)
(2.42356 -1.84161 0)
(2.47685 -1.82635 0)
(2.5109 -1.77576 0)
(2.48368 -1.79315 0)
(2.48839 -1.68188 0)
(2.48895 -1.66847 0)
(2.55483 -1.56351 0)
(1.80261 -1.48151 0)
(2.14393 -1.34919 0)
(2.23485 -1.90572 0)
(2.13374 -2.21492 0)
(2.16724 -2.25072 0)
(2.09425 -2.33557 0)
(2.12286 -2.17787 0)
(2.00499 -2.1467 0)
(2.04696 -2.0875 0)
(2.13788 -2.00327 0)
(2.20362 -1.92358 0)
(2.30643 -1.82414 0)
(2.40499 -1.72145 0)
(2.52457 -1.60921 0)
(2.66344 -1.50596 0)
(2.75936 -1.42387 0)
(2.74426 -1.46467 0)
(2.73543 -1.43153 0)
(2.64649 -1.48059 0)
(2.59359 -1.4012 0)
(1.91697 -1.53741 0)
(2.15307 -1.41579 0)
(2.11005 -1.96406 0)
(1.98047 -2.22987 0)
(2.06546 -2.22547 0)
(2.096 -2.31121 0)
(2.14977 -2.15698 0)
(2.10967 -2.06728 0)
(2.21065 -1.96473 0)
(2.32369 -1.87255 0)
(2.30605 -1.92682 0)
(2.37215 -1.76398 0)
(2.41232 -1.69438 0)
(2.47803 -1.61103 0)
(2.60439 -1.49935 0)
(2.6875 -1.34048 0)
(2.76346 -1.1349 0)
(2.85151 -1.00572 0)
(2.84955 -0.97383 0)
(2.73139 -1.07121 0)
(1.89817 -1.59486 0)
(1.98821 -1.61811 0)
(1.84871 -2.06558 0)
(1.8077 -2.22198 0)
(1.99243 -2.18784 0)
(2.02633 -2.17759 0)
(2.14014 -2.11497 0)
(2.23782 -1.96372 0)
(2.29718 -1.90916 0)
(2.43789 -1.71574 0)
(2.49261 -1.74224 0)
(2.57123 -1.621 0)
(2.56149 -1.558 0)
(2.56243 -1.48236 0)
(2.58766 -1.39792 0)
(2.62283 -1.29335 0)
(2.68023 -1.17901 0)
(2.80315 -1.06484 0)
(2.84081 -0.815912 0)
(2.83452 -0.687574 0)
(1.75253 -1.59406 0)
(1.73354 -1.72426 0)
(1.60339 -2.05488 0)
(1.67993 -2.1613 0)
(1.73801 -2.1228 0)
(1.92874 -1.99715 0)
(2.02217 -2.00867 0)
(2.23636 -1.72133 0)
(2.38009 -1.6923 0)
(2.5257 -1.54745 0)
(2.5775 -1.51454 0)
(2.68768 -1.35212 0)
(2.71129 -1.30006 0)
(2.70113 -1.26618 0)
(2.70182 -1.15901 0)
(2.68705 -1.08442 0)
(2.6815 -0.988293 0)
(2.73843 -0.968938 0)
(2.75221 -0.815542 0)
(2.78815 -0.589658 0)
(1.56557 -1.48682 0)
(1.56763 -1.58592 0)
(1.48616 -1.93783 0)
(1.61152 -2.09138 0)
(1.68792 -2.11708 0)
(1.86745 -1.96355 0)
(1.97181 -1.92402 0)
(2.13838 -1.66824 0)
(2.23692 -1.58959 0)
(2.40989 -1.49652 0)
(2.52506 -1.24173 0)
(2.66643 -1.11609 0)
(2.7144 -0.920061 0)
(2.75636 -0.867565 0)
(2.78352 -0.7549 0)
(2.76903 -0.757477 0)
(2.74911 -0.662767 0)
(2.72481 -0.688974 0)
(2.73195 -0.687328 0)
(2.70996 -0.457038 0)
(1.44224 -1.29694 0)
(1.51091 -1.36602 0)
(1.5022 -1.77584 0)
(1.58906 -2.0308 0)
(1.67969 -2.09325 0)
(1.92486 -1.92879 0)
(2.04003 -1.86527 0)
(2.18373 -1.61005 0)
(2.23167 -1.5398 0)
(2.32347 -1.4893 0)
(2.44694 -1.26234 0)
(2.57679 -1.15068 0)
(2.63352 -0.873655 0)
(2.75068 -0.754551 0)
(2.74646 -0.477008 0)
(2.75652 -0.388473 0)
(2.74953 -0.268798 0)
(2.72384 -0.262033 0)
(2.70982 -0.386511 0)
(2.66286 -0.247978 0)
(1.383 -1.14918 0)
(1.45349 -1.20205 0)
(1.56734 -1.68497 0)
(1.64707 -2.06203 0)
(1.80676 -2.0464 0)
(2.07285 -1.86799 0)
(2.19356 -1.66756 0)
(2.34314 -1.3817 0)
(2.45432 -1.3362 0)
(2.46518 -1.33987 0)
(2.51711 -1.15595 0)
(2.57312 -1.01009 0)
(2.59548 -0.82115 0)
(2.68106 -0.727242 0)
(2.67753 -0.485384 0)
(2.71648 -0.341556 0)
(2.70711 -0.13414 0)
(2.6814 0.0035064 0)
(2.63473 0.00108214 0)
(2.61974 -0.0247003 0)
(1.3247 -1.06064 0)
(1.41173 -1.13155 0)
(1.66455 -1.71361 0)
(1.75236 -2.16306 0)
(2.24361 -2.03858 0)
(2.47075 -1.92947 0)
(2.57712 -1.43199 0)
(2.65174 -1.1602 0)
(2.69143 -0.964645 0)
(2.72058 -0.821837 0)
(2.72635 -0.721672 0)
(2.71257 -0.556107 0)
(2.68634 -0.473459 0)
(2.68754 -0.390078 0)
(2.65684 -0.27435 0)
(2.64629 -0.208624 0)
(2.6423 -0.101035 0)
(2.60932 0.0634222 0)
(2.54854 0.213628 0)
(2.56241 0.165348 0)
(1.20992 -1.02637 0)
(1.37897 -1.17303 0)
(1.7645 -1.80705 0)
(2.05503 -2.32142 0)
(2.47015 -1.80545 0)
(2.45265 -1.7703 0)
(2.6119 -1.21835 0)
(2.68886 -0.975261 0)
(2.73518 -0.843301 0)
(2.71819 -0.486946 0)
(2.73258 -0.324937 0)
(2.68615 -0.103166 0)
(2.6765 -0.0182122 0)
(2.64554 0.0920806 0)
(2.61367 0.148182 0)
(2.57443 0.165399 0)
(2.54881 0.150774 0)
(2.52751 0.180172 0)
(2.45178 0.33574 0)
(2.45973 0.333653 0)
(1.05344 -0.96889 0)
(1.4188 -1.30275 0)
(2.10957 -2.05199 0)
(2.14948 -2.12209 0)
(2.31857 -1.5946 0)
(2.28568 -1.50394 0)
(2.4057 -1.13528 0)
(2.47664 -0.882924 0)
(2.49792 -0.744477 0)
(2.54244 -0.522597 0)
(2.60345 -0.322846 0)
(2.57804 -0.055613 0)
(2.58517 0.112746 0)
(2.53745 0.295632 0)
(2.48584 0.432651 0)
(2.44144 0.48896 0)
(2.38779 0.534153 0)
(2.38619 0.472795 0)
(2.32829 0.539447 0)
(2.3313 0.505486 0)
(0.871513 -0.945263 0)
(1.66031 -1.8292 0)
(2.05305 -1.97273 0)
(2.00412 -1.79443 0)
(2.20276 -1.4829 0)
(2.33061 -1.15485 0)
(2.41225 -0.890653 0)
(2.4777 -0.627661 0)
(2.48606 -0.348461 0)
(2.51452 -0.219106 0)
(2.51541 -0.019536 0)
(2.47656 0.161917 0)
(2.45403 0.290573 0)
(2.41263 0.415078 0)
(2.35631 0.539121 0)
(2.32001 0.605551 0)
(2.23113 0.719114 0)
(2.18654 0.758327 0)
(2.17264 0.774957 0)
(2.14835 0.78371 0)
(0.817743 -1.01208 0)
(1.71977 -2.08992 0)
(1.95913 -1.81667 0)
(2.04145 -1.48848 0)
(2.29062 -1.22745 0)
(2.39782 -0.349305 0)
(2.50817 -0.188624 0)
(2.52825 0.0233605 0)
(2.46834 0.209965 0)
(2.46237 0.326682 0)
(2.39935 0.488068 0)
(2.32752 0.611056 0)
(2.27405 0.681625 0)
(2.22275 0.741724 0)
(2.18304 0.763212 0)
(2.14202 0.791258 0)
(2.08444 0.853431 0)
(2.05637 0.894289 0)
(2.0283 0.942148 0)
(2.05814 0.958214 0)
(1.0844 -0.970178 0)
(1.61192 -1.78045 0)
(2.04844 -1.57832 0)
(2.23189 -0.44918 0)
(2.41761 -0.24988 0)
(2.46989 -0.100755 0)
(2.46664 0.154654 0)
(2.39833 0.397391 0)
(2.34342 0.483474 0)
(2.31374 0.623255 0)
(2.2182 0.768226 0)
(2.12195 0.882793 0)
(2.05969 0.941494 0)
(2.00657 0.992073 0)
(1.97884 0.98374 0)
(1.95766 0.990104 0)
(1.9554 1.01243 0)
(1.97056 0.994205 0)
(1.99515 0.994745 0)
(2.06992 0.979188 0)
(1.23324 -0.364528 0)
(2.02724 -0.441367 0)
(2.27535 -0.814887 0)
(2.32132 0.115696 0)
(2.34144 0.355439 0)
(2.33867 0.336905 0)
(2.28409 0.486104 0)
(2.21764 0.623397 0)
(2.1446 0.743166 0)
(2.09846 0.884599 0)
(1.98419 0.995864 0)
(1.92014 1.05337 0)
(1.88217 1.07768 0)
(1.86689 1.08988 0)
(1.87162 1.05732 0)
(1.89756 1.04883 0)
(1.9617 1.02175 0)
(2.16359 0.904211 0)
(2.38243 0.791684 0)
(2.78012 0.439772 0)
(1.19485 -0.0782273 0)
(1.93383 -0.407893 0)
(2.19153 0.523085 0)
(2.2278 0.545419 0)
(2.20914 0.546871 0)
(2.14139 0.730824 0)
(2.02803 0.90815 0)
(1.96387 0.976367 0)
(1.9077 1.03695 0)
(1.85654 1.12458 0)
(1.79262 1.15954 0)
(1.78972 1.15114 0)
(1.80638 1.1293 0)
(1.84959 1.08628 0)
(2.0423 0.949464 0)
(2.25966 0.82884 0)
(2.66244 0.505988 0)
(3.03507 0.0937255 0)
(3.05525 -0.0235551 0)
(3.00402 -0.00465691 0)
(1.00985 0.0171525 0)
(1.89918 0.877313 0)
(2.12124 0.801187 0)
(2.01173 0.941744 0)
(1.94145 1.00139 0)
(1.8566 1.09291 0)
(1.7952 1.12877 0)
(1.76557 1.14437 0)
(1.76361 1.16156 0)
(1.74171 1.20172 0)
(1.72078 1.19373 0)
(1.85863 1.06905 0)
(2.09006 0.887652 0)
(2.49715 0.581951 0)
(2.98585 0.138304 0)
(3.07395 -0.0291895 0)
(3.00816 -0.00769353 0)
(3.00293 -0.00383835 0)
(3.00122 -0.00219717 0)
(3.00008 -0.00048755 0)
(1.15649 0.782141 0)
(1.83629 1.14355 0)
(1.84149 1.15302 0)
(1.73659 1.20083 0)
(1.70912 1.19558 0)
(1.66232 1.24121 0)
(1.65683 1.2139 0)
(1.72861 1.16723 0)
(1.76508 1.23285 0)
(1.80302 1.13907 0)
(2.27901 0.73287 0)
(2.86295 0.203903 0)
(3.09961 -0.0302453 0)
(3.02124 -0.0127531 0)
(3.00453 -0.0054972 0)
(3.0018 -0.00299497 0)
(3.00005 -0.000575833 0)
(2.99998 -2.17355e-05 0)
(2.99999 1.43956e-05 0)
(3 5.92276e-06 0)
(1.58083 1.25818 0)
(1.58495 1.26412 0)
(1.59249 1.26906 0)
(1.59988 1.2666 0)
(1.60456 1.25587 0)
(1.59243 1.26902 0)
(1.89572 1.18072 0)
(2.96467 0.407506 0)
(3.33742 -0.613132 0)
(3 6.42208e-11 0)
(3 -7.78967e-11 0)
(3 8.07403e-11 0)
(3 6.10903e-15 0)
(3 -4.25118e-13 0)
(3 -1.24184e-14 0)
(3 2.01102e-14 0)
(3 -9.72377e-15 0)
(3 -8.44539e-17 0)
(3 8.66558e-16 0)
(3 7.18758e-17 0)
(1.58329 1.24775 0)
(1.59437 1.2575 0)
(1.60566 1.26561 0)
(1.61108 1.27913 0)
(1.63979 1.272 0)
(1.71474 1.22187 0)
(2.2339 0.759263 0)
(2.99084 0.0214264 0)
(3 4.95526e-08 0)
(3 -3.24113e-11 0)
(3 -1.34561e-14 0)
(3 6.7271e-15 0)
(3 6.27828e-16 0)
(3 3.92874e-15 0)
(3 1.75607e-15 0)
(3 3.34367e-15 0)
(3 2.00248e-15 0)
(3 -1.74119e-15 0)
(3 -3.92645e-16 0)
(3 4.73624e-16 0)
(1.58255 1.24694 0)
(1.60465 1.25217 0)
(1.61748 1.25601 0)
(1.61436 1.27429 0)
(1.68538 1.22437 0)
(2.24242 0.771017 0)
(3.00283 -0.00784426 0)
(3.00021 -0.000604985 0)
(3 7.84867e-07 0)
(3 5.97835e-11 0)
(3 -3.82635e-14 0)
(3 1.48337e-15 0)
(3 3.79377e-15 0)
(3 3.44585e-15 0)
(3 3.20527e-15 0)
(3 1.84444e-15 0)
(3 -5.82548e-16 0)
(3 -1.85442e-15 0)
(3 -1.86697e-16 0)
(3 5.05689e-16 0)
(1.58243 1.25245 0)
(1.60366 1.25232 0)
(1.62418 1.25632 0)
(1.6445 1.26052 0)
(1.91573 1.05097 0)
(2.77382 0.201115 0)
(3.00453 -0.00113907 0)
(2.99991 7.633e-05 0)
(3 -9.40593e-07 0)
(3 8.94549e-10 0)
(3 -4.33307e-15 0)
(3 4.1301e-15 0)
(3 4.7666e-15 0)
(3 4.97712e-15 0)
(3 5.22033e-15 0)
(3 2.06303e-15 0)
(3 -5.88325e-16 0)
(3 1.64632e-16 0)
(3 2.40893e-16 0)
(3 1.23975e-15 0)
(1.58196 1.26203 0)
(1.59453 1.26241 0)
(1.63166 1.26372 0)
(1.67309 1.23986 0)
(2.33695 0.646062 0)
(3.02017 -0.0179084 0)
(2.99975 0.000155992 0)
(3 -4.25466e-06 0)
(3 8.3181e-08 0)
(3 -9.18448e-10 0)
(3 1.63512e-13 0)
(3 3.50379e-15 0)
(3 4.18415e-15 0)
(3 4.74304e-15 0)
(3 5.28711e-15 0)
(3 2.87916e-15 0)
(3 8.11108e-16 0)
(3 6.22794e-16 0)
(3 5.31748e-16 0)
(3 8.62728e-16 0)
(1.5807 1.28052 0)
(1.58609 1.28082 0)
(1.64518 1.26096 0)
(1.75919 1.17203 0)
(2.66918 0.281157 0)
(3 -6.0456e-10 0)
(3 1.41109e-08 0)
(3 -1.27087e-08 0)
(3 5.44562e-10 0)
(3 2.63243e-12 0)
(3 -9.6372e-14 0)
(3 3.02468e-15 0)
(3 3.94046e-15 0)
(3 4.65383e-15 0)
(3 4.62007e-15 0)
(3 4.1906e-15 0)
(3 3.1538e-15 0)
(3 8.12025e-16 0)
(3 1.85953e-17 0)
(3 -2.98224e-16 0)
(1.58038 1.29507 0)
(1.55318 1.30746 0)
(1.67947 1.24013 0)
(2.21516 0.822867 0)
(3.02283 -0.0229803 0)
(3 -8.05405e-12 0)
(3 1.74344e-12 0)
(3 1.13024e-11 0)
(3 -2.96164e-12 0)
(3 2.9469e-15 0)
(3 1.39462e-15 0)
(3 1.64658e-15 0)
(3 3.62205e-15 0)
(3 3.84738e-15 0)
(3 3.7245e-15 0)
(3 3.90092e-15 0)
(3 4.60036e-15 0)
(3 2.06444e-15 0)
(3 2.66996e-16 0)
(3 4.60578e-17 0)
(1.59359 1.32988 0)
(1.49404 1.33634 0)
(1.74 1.18455 0)
(2.39988 0.553585 0)
(3 -4.02491e-07 0)
(3 -1.94409e-12 0)
(3 -9.62417e-15 0)
(3 -1.11841e-14 0)
(3 1.15594e-14 0)
(3 -1.78926e-15 0)
(3 -1.09886e-15 0)
(3 5.52042e-16 0)
(3 2.61374e-15 0)
(3 3.32285e-15 0)
(3 3.87533e-15 0)
(3 3.95169e-15 0)
(3 4.53115e-15 0)
(3 3.93495e-15 0)
(3 1.4633e-15 0)
(3 4.64911e-16 0)
(1.58944 1.30574 0)
(1.47463 1.35719 0)
(1.94319 1.03566 0)
(2.86142 0.118526 0)
(3 -1.52141e-08 0)
(3 4.0211e-11 0)
(3 -1.05472e-13 0)
(3 -1.05145e-15 0)
(3 -3.11821e-15 0)
(3 -3.23115e-15 0)
(3 -2.02274e-15 0)
(3 -1.04806e-16 0)
(3 1.53985e-15 0)
(3 2.66388e-15 0)
(3 3.15732e-15 0)
(3 3.72233e-15 0)
(3 4.36937e-15 0)
(3 4.95245e-15 0)
(3 2.65856e-15 0)
(3 1.66891e-15 0)
(1.60281 1.29032 0)
(1.47834 1.37118 0)
(2.19254 0.803071 0)
(3.01038 -0.00861734 0)
(3 4.09982e-08 0)
(3 -2.96646e-11 0)
(3 6.38488e-14 0)
(3 -1.99908e-15 0)
(3 -3.10426e-15 0)
(3 -2.88646e-15 0)
(3 -2.11071e-15 0)
(3 -6.84974e-16 0)
(3 8.62556e-16 0)
(3 1.9148e-15 0)
(3 2.59116e-15 0)
(3 3.31509e-15 0)
(3 4.48921e-15 0)
(3 4.43797e-15 0)
(3 3.20024e-15 0)
(3 2.08422e-15 0)
(1.61974 1.27761 0)
(1.55655 1.32589 0)
(2.40613 0.553981 0)
(3 -3.82359e-12 0)
(3 -3.84479e-11 0)
(3 4.9778e-13 0)
(3 -3.97111e-15 0)
(3 -9.45139e-16 0)
(3 -1.95324e-15 0)
(3 -1.67471e-15 0)
(3 -1.2607e-15 0)
(3 -4.72826e-16 0)
(3 4.08686e-16 0)
(3 1.21432e-15 0)
(3 2.49847e-15 0)
(3 3.91846e-15 0)
(3 4.41247e-15 0)
(3 4.00088e-15 0)
(3 3.77438e-15 0)
(3 3.39123e-15 0)
(1.63756 1.26373 0)
(1.63895 1.24477 0)
(2.65429 0.29078 0)
(3 7.38699e-13 0)
(3 -1.46076e-13 0)
(3 -4.51588e-15 0)
(3 2.88494e-16 0)
(3 -1.04803e-15 0)
(3 -8.30403e-16 0)
(3 -7.90989e-16 0)
(3 -4.69516e-16 0)
(3 -3.31491e-16 0)
(3 -3.62531e-16 0)
(3 5.19359e-16 0)
(3 2.20315e-15 0)
(3 3.87707e-15 0)
(3 4.78157e-15 0)
(3 5.03555e-15 0)
(3 5.27806e-15 0)
(3 5.2225e-15 0)
(1.65347 1.24092 0)
(1.82199 1.10646 0)
(2.86586 0.102927 0)
(3 -1.80252e-14 0)
(3 -1.17719e-15 0)
(3 -1.36006e-15 0)
(3 -1.1568e-15 0)
(3 -1.39887e-15 0)
(3 -1.265e-15 0)
(3 -1.45597e-15 0)
(3 -1.42737e-15 0)
(3 -8.29115e-16 0)
(3 -7.72476e-16 0)
(3 -4.67321e-16 0)
(3 3.35356e-17 0)
(3 7.23192e-16 0)
(3 2.43992e-15 0)
(3 4.25258e-15 0)
(3 6.43595e-15 0)
(3 7.69629e-15 0)
(1.66137 1.20619 0)
(1.87856 0.982769 0)
(2.97714 0.0156084 0)
(3 -1.67271e-15 0)
(3 -1.49581e-15 0)
(3 -1.76805e-15 0)
(3 -2.17642e-15 0)
(3 -1.8492e-15 0)
(3 -1.16552e-15 0)
(3 -1.43674e-15 0)
(3 -1.6334e-15 0)
(3 -1.68816e-15 0)
(3 -1.48124e-15 0)
(3 -1.49567e-15 0)
(3 -1.78337e-15 0)
(3 -1.40925e-15 0)
(3 -1.16108e-15 0)
(3 -6.51361e-16 0)
(3 1.29083e-15 0)
(3 3.01725e-15 0)
(1.716 1.16681 0)
(2.0666 0.813871 0)
(3 -1.37787e-15 0)
(3 -1.08858e-15 0)
(3 -1.45023e-15 0)
(3 -1.92367e-15 0)
(3 -2.84715e-15 0)
(3 -2.13634e-15 0)
(3 -1.51616e-15 0)
(3 -7.50589e-16 0)
(3 -1.05765e-15 0)
(3 -1.53876e-15 0)
(3 -1.78391e-15 0)
(3 -1.75457e-15 0)
(3 -1.63711e-15 0)
(3 -1.74443e-15 0)
(3 -1.8509e-15 0)
(3 -2.19908e-15 0)
(3 -1.95299e-15 0)
(3 -1.59316e-15 0)
(1.78064 1.09914 0)
(2.24082 0.649496 0)
(3 8.23983e-16 0)
(3 -3.73796e-16 0)
(3 -8.00751e-16 0)
(3 -1.16686e-15 0)
(3 -1.54369e-15 0)
(3 -1.68186e-15 0)
(3 -1.26656e-15 0)
(3 -4.09956e-16 0)
(3 -2.01056e-16 0)
(3 -1.30832e-16 0)
(3 -4.52021e-16 0)
(3 -6.26868e-16 0)
(3 -2.42046e-16 0)
(3 -5.13918e-16 0)
(3 -6.95338e-16 0)
(3 -1.23215e-15 0)
(3 -1.7966e-15 0)
(3 -1.81048e-15 0)
(1.80956 1.00726 0)
(2.44179 0.446246 0)
(3 9.18071e-16 0)
(3 1.46632e-15 0)
(3 1.24834e-15 0)
(3 8.89753e-16 0)
(3 1.83789e-16 0)
(3 1.47646e-16 0)
(3 2.12237e-16 0)
(3 5.36455e-16 0)
(3 6.11955e-16 0)
(3 8.96824e-16 0)
(3 8.73452e-16 0)
(3 9.50648e-16 0)
(3 9.20788e-16 0)
(3 1.45964e-15 0)
(3 1.87129e-15 0)
(3 1.97161e-15 0)
(3 1.64781e-15 0)
(3 1.09011e-15 0)
(1.92949 0.881421 0)
(2.69615 0.219665 0)
(3 1.94957e-15 0)
(3 2.39154e-15 0)
(3 1.89651e-15 0)
(3 1.24063e-15 0)
(3 1.10681e-15 0)
(3 7.0611e-16 0)
(3 8.24285e-16 0)
(3 9.26944e-16 0)
(3 1.34114e-15 0)
(3 1.80041e-15 0)
(3 1.61249e-15 0)
(3 1.92218e-15 0)
(3 2.48739e-15 0)
(3 2.82158e-15 0)
(3 3.06335e-15 0)
(3 2.97952e-15 0)
(3 3.04259e-15 0)
(3 3.19601e-15 0)
(2.10104 0.658498 0)
(2.99005 0.000147679 0)
(3 2.17973e-15 0)
(3 2.37777e-15 0)
(3 2.48795e-15 0)
(3 1.84644e-15 0)
(3 1.30436e-15 0)
(3 9.04373e-16 0)
(3 9.77107e-16 0)
(3 7.45573e-16 0)
(3 4.48745e-16 0)
(3 4.29383e-16 0)
(3 5.51832e-16 0)
(3 2.84699e-16 0)
(3 -1.11153e-16 0)
(3 -2.78165e-16 0)
(3 1.3538e-16 0)
(3 2.73848e-16 0)
(3 4.31238e-16 0)
(3 5.99633e-16 0)
(1.99438 0.371653 0)
(2.99992 -8.88032e-06 0)
(3 -9.24213e-16 0)
(3 -2.42854e-15 0)
(3 -2.23163e-15 0)
(3 -2.4784e-15 0)
(3 -2.1353e-15 0)
(3 -1.21635e-15 0)
(3 -8.24217e-16 0)
(3 -1.01276e-15 0)
(3 -1.06434e-15 0)
(3 -1.34794e-15 0)
(3 -1.41605e-15 0)
(3 -1.38818e-15 0)
(3 -1.33587e-15 0)
(3 -1.25536e-15 0)
(3 -1.23684e-15 0)
(3 -1.30609e-15 0)
(3 -1.2558e-15 0)
(3 -1.18769e-15 0)
(1.99456 -0.372601 0)
(2.99993 7.27088e-06 0)
(3 -3.61059e-15 0)
(3 -4.48679e-15 0)
(3 -4.69068e-15 0)
(3 -4.55102e-15 0)
(3 -3.67152e-15 0)
(3 -3.16998e-15 0)
(3 -2.35893e-15 0)
(3 -2.44368e-15 0)
(3 -2.50826e-15 0)
(3 -2.41849e-15 0)
(3 -2.25005e-15 0)
(3 -1.95078e-15 0)
(3 -1.87007e-15 0)
(3 -1.91873e-15 0)
(3 -2.20247e-15 0)
(3 -2.32651e-15 0)
(3 -2.30093e-15 0)
(3 -2.13679e-15 0)
(2.10378 -0.654928 0)
(2.99021 -0.000193478 0)
(3 -2.82292e-15 0)
(3 -3.6559e-15 0)
(3 -3.36417e-15 0)
(3 -3.08706e-15 0)
(3 -2.68932e-15 0)
(3 -2.74413e-15 0)
(3 -2.85914e-15 0)
(3 -3.474e-15 0)
(3 -4.02402e-15 0)
(3 -3.66539e-15 0)
(3 -3.31581e-15 0)
(3 -3.43213e-15 0)
(3 -3.4483e-15 0)
(3 -3.69886e-15 0)
(3 -3.80918e-15 0)
(3 -3.66795e-15 0)
(3 -3.62982e-15 0)
(3 -3.63905e-15 0)
(1.93404 -0.884387 0)
(2.69624 -0.220512 0)
(3 -1.7904e-15 0)
(3 -3.77882e-15 0)
(3 -4.31885e-15 0)
(3 -3.42067e-15 0)
(3 -2.8966e-15 0)
(3 -2.92637e-15 0)
(3 -3.31617e-15 0)
(3 -3.3542e-15 0)
(3 -2.67032e-15 0)
(3 -2.31641e-15 0)
(3 -2.64295e-15 0)
(3 -2.93421e-15 0)
(3 -3.1877e-15 0)
(3 -3.31226e-15 0)
(3 -3.4769e-15 0)
(3 -3.26638e-15 0)
(3 -3.27128e-15 0)
(3 -3.73759e-15 0)
(1.80476 -1.00962 0)
(2.43349 -0.451092 0)
(3 -2.16868e-18 0)
(3 -6.90012e-16 0)
(3 -8.98853e-16 0)
(3 -8.29851e-16 0)
(3 -1.05005e-15 0)
(3 -1.96693e-15 0)
(3 -2.32752e-15 0)
(3 -2.14925e-15 0)
(3 -1.82529e-15 0)
(3 -8.12313e-16 0)
(3 -5.06445e-17 0)
(3 -6.69079e-16 0)
(3 -1.23669e-15 0)
(3 -1.72088e-15 0)
(3 -2.39961e-15 0)
(3 -2.92814e-15 0)
(3 -2.93035e-15 0)
(3 -2.90425e-15 0)
(1.77519 -1.09581 0)
(2.23921 -0.650119 0)
(3 -2.0123e-15 0)
(3 -2.46708e-15 0)
(3 -2.90412e-15 0)
(3 -2.13253e-15 0)
(3 -1.7849e-15 0)
(3 -1.3895e-15 0)
(3 -1.49132e-15 0)
(3 -1.13456e-15 0)
(3 -1.09106e-15 0)
(3 -1.57933e-15 0)
(3 -1.84934e-15 0)
(3 -2.80164e-15 0)
(3 -2.93479e-15 0)
(3 -3.03333e-15 0)
(3 -3.18534e-15 0)
(3 -3.08402e-15 0)
(3 -2.72101e-15 0)
(3 -2.43997e-15 0)
(1.72342 -1.16697 0)
(2.07215 -0.812489 0)
(3 -3.06978e-15 0)
(3 -4.12783e-15 0)
(3 -4.16016e-15 0)
(3 -3.44032e-15 0)
(3 -3.25931e-15 0)
(3 -2.92982e-15 0)
(3 -2.49493e-15 0)
(3 -1.51863e-15 0)
(3 -1.29665e-15 0)
(3 -1.45112e-15 0)
(3 -1.93266e-15 0)
(3 -3.10642e-15 0)
(3 -3.36703e-15 0)
(3 -3.38605e-15 0)
(3 -3.61109e-15 0)
(3 -3.39739e-15 0)
(3 -2.91466e-15 0)
(3 -2.17282e-15 0)
(1.6613 -1.20652 0)
(1.88086 -0.980034 0)
(2.97806 -0.0145427 0)
(3 -4.81144e-15 0)
(3 -5.13238e-15 0)
(3 -3.97445e-15 0)
(3 -2.82243e-15 0)
(3 -2.66594e-15 0)
(3 -2.45491e-15 0)
(3 -2.30417e-15 0)
(3 -3.21019e-15 0)
(3 -3.6188e-15 0)
(3 -3.69787e-15 0)
(3 -3.56296e-15 0)
(3 -3.06485e-15 0)
(3 -2.97383e-15 0)
(3 -2.84153e-15 0)
(3 -2.53737e-15 0)
(3 -2.10148e-15 0)
(3 -1.95318e-15 0)
(1.65296 -1.23977 0)
(1.81714 -1.10559 0)
(2.86436 -0.103021 0)
(3 -2.58818e-16 0)
(3 -5.45647e-15 0)
(3 -5.20429e-15 0)
(3 -2.58589e-15 0)
(3 -6.11181e-16 0)
(3 -1.36007e-15 0)
(3 -2.11439e-15 0)
(3 -2.19737e-15 0)
(3 -2.40367e-15 0)
(3 -2.2319e-15 0)
(3 -2.11078e-15 0)
(3 -1.57871e-15 0)
(3 -1.36931e-15 0)
(3 -1.53069e-15 0)
(3 -8.43222e-16 0)
(3 -6.24859e-16 0)
(3 -7.23485e-16 0)
(1.63679 -1.2656 0)
(1.64387 -1.24241 0)
(2.6536 -0.291129 0)
(3 -9.30471e-13 0)
(3 1.46979e-13 0)
(3 -1.22853e-15 0)
(3 -3.48665e-15 0)
(3 5.44995e-17 0)
(3 -3.88037e-16 0)
(3 -1.17072e-15 0)
(3 -1.30255e-15 0)
(3 -6.13406e-16 0)
(3 7.04639e-17 0)
(3 4.41472e-16 0)
(3 -7.07075e-17 0)
(3 -7.60257e-16 0)
(3 -1.36787e-15 0)
(3 -1.14162e-15 0)
(3 -1.30643e-15 0)
(3 -1.1708e-15 0)
(1.61903 -1.27813 0)
(1.55278 -1.32855 0)
(2.40371 -0.557642 0)
(3 3.52704e-12 0)
(3 2.86521e-11 0)
(3 -4.37194e-13 0)
(3 1.22011e-15 0)
(3 -1.61196e-15 0)
(3 -2.24303e-16 0)
(3 -7.82433e-16 0)
(3 -9.4141e-16 0)
(3 -1.05998e-16 0)
(3 4.84667e-16 0)
(3 2.87229e-16 0)
(3 -8.29561e-16 0)
(3 -1.39169e-15 0)
(3 -1.67759e-15 0)
(3 -1.44903e-15 0)
(3 -1.54371e-15 0)
(3 1.53658e-16 0)
(1.60188 -1.29 0)
(1.47573 -1.37475 0)
(2.18643 -0.808957 0)
(3.01036 0.00848255 0)
(3 -3.28864e-08 0)
(3 3.46465e-11 0)
(3 -6.89037e-14 0)
(3 -1.06691e-15 0)
(3 -5.99114e-17 0)
(3 4.13443e-16 0)
(3 2.65276e-16 0)
(3 4.21749e-16 0)
(3 1.05958e-15 0)
(3 1.61272e-16 0)
(3 -7.82589e-16 0)
(3 -1.18495e-15 0)
(3 -1.43895e-15 0)
(3 -9.19828e-16 0)
(3 -1.23033e-15 0)
(3 1.82426e-15 0)
(1.58899 -1.30432 0)
(1.47621 -1.35186 0)
(1.9589 -1.02934 0)
(2.8709 -0.112266 0)
(3 1.04389e-08 0)
(3 -4.20293e-11 0)
(3 9.93628e-14 0)
(3 5.03942e-17 0)
(3 1.61348e-15 0)
(3 2.04882e-15 0)
(3 1.56848e-15 0)
(3 1.156e-15 0)
(3 9.24529e-16 0)
(3 3.46297e-16 0)
(3 -2.30474e-16 0)
(3 -1.53427e-15 0)
(3 -2.18113e-15 0)
(3 -1.53593e-15 0)
(3 5.06556e-16 0)
(3 3.18213e-15 0)
(1.5946 -1.33125 0)
(1.49644 -1.33697 0)
(1.73212 -1.18697 0)
(2.39117 -0.555717 0)
(3 6.81414e-07 0)
(3 -7.07827e-13 0)
(3 5.04954e-15 0)
(3 -5.68364e-16 0)
(3 3.46211e-15 0)
(3 2.93135e-15 0)
(3 2.0724e-15 0)
(3 1.13451e-15 0)
(3 8.20744e-16 0)
(3 1.43912e-16 0)
(3 -3.00666e-16 0)
(3 -1.98878e-15 0)
(3 -2.28884e-15 0)
(3 -5.16213e-16 0)
(3 3.41964e-15 0)
(3 3.64246e-15 0)
(1.58128 -1.2957 0)
(1.55146 -1.3084 0)
(1.68099 -1.23649 0)
(2.21136 -0.821328 0)
(3.02279 0.0226784 0)
(3 3.7203e-12 0)
(3 -2.63679e-12 0)
(3 -3.84701e-12 0)
(3 2.1676e-12 0)
(3 -6.09641e-15 0)
(3 1.48592e-15 0)
(3 1.18903e-15 0)
(3 5.24476e-16 0)
(3 -1.05981e-15 0)
(3 -1.48586e-15 0)
(3 -2.24882e-15 0)
(3 -2.47473e-15 0)
(3 1.14359e-15 0)
(3 2.84973e-15 0)
(3 3.51861e-15 0)
(1.5813 -1.28227 0)
(1.58771 -1.28171 0)
(1.64431 -1.26228 0)
(1.7706 -1.16206 0)
(2.67502 -0.274036 0)
(3 6.01204e-10 0)
(3 -1.40482e-08 0)
(3 1.26457e-08 0)
(3 -5.39785e-10 0)
(3 -2.49475e-12 0)
(3 1.31086e-13 0)
(3 -1.60346e-15 0)
(3 -4.87488e-18 0)
(3 -9.34128e-16 0)
(3 -2.03448e-15 0)
(3 -2.13493e-15 0)
(3 -3.46578e-16 0)
(3 1.18161e-15 0)
(3 3.16904e-15 0)
(3 3.72355e-15 0)
(1.58154 -1.26284 0)
(1.59437 -1.26724 0)
(1.63042 -1.2649 0)
(1.65739 -1.25331 0)
(2.32733 -0.65253 0)
(3.02064 0.0182839 0)
(2.99975 -0.000143135 0)
(3 4.19949e-06 0)
(3 -8.25321e-08 0)
(3 9.14364e-10 0)
(3 -2.67669e-12 0)
(3 6.33343e-15 0)
(3 3.08102e-16 0)
(3 -3.6232e-16 0)
(3 -1.93356e-15 0)
(3 -1.56021e-15 0)
(3 1.15662e-15 0)
(3 2.04957e-15 0)
(3 3.47852e-15 0)
(3 3.07302e-15 0)
(1.58183 -1.25214 0)
(1.60391 -1.2527 0)
(1.62516 -1.25843 0)
(1.64217 -1.26443 0)
(1.91718 -1.05082 0)
(2.77429 -0.202249 0)
(3.0044 0.000771258 0)
(2.99992 -7.08904e-05 0)
(3 9.284e-07 0)
(3 -8.9431e-10 0)
(3 2.59499e-13 0)
(3 -1.50288e-15 0)
(3 1.31159e-16 0)
(3 -3.01615e-16 0)
(3 -1.04932e-15 0)
(3 -8.25196e-16 0)
(3 8.81894e-16 0)
(3 4.36477e-15 0)
(3 4.80963e-15 0)
(3 2.57167e-15 0)
(1.58105 -1.24673 0)
(1.60431 -1.25143 0)
(1.61865 -1.25609 0)
(1.61342 -1.2718 0)
(1.69756 -1.21686 0)
(2.24987 -0.768095 0)
(3.00502 0.00982795 0)
(3.00011 0.000481718 0)
(3 -7.74778e-07 0)
(3 -5.90407e-11 0)
(3 7.06108e-13 0)
(3 3.84918e-15 0)
(3 -9.87128e-17 0)
(3 -5.08916e-17 0)
(3 1.13792e-16 0)
(3 -2.86533e-16 0)
(3 -2.01876e-16 0)
(3 5.62628e-15 0)
(3 5.51173e-15 0)
(3 3.27797e-15 0)
(1.58187 -1.24549 0)
(1.59403 -1.25623 0)
(1.60638 -1.26393 0)
(1.61049 -1.2774 0)
(1.63791 -1.27243 0)
(1.72269 -1.21399 0)
(2.23383 -0.755616 0)
(2.99117 -0.0203001 0)
(3 -5.08355e-08 0)
(3 3.29402e-11 0)
(3 9.85848e-13 0)
(3 -1.01161e-14 0)
(3 4.53307e-15 0)
(3 -1.91565e-15 0)
(3 1.22643e-15 0)
(3 1.57264e-15 0)
(3 -3.69382e-16 0)
(3 3.95552e-15 0)
(3 4.87303e-15 0)
(3 2.47556e-15 0)
(1.58105 -1.25841 0)
(1.58539 -1.26362 0)
(1.59378 -1.26792 0)
(1.60146 -1.26699 0)
(1.60467 -1.25826 0)
(1.59145 -1.26918 0)
(1.88682 -1.18149 0)
(2.95559 -0.414785 0)
(3.35093 0.631269 0)
(3 -5.88819e-11 0)
(3 7.49053e-11 0)
(3 -8.12171e-11 0)
(3 -1.77843e-15 0)
(3 4.29361e-13 0)
(3 1.49446e-14 0)
(3 -1.31864e-14 0)
(3 1.04439e-14 0)
(3 1.77148e-15 0)
(3 5.0301e-15 0)
(3 5.14071e-15 0)
(1.15876 -0.779512 0)
(1.83539 -1.14542 0)
(1.84115 -1.15425 0)
(1.73876 -1.20036 0)
(1.71044 -1.19818 0)
(1.66087 -1.24237 0)
(1.65429 -1.21549 0)
(1.72627 -1.16774 0)
(1.76164 -1.23609 0)
(1.80302 -1.14195 0)
(2.28305 -0.731988 0)
(2.86607 -0.201215 0)
(3.09976 0.0311135 0)
(3.02119 0.0128125 0)
(3.00461 0.00554954 0)
(3.00182 0.00302264 0)
(3.00005 0.000576746 0)
(2.99998 2.12509e-05 0)
(2.99999 -1.44298e-05 0)
(3 -5.93035e-06 0)
(1.00875 -0.0327954 0)
(1.91542 -0.816716 0)
(2.12075 -0.790776 0)
(2.01298 -0.93524 0)
(1.94759 -0.995346 0)
(1.85708 -1.09123 0)
(1.79262 -1.12951 0)
(1.76411 -1.14447 0)
(1.76279 -1.16146 0)
(1.74208 -1.20191 0)
(1.72333 -1.19306 0)
(1.86252 -1.06671 0)
(2.0911 -0.885649 0)
(2.49525 -0.581763 0)
(2.98409 -0.139172 0)
(3.0739 0.0291239 0)
(3.00821 0.00771588 0)
(3.00294 0.00384132 0)
(3.00123 0.00219791 0)
(3.00008 0.000486646 0)
(1.03213 0.0837345 0)
(1.92213 -0.12235 0)
(2.23411 -0.496585 0)
(2.22977 -0.56809 0)
(2.20995 -0.557617 0)
(2.14271 -0.731888 0)
(2.02644 -0.907472 0)
(1.96157 -0.976302 0)
(1.90757 -1.03635 0)
(1.85729 -1.12363 0)
(1.79444 -1.15923 0)
(1.7898 -1.15141 0)
(1.80615 -1.12998 0)
(1.84826 -1.08688 0)
(2.04176 -0.949509 0)
(2.25971 -0.828514 0)
(2.66231 -0.506336 0)
(3.03492 -0.0941178 0)
(3.05542 0.0236006 0)
(3.00405 0.00468035 0)
(1.22076 0.813676 0)
(1.63625 1.09511 0)
(2.26041 0.605622 0)
(2.37092 -0.0520469 0)
(2.35322 -0.359144 0)
(2.34144 -0.341583 0)
(2.28208 -0.491537 0)
(2.21648 -0.623506 0)
(2.14399 -0.743034 0)
(2.09845 -0.882935 0)
(1.9866 -0.995572 0)
(1.92096 -1.05445 0)
(1.88211 -1.07899 0)
(1.86627 -1.09057 0)
(1.87078 -1.05763 0)
(1.89754 -1.04868 0)
(1.96209 -1.02138 0)
(2.16397 -0.903713 0)
(2.38211 -0.791737 0)
(2.7793 -0.440681 0)
(1.17008 1.3996 0)
(1.38733 1.91225 0)
(1.96003 1.54606 0)
(2.20872 0.394124 0)
(2.41701 0.21617 0)
(2.46536 0.0739243 0)
(2.46761 -0.14911 0)
(2.39693 -0.398118 0)
(2.34261 -0.484132 0)
(2.31347 -0.623769 0)
(2.22071 -0.76926 0)
(2.12328 -0.884633 0)
(2.05966 -0.943618 0)
(2.00602 -0.993568 0)
(1.97813 -0.984099 0)
(1.9583 -0.989212 0)
(1.95583 -1.01139 0)
(1.97064 -0.993956 0)
(1.99506 -0.994695 0)
(2.06955 -0.979521 0)
(1.25779 1.62018 0)
(1.5635 2.23966 0)
(1.90402 1.76432 0)
(2.05883 1.42069 0)
(2.28722 1.23826 0)
(2.37989 0.342099 0)
(2.49975 0.183384 0)
(2.52411 -0.0232684 0)
(2.46659 -0.206867 0)
(2.46271 -0.324059 0)
(2.40259 -0.484979 0)
(2.32915 -0.610012 0)
(2.27452 -0.681275 0)
(2.22251 -0.741592 0)
(2.1826 -0.762754 0)
(2.1423 -0.790345 0)
(2.08445 -0.852699 0)
(2.056 -0.894237 0)
(2.02795 -0.942339 0)
(2.05803 -0.958429 0)
(1.18176 1.37611 0)
(1.82206 2.37085 0)
(2.10462 1.93121 0)
(2.02214 1.7339 0)
(2.18456 1.5046 0)
(2.32618 1.14962 0)
(2.40691 0.882982 0)
(2.47362 0.631008 0)
(2.48411 0.348409 0)
(2.51481 0.222968 0)
(2.5165 0.0225611 0)
(2.47638 -0.161388 0)
(2.4531 -0.291733 0)
(2.41115 -0.417315 0)
(2.35542 -0.540778 0)
(2.31945 -0.607054 0)
(2.2309 -0.719666 0)
(2.18626 -0.758048 0)
(2.17254 -0.774197 0)
(2.1485 -0.783254 0)
(1.12525 1.08851 0)
(1.64353 1.68727 0)
(2.2468 2.16115 0)
(2.17278 2.09409 0)
(2.31278 1.60743 0)
(2.28709 1.49166 0)
(2.40175 1.12357 0)
(2.47372 0.881839 0)
(2.4976 0.744986 0)
(2.54344 0.52249 0)
(2.60442 0.321217 0)
(2.5777 0.0519202 0)
(2.58372 -0.116409 0)
(2.53567 -0.299089 0)
(2.48541 -0.433332 0)
(2.44206 -0.487709 0)
(2.38863 -0.53233 0)
(2.3865 -0.47092 0)
(2.32787 -0.538969 0)
(2.33092 -0.505682 0)
(1.18128 1.00795 0)
(1.49753 1.34399 0)
(1.89048 1.98536 0)
(2.12653 2.36991 0)
(2.5273 1.72475 0)
(2.4548 1.7433 0)
(2.60753 1.2034 0)
(2.68905 0.962476 0)
(2.73494 0.843581 0)
(2.71646 0.47939 0)
(2.73111 0.319121 0)
(2.68521 0.100255 0)
(2.67457 0.0163802 0)
(2.64466 -0.0916415 0)
(2.61382 -0.14615 0)
(2.57485 -0.163273 0)
(2.549 -0.1493 0)
(2.52633 -0.18152 0)
(2.45132 -0.336723 0)
(2.45924 -0.335183 0)
(1.25864 1.0097 0)
(1.40966 1.22532 0)
(1.69146 1.84756 0)
(1.73056 2.16494 0)
(2.32325 1.90493 0)
(2.47867 1.91212 0)
(2.57855 1.4132 0)
(2.65886 1.13942 0)
(2.70686 0.951501 0)
(2.72582 0.82068 0)
(2.72631 0.721806 0)
(2.71069 0.557039 0)
(2.68381 0.473471 0)
(2.68647 0.390864 0)
(2.65672 0.275089 0)
(2.64637 0.207959 0)
(2.64172 0.098936 0)
(2.60843 -0.065513 0)
(2.54775 -0.215255 0)
(2.56253 -0.163941 0)
(1.3177 1.09041 0)
(1.39179 1.22832 0)
(1.52949 1.77959 0)
(1.62167 2.07768 0)
(1.8231 1.99267 0)
(2.07014 1.87058 0)
(2.20221 1.67151 0)
(2.36051 1.38477 0)
(2.46473 1.34084 0)
(2.46752 1.34551 0)
(2.51658 1.1562 0)
(2.57133 1.01003 0)
(2.59404 0.819952 0)
(2.6816 0.726222 0)
(2.67807 0.483361 0)
(2.71631 0.33988 0)
(2.70627 0.1323 0)
(2.68035 -0.00241138 0)
(2.63478 0.00234512 0)
(2.62026 0.0218188 0)
(1.38938 1.222 0)
(1.4489 1.32908 0)
(1.49171 1.84618 0)
(1.58623 2.07055 0)
(1.69611 2.07257 0)
(1.91749 1.93258 0)
(2.03157 1.88794 0)
(2.18924 1.61313 0)
(2.2382 1.54148 0)
(2.32918 1.49317 0)
(2.44902 1.26087 0)
(2.57732 1.14783 0)
(2.63319 0.870071 0)
(2.75013 0.751607 0)
(2.74628 0.475214 0)
(2.75563 0.388825 0)
(2.74837 0.269227 0)
(2.72212 0.262501 0)
(2.70983 0.389742 0)
(2.66273 0.246347 0)
(1.52593 1.38884 0)
(1.57399 1.50213 0)
(1.52426 1.96004 0)
(1.60195 2.13114 0)
(1.7131 2.10041 0)
(1.87046 1.95984 0)
(1.96392 1.94216 0)
(2.14359 1.66225 0)
(2.24223 1.59608 0)
(2.41288 1.50892 0)
(2.52935 1.25445 0)
(2.66662 1.12383 0)
(2.71202 0.924854 0)
(2.75367 0.871121 0)
(2.78217 0.756608 0)
(2.76752 0.75894 0)
(2.74752 0.664986 0)
(2.72328 0.689428 0)
(2.73229 0.688665 0)
(2.70953 0.455528 0)
(1.72111 1.5312 0)
(1.78369 1.62604 0)
(1.64923 2.04685 0)
(1.68154 2.19443 0)
(1.78783 2.10911 0)
(1.94313 2.00342 0)
(2.01517 2.02351 0)
(2.22919 1.72234 0)
(2.36983 1.72921 0)
(2.51901 1.58051 0)