/*--------------------------------*- C++ -*----------------------------------*\
  =========                 |
  \\      /  F ield         | OpenFOAM: The Open Source CFD Toolbox
   \\    /   O peration     | Website:  https://openfoam.org
    \\  /    A nd           | Version:  7
     \\/     M anipulation  |
\*---------------------------------------------------------------------------*/
FoamFile
{
    version     2.0;
    format      ascii;
    class       volScalarField;
    location    "7.9";
    object      rho;
}
// * * * * * * * * * * * * * * * * * * * * * * * * * * * * * * * * * * * * * //

dimensions      [1 -3 0 0 0 0 0];

internalField   nonuniform List<scalar> 
3700
(
0.22007
0.327085
0.423258
0.50831
0.541635
0.550939
0.554607
0.591976
0.589219
0.59418
0.598751
0.598512
0.611297
0.653724
0.682312
0.687842
0.710613
0.723384
0.7267
0.741991
0.122055
0.14657
0.184567
0.195121
0.188182
0.177252
0.185678
0.207191
0.197766
0.20092
0.214099
0.221728
0.222535
0.227392
0.238618
0.262097
0.289829
0.291073
0.287622
0.298876
0.0913028
0.104103
0.114364
0.107817
0.0859791
0.0664365
0.0665293
0.0766462
0.0870504
0.0992556
0.11584
0.12729
0.136253
0.14138
0.141996
0.142705
0.144599
0.148135
0.158624
0.182939
0.0832422
0.0960575
0.104763
0.094805
0.0690717
0.0637473
0.0655814
0.0752147
0.0848017
0.100774
0.120925
0.139266
0.163931
0.187662
0.199926
0.212066
0.21042
0.206512
0.205766
0.227555
0.0784056
0.0895388
0.0891987
0.0756206
0.0669922
0.0722999
0.0788694
0.0868531
0.0956503
0.109564
0.1212
0.138418
0.167683
0.20256
0.230446
0.259171
0.275853
0.284388
0.281856
0.290422
0.0676842
0.081058
0.083512
0.0736801
0.0780875
0.0905421
0.104424
0.121903
0.138795
0.165708
0.156523
0.160829
0.171514
0.204844
0.246004
0.28736
0.328129
0.366278
0.397978
0.429343
0.0562271
0.077713
0.0863144
0.0810232
0.0828562
0.100621
0.118726
0.145892
0.182876
0.220833
0.22837
0.241903
0.241739
0.25429
0.27239
0.311186
0.366561
0.435813
0.495783
0.588036
0.0496177
0.0744846
0.0866516
0.0847132
0.0851298
0.102504
0.119271
0.150637
0.20461
0.253925
0.298253
0.329335
0.360014
0.391625
0.410968
0.437688
0.465923
0.529482
0.610054
0.768122
0.0474969
0.0717471
0.0810589
0.0807318
0.0843216
0.102344
0.117787
0.146207
0.203902
0.269712
0.339853
0.393682
0.466715
0.525355
0.581857
0.635395
0.683101
0.73694
0.805535
1.0111
0.0523225
0.0658615
0.0703305
0.0801847
0.102187
0.125132
0.141637
0.172771
0.218141
0.276554
0.36422
0.447445
0.558038
0.647271
0.745068
0.847425
0.945595
1.03065
1.13575
1.3244
0.063454
0.0576571
0.066003
0.0971426
0.135127
0.170597
0.211184
0.276716
0.35113
0.424973
0.504038
0.596671
0.705446
0.812369
0.93093
1.0835
1.25059
1.39801
1.62756
1.57202
0.0707295
0.0537069
0.0680659
0.107166
0.149017
0.199111
0.284374
0.396768
0.526414
0.677394
0.804641
0.931658
1.05255
1.16797
1.27786
1.43249
1.64864
1.85997
2.18022
2.12203
0.0725931
0.0522872
0.0679377
0.0901461
0.131479
0.195143
0.325508
0.473982
0.667242
0.910739
1.10793
1.30152
1.4851
1.65667
1.84203
2.05848
2.29173
2.5354
2.9154
2.91114
0.0578178
0.0411338
0.0593899
0.0732486
0.115625
0.192668
0.364979
0.592482
0.898055
1.23181
1.52614
1.79226
2.05369
2.30183
2.61255
2.93426
3.24965
3.58123
3.90032
4.18185
0.0350384
0.0303835
0.0542
0.0728672
0.151351
0.43574
0.791453
1.18036
1.64755
2.0633
2.40105
2.69538
2.99538
3.31597
3.73776
4.1329
4.51388
4.85765
5.07622
5.25956
0.0180329
0.0308103
0.0450363
0.156191
0.518592
1.08968
1.61337
2.16962
2.78594
3.30744
3.67991
4.029
4.3855
4.78536
5.24077
5.53185
5.69358
5.74012
5.61061
5.43465
0.0110444
0.0378491
0.143245
0.574393
1.32209
2.06101
2.77932
3.55948
4.38095
4.92169
5.24491
5.55308
5.82362
6.04662
6.20524
6.10877
5.81588
5.08472
3.89837
2.64185
0.0417164
0.229556
0.774503
1.67527
2.911
4.00537
4.91535
5.83311
6.59353
6.73031
6.62452
6.5866
6.51477
6.27243
5.57352
4.25903
2.91796
1.86662
1.42676
1.39012
0.433338
1.19124
2.70346
4.4109
5.85305
6.73472
7.52425
8.15907
7.96094
7.34251
6.75279
6.0119
4.73815
3.25254
1.99751
1.44218
1.38526
1.39294
1.39627
1.39922
3.21364
5.05097
6.77221
7.90335
8.67111
8.92198
9.11135
8.65206
6.29402
4.44397
3.2881
2.17705
1.51129
1.38224
1.39006
1.39488
1.39887
1.39997
1.40003
1.40002
9.63599
9.56251
9.50707
9.58174
9.73252
9.38486
8.32256
3.24829
0.912838
1.40001
1.40001
1.40001
1.40001
1.40001
1.40001
1.40001
1.40001
1.40001
1.40001
1.40001
9.63752
9.54458
9.42419
9.34366
9.30533
7.99019
3.77039
1.44689
1.40001
1.40001
1.40001
1.40001
1.40001
1.40001
1.40001
1.40001
1.40001
1.40001
1.40001
1.40001
9.41985
9.48419
9.47397
9.30782
8.74419
4.7124
1.45014
1.39887
1.40001
1.40001
1.40001
1.40001
1.40001
1.40001
1.40001
1.40001
1.40001
1.40001
1.40001
1.40001
9.23402
9.4176
9.46203
9.25008
6.5203
1.92839
1.39189
1.40017
1.4
1.40001
1.40001
1.40001
1.40001
1.40001
1.40001
1.40001
1.40001
1.40001
1.40001
1.40001
9.09343
9.40416
9.41761
8.37182
3.74407
1.36654
1.40049
1.4
1.40001
1.40001
1.40001
1.40001
1.40001
1.40001
1.40001
1.40001
1.40001
1.40001
1.40001
1.40001
8.97561
9.46003
9.38996
6.86284
2.08927
1.40001
1.40001
1.40001
1.40001
1.40001
1.40001
1.40001
1.40001
1.40001
1.40001
1.40001
1.40001
1.40001
1.40001
1.40001
8.89513
9.3501
9.35188
4.94859
1.36242
1.40001
1.40001
1.40001
1.40001
1.40001
1.40001
1.40001
1.40001
1.40001
1.40001
1.40001
1.40001
1.40001
1.40001
1.40001
8.96348
9.18257
8.33743
2.84702
1.4
1.40001
1.40001
1.40001
1.40001
1.40001
1.40001
1.40001
1.40001
1.40001
1.40001
1.40001
1.40001
1.40001
1.40001
1.40001
9.66848
9.19848
6.76476
1.69684
1.40001
1.40001
1.40001
1.40001
1.40001
1.40001
1.40001
1.40001
1.40001
1.40001
1.40001
1.40001
1.40001
1.40001
1.40001
1.40001
10.1084
8.90942
4.74257
1.38316
1.40001
1.40001
1.40001
1.40001
1.40001
1.40001
1.40001
1.40001
1.40001
1.40001
1.40001
1.40001
1.40001
1.40001
1.40001
1.40001
10.3149
8.26283
3.21293
1.40001
1.40001
1.40001
1.40001
1.40001
1.40001
1.40001
1.40001
1.40001
1.40001
1.40001
1.40001
1.40001
1.40001
1.40001
1.40001
1.40001
10.397
7.48697
2.24105
1.40001
1.40001
1.40001
1.40001
1.40001
1.40001
1.40001
1.40001
1.40001
1.40001
1.40001
1.40001
1.40001
1.40001
1.40001
1.40001
1.40001
10.4202
6.61834
1.64953
1.40001
1.40001
1.40001
1.40001
1.40001
1.40001
1.40001
1.40001
1.40001
1.40001
1.40001
1.40001
1.40001
1.40001
1.40001
1.40001
1.40001
10.1778
5.60775
1.42983
1.40001
1.40001
1.40001
1.40001
1.40001
1.40001
1.40001
1.40001
1.40001
1.40001
1.40001
1.40001
1.40001
1.40001
1.40001
1.40001
1.40001
10.0357
4.45193
1.40001
1.40001
1.40001
1.40001
1.40001
1.40001
1.40001
1.40001
1.40001
1.40001
1.40001
1.40001
1.40001
1.40001
1.40001
1.40001
1.40001
1.40001
9.64868
3.43925
1.40001
1.40001
1.40001
1.40001
1.40001
1.40001
1.40001
1.40001
1.40001
1.40001
1.40001
1.40001
1.40001
1.40001
1.40001
1.40001
1.40001
1.40001
9.17049
2.64272
1.40001
1.40001
1.40001
1.40001
1.40001
1.40001
1.40001
1.40001
1.40001
1.40001
1.40001
1.40001
1.40001
1.40001
1.40001
1.40001
1.40001
1.40001
8.81776
1.9316
1.40001
1.40001
1.40001
1.40001
1.40001
1.40001
1.40001
1.40001
1.40001
1.40001
1.40001
1.40001
1.40001
1.40001
1.40001
1.40001
1.40001
1.40001
7.92874
1.40884
1.40001
1.40001
1.40001
1.40001
1.40001
1.40001
1.40001
1.40001
1.40001
1.40001
1.40001
1.40001
1.40001
1.40001
1.40001
1.40001
1.40001
1.40001
6.4385
1.4001
1.40001
1.40001
1.40001
1.40001
1.40001
1.40001
1.40001
1.40001
1.40001
1.40001
1.40001
1.40001
1.40001
1.40001
1.40001
1.40001
1.40001
1.40001
6.44283
1.40009
1.40001
1.40001
1.40001
1.40001
1.40001
1.40001
1.40001
1.40001
1.40001
1.40001
1.40001
1.40001
1.40001
1.40001
1.40001
1.40001
1.40001
1.40001
7.90092
1.40871
1.40001
1.40001
1.40001
1.40001
1.40001
1.40001
1.40001
1.40001
1.40001
1.40001
1.40001
1.40001
1.40001
1.40001
1.40001
1.40001
1.40001
1.40001
8.83356
1.93294
1.40001
1.40001
1.40001
1.40001
1.40001
1.40001
1.40001
1.40001
1.40001
1.40001
1.40001
1.40001
1.40001
1.40001
1.40001
1.40001
1.40001
1.40001
9.1831
2.6656
1.40001
1.40001
1.40001
1.40001
1.40001
1.40001
1.40001
1.40001
1.40001
1.40001
1.40001
1.40001
1.40001
1.40001
1.40001
1.40001
1.40001
1.40001
9.60621
3.44447
1.40001
1.40001
1.40001
1.40001
1.40001
1.40001
1.40001
1.40001
1.40001
1.40001
1.40001
1.40001
1.40001
1.40001
1.40001
1.40001
1.40001
1.40001
10.0626
4.4246
1.40001
1.40001
1.40001
1.40001
1.40001
1.40001
1.40001
1.40001
1.40001
1.40001
1.40001
1.40001
1.40001
1.40001
1.40001
1.40001
1.40001
1.40001
10.1861
5.60069
1.42884
1.40001
1.40001
1.40001
1.40001
1.40001
1.40001
1.40001
1.40001
1.40001
1.40001
1.40001
1.40001
1.40001
1.40001
1.40001
1.40001
1.40001
10.407
6.61647
1.65353
1.40001
1.40001
1.40001
1.40001
1.40001
1.40001
1.40001
1.40001
1.40001
1.40001
1.40001
1.40001
1.40001
1.40001
1.40001
1.40001
1.40001
10.387
7.50414
2.24509
1.40001
1.40001
1.40001
1.40001
1.40001
1.40001
1.40001
1.40001
1.40001
1.40001
1.40001
1.40001
1.40001
1.40001
1.40001
1.40001
1.40001
10.3066
8.26242
3.22606
1.40001
1.40001
1.40001
1.40001
1.40001
1.40001
1.40001
1.40001
1.40001
1.40001
1.40001
1.40001
1.40001
1.40001
1.40001
1.40001
1.40001
10.1026
8.89638
4.75057
1.38328
1.40001
1.40001
1.40001
1.40001
1.40001
1.40001
1.40001
1.40001
1.40001
1.40001
1.40001
1.40001
1.40001
1.40001
1.40001
1.40001
9.68455
9.22696
6.76976
1.68083
1.40001
1.40001
1.40001
1.40001
1.40001
1.40001
1.40001
1.40001
1.40001
1.40001
1.40001
1.40001
1.40001
1.40001
1.40001
1.40001
8.95182
9.17199
8.33113
2.86097
1.4
1.40001
1.40001
1.40001
1.40001
1.40001
1.40001
1.40001
1.40001
1.40001
1.40001
1.40001
1.40001
1.40001
1.40001
1.40001
8.87121
9.30077
9.34589
4.94293
1.36239
1.40001
1.40001
1.40001
1.40001
1.40001
1.40001
1.40001
1.40001
1.40001
1.40001
1.40001
1.40001
1.40001
1.40001
1.40001
8.96871
9.4718
9.40777
6.8883
2.07747
1.40001
1.40001
1.40001
1.40001
1.40001
1.40001
1.40001
1.40001
1.40001
1.40001
1.40001
1.40001
1.40001
1.40001
1.40001
9.10717
9.43254
9.42056
8.33883
3.77518
1.36616
1.40049
1.4
1.40001
1.40001
1.40001
1.40001
1.40001
1.40001
1.40001
1.40001
1.40001
1.40001
1.40001
1.40001
9.24919
9.43265
9.4637
9.23045
6.51632
1.91931
1.39227
1.40016
1.4
1.40001
1.40001
1.40001
1.40001
1.40001
1.40001
1.40001
1.40001
1.40001
1.40001
1.40001
9.41847
9.47876
9.47886
9.32127
8.7905
4.67868
1.44405
1.39906
1.40001
1.40001
1.40001
1.40001
1.40001
1.40001
1.40001
1.40001
1.40001
1.40001
1.40001
1.40001
9.63608
9.54843
9.44142
9.34143
9.27429
7.99564
3.76262
1.44656
1.40001
1.40001
1.40001
1.40001
1.40001
1.40001
1.40001
1.40001
1.40001
1.40001
1.40001
1.40001
9.63997
9.56912
9.51711
9.56278
9.69427
9.38345
8.3307
3.29246
0.901773
1.40001
1.40001
1.40001
1.40001
1.40001
1.40001
1.40001
1.40001
1.40001
1.40001
1.40001
3.22046
5.05076
6.76676
7.89523
8.66489
8.92706
9.10403
8.65757
6.29522
4.44102
3.28215
2.17055
1.50857
1.38205
1.38998
1.39484
1.39886
1.39997
1.40003
1.40002
0.427779
1.2235
2.78179
4.42747
5.82382
6.72149
7.53194
8.1706
7.96879
7.3431
6.75037
6.00842
4.73495
3.25248
1.99829
1.44249
1.38524
1.39293
1.39627
1.39922
0.0335407
0.165188
0.678562
1.65363
2.92986
4.0172
4.92137
5.8371
6.60278
6.73331
6.63201
6.59775
6.52693
6.27805
5.57081
4.25585
2.91768
1.86734
1.427
1.39011
0.0223892
0.060148
0.179644
0.561946
1.29815
2.04715
2.77654
3.56204
4.38834
4.92591
5.25613
5.5687
5.83671
6.04924
6.20181
6.10539
5.81321
5.08317
3.89794
2.64233
0.0308342
0.0435495
0.0500215
0.146623
0.505679
1.07184
1.59476
2.15289
2.77502
3.3017
3.68398
4.03967
4.39442
4.78827
5.24017
5.52873
5.68975
5.73779
5.60868
5.43397
0.04369
0.0433977
0.0478177
0.0703764
0.151325
0.44013
0.782687
1.16435
1.62979
2.05008
2.3964
2.69527
2.99601
3.31619
3.73827
4.13281
4.51218
4.85557
5.07471
5.25959
0.059486
0.0443582
0.0537136
0.0760693
0.118074
0.20095
0.365566
0.587158
0.88991
1.2224
1.51841
1.7868
2.05
2.29952
2.61177
2.9346
3.24893
3.57998
3.89873
4.18048
0.0655991
0.0498866
0.0761932
0.10408
0.134208
0.202432
0.330571
0.475589
0.667127
0.909989
1.1065
1.29999
1.48383
1.65575
1.84211
2.05872
2.29054
2.53337
2.91477
2.91227
0.0635397
0.0565864
0.0814343
0.115158
0.150266
0.207004
0.29044
0.40137
0.530514
0.680988
0.80686
0.932557
1.05368
1.16954
1.2796
1.43373
1.64963
1.861
2.18134
2.12272
0.0566444
0.0629397
0.0755666
0.100635
0.135706
0.177181
0.217418
0.284527
0.357272
0.428762
0.506111
0.597607
0.706207
0.813401
0.93161
1.084
1.25118
1.39871
1.62762
1.57128
0.0485563
0.0691351
0.0760509
0.0796382
0.100809
0.133113
0.142327
0.173496
0.218367
0.275925
0.363371
0.447205
0.557567
0.646504
0.744267
0.846896
0.945452
1.03077
1.1363
1.32489
0.0449991
0.0707534
0.0813247
0.0788015
0.0798493
0.103406
0.117136
0.144633
0.202063
0.269088
0.33954
0.393276
0.465933
0.52427
0.580696
0.634301
0.682381
0.737527
0.80699
1.01277
0.0481854
0.0689694
0.0829692
0.0826798
0.0829223
0.100446
0.118603
0.149348
0.203909
0.253489
0.298047
0.329077
0.359493
0.390556
0.40902
0.435651
0.464771
0.530142
0.610487
0.769332
0.0568519
0.0709763
0.0826176
0.0820118
0.0832696
0.0995718
0.118674
0.144457
0.183073
0.220436
0.227241
0.240814
0.240019
0.25202
0.270437
0.310864
0.367348
0.436254
0.495583
0.586521
0.0714179
0.07605
0.0808405
0.0730918
0.0778343
0.0909182
0.10606
0.121161
0.138859
0.164177
0.155687
0.160594
0.171133
0.203919
0.246435
0.288675
0.329201
0.366057
0.397597
0.428949
0.0855931
0.0876587
0.0853888
0.0718432
0.0657919
0.0738065
0.0820343
0.087896
0.0974679
0.110912
0.122034
0.137788
0.167063
0.204096
0.232669
0.260285
0.275534
0.284227
0.282916
0.292055
0.0955816
0.10449
0.103982
0.0842343
0.0624981
0.0634892
0.0676408
0.0752951
0.0863076
0.101798
0.1218
0.139741
0.165827
0.190582
0.202059
0.212285
0.209938
0.207374
0.207104
0.229286
0.101454
0.110836
0.113717
0.100941
0.0763548
0.0641842
0.0678618
0.0766416
0.0880909
0.100348
0.118416
0.131036
0.13965
0.143094
0.142186
0.142036
0.143568
0.147718
0.159397
0.183416
0.119806
0.140144
0.156728
0.170575
0.169935
0.144016
0.111178
0.116789
0.142791
0.169864
0.209854
0.256958
0.298025
0.32502
0.311599
0.271115
0.237279
0.243747
0.271667
0.272584
0.211799
0.328962
0.399838
0.482847
0.525341
0.521197
0.510754
0.526791
0.557951
0.580251
0.611805
0.632137
0.649944
0.672674
0.679326
0.663543
0.66005
0.70147
0.735633
0.733401
0.777433
0.874334
0.96917
1.14039
1.16645
1.20122
1.17839
1.15542
1.17363
1.24062
1.31348
1.33441
1.32446
1.2965
1.29252
1.31663
1.34581
1.34833
1.33556
1.32192
0.393999
0.574614
0.750207
0.948731
1.08712
1.18128
1.17422
1.1741
1.19505
1.24967
1.30535
1.33269
1.32679
1.30287
1.2973
1.31063
1.33694
1.34195
1.33425
1.32096
0.195833
0.224577
0.336726
0.46786
0.735504
0.987746
1.07999
1.18593
1.23069
1.25584
1.27949
1.30533
1.30442
1.30945
1.31791
1.32654
1.32759
1.32592
1.32466
1.32704
0.267233
0.300348
0.319124
0.333866
0.362907
0.478283
0.772895
1.04675
1.15699
1.24745
1.26061
1.28498
1.28593
1.31092
1.33544
1.33915
1.33271
1.3212
1.32091
1.33187
0.326916
0.366668
0.380914
0.396246
0.404204
0.408151
0.445603
0.600918
0.907281
1.14492
1.19858
1.246
1.27331
1.31742
1.34759
1.34916
1.33762
1.31744
1.32003
1.33628
0.426041
0.454206
0.478006
0.458429
0.438128
0.442595
0.474088
0.482407
0.541661
0.718591
0.977092
1.14675
1.22462
1.30743
1.33595
1.34004
1.33423
1.32089
1.32417
1.34337
0.559629
0.576081
0.555662
0.501683
0.4917
0.495371
0.514694
0.538258
0.539854
0.540492
0.633513
0.892044
1.1175
1.28668
1.30823
1.32823
1.32912
1.31675
1.32643
1.34617
0.734335
0.714776
0.670887
0.603633
0.551687
0.548558
0.572287
0.577033
0.575328
0.570469
0.554947
0.614398
0.888351
1.148
1.25268
1.31564
1.31273
1.31072
1.33942
1.34727
0.940813
0.875401
0.793712
0.707539
0.63456
0.618712
0.625063
0.621336
0.622382
0.612425
0.594113
0.578219
0.630529
0.866047
1.14897
1.30017
1.27219
1.29815
1.35171
1.34687
1.19887
1.06711
0.962264
0.847647
0.730434
0.684394
0.677649
0.661722
0.658227
0.654685
0.643029
0.618113
0.605175
0.636308
0.837466
1.14199
1.21967
1.30719
1.36112
1.34258
1.7668
1.30066
1.09796
1.03748
0.964417
0.825088
0.756565
0.743775
0.724053
0.723402
0.719082
0.691723
0.669568
0.648215
0.662876
0.785908
1.04673
1.24633
1.31259
1.32995
2.84983
2.09381
1.49913
1.34365
1.28813
1.14112
0.990278
0.885043
0.810808
0.787989
0.783755
0.765774
0.745386
0.728242
0.692197
0.686636
0.737181
0.889765
1.09399
1.2693
3.47757
3.03772
2.3978
1.81091
1.53765
1.33994
1.18564
1.08681
0.959872
0.907776
0.899114
0.873095
0.845768
0.809566
0.769464
0.732732
0.736182
0.746853
0.802402
1.04012
3.29873
3.26808
3.12844
2.69198
2.16058
1.75484
1.49292
1.37955
1.24222
1.1433
1.06579
0.986231
0.912486
0.864547
0.835292
0.819937
0.801351
0.7822
0.76271
0.809911
2.35461
2.98814
3.09644
3.0518
2.8553
2.50237
2.0645
1.73307
1.5071
1.32834
1.21585
1.11923
1.02279
0.986741
0.972863
0.947675
0.914659
0.872388
0.803181
0.801603
1.55118
2.01194
2.57599
2.94299
2.94222
2.89577
2.70412
2.35115
2.00734
1.68546
1.50188
1.38971
1.28142
1.18786
1.10565
1.02694
0.976402
0.930028
0.886835
0.849523
1.40632
1.46176
1.6864
2.15769
2.60301
2.82295
2.81401
2.745
2.56323
2.26128
1.9392
1.71108
1.51309
1.36734
1.24954
1.12351
1.059
1.03654
1.02808
0.977548
1.40014
1.40153
1.41483
1.50824
1.77195
2.19525
2.55109
2.70363
2.69294
2.63602
2.46817
2.20798
1.92896
1.70323
1.54439
1.40625
1.28505
1.22744
1.17348
1.07026
1.40001
1.40002
1.40021
1.40346
1.42555
1.5416
1.80812
2.17686
2.46542
2.59694
2.58865
2.53868
2.40466
2.17083
1.9265
1.71994
1.53747
1.38991
1.29195
1.16986
1.40001
1.40001
1.40001
1.40004
1.40044
1.40568
1.43419
1.55225
1.79703
2.13253
2.37565
2.49851
2.4935
2.45534
2.34296
2.15076
1.93649
1.71942
1.56964
1.39979
1.40001
1.40001
1.40001
1.40001
1.40001
1.40007
1.40067
1.40673
1.43682
1.54635
1.76932
2.06795
2.29233
2.40646
2.4044
2.37902
2.29659
2.13564
1.9514
1.67364
1.40001
1.40001
1.40001
1.40001
1.40001
1.40001
1.40001
1.40009
1.40081
1.40652
1.43665
1.5307
1.72732
1.98418
2.21126
2.32829
2.32522
2.30742
2.25856
2.04473
1.40001
1.40001
1.40001
1.40001
1.40001
1.40001
1.40001
1.40001
1.40001
1.40009
1.40087
1.40571
1.43079
1.51369
1.67493
1.91113
2.10999
2.25716
2.2569
2.22111
1.40001
1.40001
1.40001
1.40001
1.40001
1.40001
1.40001
1.40001
1.40001
1.40001
1.40001
1.40008
1.40072
1.40502
1.42328
1.49204
1.62831
1.83792
2.01912
2.16935
1.40001
1.40001
1.40001
1.40001
1.40001
1.40001
1.40001
1.40001
1.40001
1.40001
1.40001
1.40001
1.40001
1.40007
1.40055
1.40371
1.41958
1.47127
1.5897
1.94366
2.25047
3.42617
3.5944
2.90704
1.83147
1.45157
1.40262
1.40007
1.40001
1.40001
1.40001
1.40001
1.40001
1.40001
1.40001
3.26086
3.91557
3.51892
2.15295
1.46745
1.40114
1.40001
1.4
1.40001
1.40001
1.40001
1.40001
1.40001
1.40001
1.40001
4.07693
3.99013
2.76113
1.61211
1.40726
1.40008
1.40001
1.40001
1.40001
1.40001
1.40001
1.40001
1.40001
1.40001
1.40001
4.52287
3.56195
1.9075
1.42695
1.40027
1.40001
1.40001
1.40001
1.40001
1.40001
1.40001
1.40001
1.40001
1.40001
1.40001
4.62278
2.3509
1.46566
1.40071
1.40001
1.40001
1.40001
1.40001
1.40001
1.40001
1.40001
1.40001
1.40001
1.40001
1.40001
2.88118
1.5018
1.40069
1.4
1.4
1.4
1.40001
1.40001
1.40001
1.40001
1.40001
1.40001
1.40001
1.40001
1.40001
1.54174
1.40076
1.4
1.4
1.40001
1.40001
1.40001
1.40001
1.40001
1.40001
1.40001
1.40001
1.40001
1.40001
1.40001
1.39742
1.39982
1.4
1.40001
1.40001
1.40001
1.40001
1.40001
1.40001
1.40001
1.40001
1.40001
1.40001
1.40001
1.40001
1.39996
1.40001
1.40001
1.40001
1.40001
1.40001
1.40001
1.40001
1.40001
1.40001
1.40001
1.40001
1.40001
1.40001
1.40001
1.40001
1.40001
1.40001
1.40001
1.40001
1.40001
1.40001
1.40001
1.40001
1.40001
1.40001
1.40001
1.40001
1.40001
1.40001
1.40001
1.40001
1.40001
1.40001
1.40001
1.40001
1.40001
1.40001
1.40001
1.40001
1.40001
1.40001
1.40001
1.40001
1.40001
1.40001
1.40001
1.40001
1.40001
1.40001
1.40001
1.40001
1.40001
1.40001
1.40001
1.40001
1.40001
1.40001
1.40001
1.40001
1.40001
1.40001
1.40001
1.40001
1.40001
1.40001
1.40001
1.40001
1.40001
1.40001
1.40001
1.40001
1.40001
1.40001
1.40001
1.40001
1.40001
1.40001
1.40001
1.40001
1.40001
1.40001
1.40001
1.40001
1.40001
1.40001
1.40001
1.40001
1.40001
1.40001
1.40001
1.40001
1.40001
1.40001
1.40001
1.40001
1.40001
1.40001
1.40001
1.40001
1.40001
1.40001
1.40001
1.40001
1.40001
1.40001
1.40001
1.40001
1.40001
1.40001
1.40001
1.40001
1.40001
1.40001
1.40001
1.40001
1.40001
1.40001
1.40001
1.40001
1.40001
1.40001
1.40001
1.40001
1.40001
1.40001
1.40001
1.40001
1.40001
1.40001
1.40001
1.40001
1.40001
1.40001
1.40001
1.40001
1.40001
1.40001
1.40001
1.40001
1.40001
1.40001
1.40001
1.40001
1.40001
1.40001
1.40001
1.40001
1.40001
1.40001
1.40001
1.40001
1.40001
1.40001
1.40001
1.40001
1.40001
1.40001
1.40001
1.40001
1.40001
1.40001
1.40001
1.40001
1.40001
1.40001
1.40001
1.40001
1.40001
1.40001
1.40001
1.40001
1.40001
1.40001
1.40001
1.40001
1.40001
1.40001
1.40001
1.40001
1.40001
1.40001
1.40001
1.40001
1.40001
1.40001
1.40001
1.40001
1.40001
1.40001
1.40001
1.40001
1.40001
1.40001
1.40001
1.40001
1.40001
1.40001
1.40001
1.40001
1.40001
1.40001
1.40001
1.40001
1.40001
1.40001
1.40001
1.40001
1.40001
1.40001
1.40001
1.40001
1.40001
1.40001
1.40001
1.40001
1.40001
1.40001
1.40001
1.40001
1.40001
1.40001
1.40001
1.40001
1.40001
1.40001
1.40001
1.40001
1.40001
1.40001
1.40001
1.40001
1.40001
1.40001
1.40001
1.40001
1.40001
1.40001
1.40001
1.40001
1.40001
1.40001
1.40001
1.40001
1.40001
1.40001
1.40001
1.40001
1.40001
1.40001
1.40001
1.40001
1.40001
1.40001
1.40001
1.40001
1.40001
1.40001
1.40001
1.40001
1.40001
1.40001
1.40001
1.40001
1.40001
1.40001
1.40001
1.40001
1.40001
1.40001
1.40001
1.40001
1.40001
1.40001
1.40001
1.40001
1.40001
1.40001
1.40001
1.40001
1.40001
1.40001
1.40001
1.40001
1.40001
1.40001
1.40001
1.40001
1.40001
1.40001
1.40001
1.40001
1.40001
1.40001
1.40001
1.40001
1.40001
1.40001
1.40001
1.40001
1.40001
1.40001
1.40001
1.40001
1.40001
1.40001
1.40001
1.40001
1.40001
1.40001
1.40001
1.40001
1.40001
1.40001
1.40001
1.40001
1.40001
1.40001
1.40001
1.40001
1.40001
1.40001
1.40001
1.40001
1.40001
1.40001
1.40001
1.40001
1.40001
1.40001
1.40001
1.40001
1.40001
1.40001
1.40001
1.40001
1.40001
1.40001
1.40001
1.40001
1.40001
1.40001
1.40001
1.40001
1.40001
1.40001
1.40001
1.40001
1.40001
1.40001
1.40001
1.40001
1.40001
1.40001
1.40001
1.40001
1.40001
1.40001
1.40001
1.40001
1.40001
1.40001
1.40001
1.40001
1.40001
1.40001
1.40001
1.40001
1.40001
1.40001
1.40001
1.40001
1.40001
1.40001
1.40001
1.40001
1.40001
1.40001
1.40001
1.40001
1.40001
1.40001
1.40001
1.40001
1.40001
1.40001
1.40001
1.40001
1.40001
1.40001
1.40001
1.40001
1.40001
1.40001
1.40001
1.40001
1.40001
1.40001
1.40001
1.40001
1.40001
1.40001
1.40001
1.40001
1.40001
1.40001
1.40001
1.40001
1.40001
1.40001
1.40001
1.40001
1.40001
1.40001
1.40001
1.40001
1.40001
1.40001
1.40001
1.40001
1.40001
1.40001
1.40001
1.40001
1.40001
1.40001
1.40001
1.40001
1.40001
1.40001
1.40001
1.40001
1.40001
1.40001
1.40001
1.40001
1.40001
1.40001
1.40001
1.40001
1.40001
1.40001
1.40001
1.40001
1.40001
1.40001
1.40001
1.40001
1.40001
1.40001
1.40001
1.40001
1.40001
1.40001
1.40001
1.40001
1.40001
1.40001
1.40001
1.40001
1.40001
1.40001
1.40001
1.40001
1.40001
1.40001
1.40001
1.40001
1.40001
1.40001
1.40001
1.40001
1.40001
1.40001
1.40001
1.40001
1.40001
1.40001
1.40001
1.40001
1.40001
1.40001
1.40001
1.40001
1.40001
1.40001
1.40001
1.40001
1.40001
1.40001
1.40001
1.40001
1.40001
1.40001
1.40001
1.40001
1.40001
1.40001
1.40001
1.40001
1.40001
1.40001
1.40001
1.40001
1.40001
1.40001
1.40001
1.40001
1.40001
1.40001
1.40001
1.40001
1.40001
1.40001
1.40001
1.40001
1.40001
1.40001
1.40001
1.40001
1.40001
1.40001
1.40001
1.40001
1.40001
1.40001
1.40001
1.40001
1.40001
1.40001
1.40001
1.40001
1.40001
1.40001
1.40001
1.40001
1.40001
1.40001
1.40001
1.40001
1.40001
1.40001
1.40001
1.40001
1.40001
1.40001
1.40001
1.40001
1.40001
1.40001
1.40001
1.40001
1.40001
1.40001
1.40001
1.40001
1.40001
1.40001
1.40001
1.40001
1.40001
1.40001
1.40001
1.40001
1.40001
1.40001
1.40001
1.40001
1.40001
1.40001
1.40001
1.40001
1.40001
1.40001
1.40001
1.40001
1.40001
1.40001
1.40001
1.40001
1.40001
1.40001
1.40001
1.40001
1.40001
1.40001
1.40001
1.40001
1.40001
1.40001
1.40001
1.40001
1.40001
1.40001
1.40001
1.40001
1.40001
1.40001
1.40001
1.40001
1.40001
1.40001
1.40001
1.40001
1.40001
1.40001
1.40001
1.40001
1.40001
1.40001
1.40001
1.40001
1.40001
1.40001
1.40001
1.40001
1.40001
1.40001
1.40001
1.40001
1.40001
1.40001
1.40001
1.40001
1.40001
1.40001
1.40001
1.40001
1.40001
1.40001
1.40001
1.40001
1.40001
1.40001
1.40001
1.40001
1.40001
1.40001
1.40001
1.40001
1.40001
1.40001
1.40001
1.40001
1.40001
1.40001
1.40001
1.40001
1.40001
1.40001
1.40001
1.40001
1.40001
1.40001
1.40001
1.40001
1.40001
1.40001
1.40001
1.40001
1.40001
1.40001
1.40001
1.40001
1.40001
1.40001
1.40001
1.40001
1.40001
1.40001
1.40001
1.40001
1.40001
1.40001
1.40001
1.40001
1.40001
1.40001
1.40001
1.40001
1.40001
1.40001
1.40001
1.40001
1.40001
1.40001
1.40001
1.40001
1.40001
1.40001
1.40001
1.40001
1.40001
1.40001
1.40001
1.40001
1.40001
1.40001
1.40001
1.40001
1.40001
1.40001
1.40001
1.40001
1.40001
1.40001
1.40001
1.40001
1.40001
1.40001
1.40001
1.40001
1.40001
1.40001
1.40001
1.40001
1.40001
1.40001
1.40001
1.40001
1.40001
1.40001
1.40001
1.40001
1.40001
1.40001
1.40001
1.40001
1.40001
1.40001
1.40001
1.40001
1.40001
1.40001
1.40001
1.40001
1.40001
1.40001
1.40001
1.40001
1.40001
1.40001
1.40001
1.40001
1.40001
1.40001
1.40001
1.40001
1.40001
1.40001
1.40001
1.40001
1.40001
1.40001
1.40001
1.40001
1.40001
1.40001
1.40001
1.40001
1.40001
1.40001
1.40001
1.40001
1.40001
1.40001
1.40001
1.40001
1.40001
1.40001
1.40001
1.40001
1.40001
1.40001
1.40001
1.40001
1.40001
1.40001
1.40001
1.40001
1.40001
1.40001
1.40001
1.40001
1.40001
1.40001
1.40001
1.40001
1.40001
1.40001
1.40001
1.40001
1.40001
1.40001
1.40001
1.40001
1.40001
1.40001
1.40001
1.40001
1.40001
1.40001
1.40001
1.40001
1.40001
1.40001
1.40001
1.40001
1.40001
1.40001
1.40001
1.40001
1.40001
1.40001
1.40001
1.40001
1.40001
1.40001
1.40001
1.40001
1.40001
1.40001
1.40001
1.40001
1.40001
1.40001
1.40001
1.40001
1.40001
1.40001
1.40001
1.40001
1.40001
1.40001
1.40001
1.40001
1.40001
1.40001
1.40001
1.40001
1.40001
1.40001
1.40001
1.40001
1.40001
1.39996
1.40001
1.40001
1.40001
1.40001
1.40001
1.40001
1.40001
1.40001
1.40001
1.40001
1.40001
1.40001
1.40001
1.40001
1.39742
1.39982
1.4
1.40001
1.40001
1.40001
1.40001
1.40001
1.40001
1.40001
1.40001
1.40001
1.40001
1.40001
1.40001
1.54189
1.40077
1.4
1.4
1.40001
1.40001
1.40001
1.40001
1.40001
1.40001
1.40001
1.40001
1.40001
1.40001
1.40001
2.88124
1.50175
1.40068
1.4
1.4
1.4
1.40001
1.40001
1.40001
1.40001
1.40001
1.40001
1.40001
1.40001
1.40001
4.62294
2.35046
1.46566
1.40071
1.40001
1.40001
1.40001
1.40001
1.40001
1.40001
1.40001
1.40001
1.40001
1.40001
1.40001
4.52333
3.56226
1.90726
1.42687
1.40027
1.40001
1.40001
1.40001
1.40001
1.40001
1.40001
1.40001
1.40001
1.40001
1.40001
4.07667
3.99054
2.76152
1.6123
1.40727
1.40007
1.40001
1.40001
1.40001
1.40001
1.40001
1.40001
1.40001
1.40001
1.40001
3.26086
3.91513
3.51899
2.15314
1.46752
1.40114
1.40001
1.4
1.40001
1.40001
1.40001
1.40001
1.40001
1.40001
1.40001
2.25086
3.42599
3.59453
2.90731
1.83169
1.4515
1.40262
1.40007
1.40001
1.40001
1.40001
1.40001
1.40001
1.40001
1.40001
1.75958
2.84389
3.47888
3.29938
2.35247
1.55171
1.40633
1.40014
1.40001
1.40001
1.40001
1.40001
1.40001
1.40001
1.40001
1.31924
2.08151
3.03535
3.26855
2.99187
2.01263
1.46188
1.40153
1.40002
1.40001
1.40001
1.40001
1.40001
1.40001
1.40001
1.10426
1.53013
2.40404
3.12644
3.09873
2.57749
1.68683
1.41486
1.40021
1.40001
1.40001
1.40001
1.40001
1.40001
1.40001
1.03078
1.3562
1.81374
2.69644
3.05364
2.94427
2.15841
1.50823
1.40345
1.40004
1.40001
1.40001
1.40001
1.40001
1.40001
0.95335
1.28487
1.52312
2.16616
2.85942
2.94228
2.60331
1.77239
1.42562
1.40044
1.40001
1.40001
1.40001
1.40001
1.40001
0.821579
1.14768
1.34009
1.7274
2.49322
2.89501
2.82185
2.1953
1.54167
1.40568
1.40007
1.40001
1.40001
1.40001
1.40001
0.750278
0.989365
1.204
1.50691
2.05793
2.69665
2.81259
2.55032
1.8078
1.43419
1.40068
1.40001
1.40001
1.40001
1.40001
0.735388
0.872383
1.08107
1.38222
1.74907
2.35293
2.74506
2.70378
2.17747
1.55213
1.40669
1.40009
1.40001
1.40001
1.40001
0.733956
0.8131
0.949186
1.22457
1.50396
2.01303
2.56423
2.69376
2.46613
1.79747
1.43691
1.40081
1.40001
1.40001
1.40001
0.734013
0.795011
0.927476
1.1411
1.31096
1.68828
2.26461
2.63695
2.59739
2.1321
1.54621
1.40652
1.40009
1.40001
1.40001
0.716474
0.775878
0.91395
1.07735
1.20988
1.49525
1.94344
2.46999
2.58922
2.37657
1.76905
1.4364
1.40087
1.40001
1.40001
0.686815
0.752036
0.870613
0.985407
1.11433
1.39191
1.71014
2.20963
2.53992
2.4989
2.06746
1.53096
1.40573
1.40008
1.40001
0.666543
0.737763
0.837047
0.910525
1.0318
1.28313
1.51594
1.93295
2.40362
2.49352
2.29153
1.72698
1.43091
1.40072
1.40001
0.647873
0.722618
0.809858
0.866537
0.988833
1.18886
1.36668
1.70701
2.1714
2.45502
2.40743
1.98471
1.51302
1.40497
1.40007
0.66438
0.684427
0.772469
0.836811
0.974687
1.10678
1.23972
1.5408
1.93089
2.34347
2.40515
2.21181
1.67508
1.42333
1.40055
0.786254
0.683122
0.725589
0.822417
0.952988
1.03343
1.12302
1.39893
1.71663
2.15165
2.37922
2.32677
1.91235
1.49239
1.40373
1.04548
0.731374
0.727458
0.803503
0.918823
0.978676
1.06781
1.28948
1.53347
1.93456
2.29648
2.32399
2.10967
1.62835
1.41955
1.2441
0.890132
0.741041
0.781983
0.869724
0.924076
1.03919
1.23024
1.39248
1.71962
2.13545
2.30727
2.25626
1.8367
1.47102
1.31122
1.09682
0.799507
0.760332
0.796266
0.881149
1.02633
1.17179
1.29304
1.57057
1.95198
2.2582
2.25614
2.0187
1.58955
1.32969
1.27091
1.03929
0.807499
0.797488
0.851214
0.976247
1.06887
1.16832
1.3983
1.67392
2.04469
2.22089
2.16929
1.94348
1.20312
1.0674
0.950208
0.834039
0.734584
0.694624
0.683507
0.661879
0.664327
0.661116
0.642929
0.617918
0.607039
0.638466
0.84436
1.15195
1.22684
1.30548
1.35945
1.34329
0.943757
0.874703
0.784236
0.691292
0.629371
0.620548
0.621716
0.61428
0.622108
0.617827
0.59713
0.577245
0.625552
0.865388
1.1421
1.31028
1.27934
1.29925
1.34951
1.34706
0.738269
0.711625
0.661803
0.596645
0.549622
0.552116
0.574225
0.582511
0.581807
0.573572
0.551481
0.614814
0.880026
1.14836
1.27752
1.32919
1.32021
1.30742
1.33584
1.34623
0.565054
0.566685
0.544299
0.508952
0.498972
0.503186
0.518074
0.539065
0.538783
0.53373
0.617288
0.895808
1.12526
1.30139
1.33725
1.34091
1.32867
1.31133
1.31909
1.34108
0.429745
0.450441