/*--------------------------------*- C++ -*----------------------------------*\
  =========                 |
  \\      /  F ield         | OpenFOAM: The Open Source CFD Toolbox
   \\    /   O peration     | Website:  https://openfoam.org
    \\  /    A nd           | Version:  7
     \\/     M anipulation  |
\*---------------------------------------------------------------------------*/
FoamFile
{
    version     2.0;
    format      ascii;
    class       volVectorField;
    location    "7.9";
    object      U;
}
// * * * * * * * * * * * * * * * * * * * * * * * * * * * * * * * * * * * * * //

dimensions      [0 1 -1 0 0 0 0];

internalField   nonuniform List<vector> 
3700
(
(1.36318 -0.341736 0)
(1.38468 -0.486345 0)
(1.39185 -0.254261 0)
(1.49977 -0.252963 0)
(1.55869 -0.264126 0)
(1.48311 -0.2255 0)
(1.44668 -0.122481 0)
(1.44602 -0.0936931 0)
(1.51206 -0.185833 0)
(1.55744 -0.224423 0)
(1.58669 -0.186349 0)
(1.64967 -0.162248 0)
(1.68706 -0.218273 0)
(1.69952 -0.275676 0)
(1.65684 -0.26382 0)
(1.6242 -0.201766 0)
(1.64277 -0.0991564 0)
(1.72123 -0.104443 0)
(1.81216 -0.214351 0)
(1.87389 -0.1936 0)
(1.96067 -1.30835 0)
(1.87639 -1.13024 0)
(1.88789 -0.997415 0)
(2.03282 -1.14133 0)
(2.00383 -1.37576 0)
(1.79928 -1.34571 0)
(1.72708 -1.2016 0)
(1.72926 -1.2339 0)
(1.81701 -1.43787 0)
(1.86183 -1.47287 0)
(1.92302 -1.49048 0)
(2.01513 -1.36877 0)
(2.12269 -1.36327 0)
(2.15025 -1.32554 0)
(2.1314 -1.26268 0)
(2.09167 -1.10785 0)
(2.07878 -0.975788 0)
(2.16897 -1.01472 0)
(2.23689 -1.13014 0)
(2.29039 -1.19594 0)
(1.86584 -1.29796 0)
(1.99756 -1.17336 0)
(2.06928 -1.26899 0)
(2.13938 -1.4551 0)
(2.10953 -1.87492 0)
(2.00456 -2.19927 0)
(2.03509 -2.21427 0)
(1.99796 -2.23931 0)
(2.01643 -2.21436 0)
(2.07189 -2.10997 0)
(2.08726 -2.13373 0)
(2.1754 -1.98095 0)
(2.26021 -1.91501 0)
(2.36116 -1.85187 0)
(2.47137 -1.79285 0)
(2.5983 -1.72028 0)
(2.6548 -1.67656 0)
(2.66872 -1.63967 0)
(2.65343 -1.62939 0)
(2.60203 -1.61 0)
(1.7938 -1.32443 0)
(1.87235 -1.3139 0)
(1.8834 -1.50351 0)
(1.87552 -1.79933 0)
(1.84784 -2.09882 0)
(1.95955 -2.24574 0)
(2.02724 -2.21892 0)
(2.05339 -2.18639 0)
(2.12389 -2.11586 0)
(2.27225 -1.99113 0)
(2.23634 -2.07271 0)
(2.29554 -1.94465 0)
(2.32555 -1.85432 0)
(2.38308 -1.76077 0)
(2.46971 -1.66769 0)
(2.61971 -1.54946 0)
(2.67852 -1.43099 0)
(2.78319 -1.30098 0)
(2.84382 -1.21956 0)
(2.80947 -1.26908 0)
(1.61954 -1.30162 0)
(1.66671 -1.43148 0)
(1.64413 -1.73944 0)
(1.62598 -2.01694 0)
(1.67817 -2.21997 0)
(1.71024 -2.21889 0)
(1.90625 -2.16503 0)
(2.13367 -1.9592 0)
(2.25486 -1.94331 0)
(2.43017 -1.80935 0)
(2.44302 -1.77615 0)
(2.49763 -1.7173 0)
(2.49966 -1.69899 0)
(2.48048 -1.6805 0)
(2.51021 -1.58084 0)
(2.56704 -1.4959 0)
(2.60245 -1.37509 0)
(2.70926 -1.28707 0)
(2.76924 -1.08353 0)
(2.86457 -0.882466 0)
(1.44972 -1.23235 0)
(1.48001 -1.50119 0)
(1.52536 -1.86232 0)
(1.50048 -2.10888 0)
(1.53616 -2.23162 0)
(1.73382 -2.17978 0)
(1.89224 -2.06524 0)
(2.05282 -1.90455 0)
(2.19753 -1.79395 0)
(2.41531 -1.71992 0)
(2.54024 -1.521 0)
(2.63285 -1.44485 0)
(2.67962 -1.37021 0)
(2.65813 -1.40317 0)
(2.67227 -1.32841 0)
(2.65313 -1.32708 0)
(2.64432 -1.19907 0)
(2.66051 -1.16341 0)
(2.70876 -1.11536 0)
(2.78109 -0.875741 0)
(1.34163 -1.16108 0)
(1.35206 -1.58575 0)
(1.46069 -1.97151 0)
(1.46085 -2.19587 0)
(1.7411 -2.18256 0)
(1.8469 -2.17927 0)
(1.98393 -2.02988 0)
(2.05047 -1.90258 0)
(2.13975 -1.7689 0)
(2.30302 -1.67553 0)
(2.42718 -1.47682 0)
(2.61843 -1.41161 0)
(2.69415 -1.13569 0)
(2.76406 -1.05876 0)
(2.77432 -0.910141 0)
(2.7544 -0.905687 0)
(2.74543 -0.857986 0)
(2.72892 -0.819031 0)
(2.71517 -0.905955 0)
(2.71554 -0.73299 0)
(1.29554 -1.17525 0)
(1.34434 -1.66275 0)
(1.57219 -2.06268 0)
(1.72659 -2.27517 0)
(2.01488 -2.16176 0)
(2.12581 -2.13798 0)
(2.23775 -1.91673 0)
(2.24857 -1.82977 0)
(2.25955 -1.72549 0)
(2.2973 -1.65957 0)
(2.40659 -1.45763 0)
(2.53905 -1.3689 0)
(2.59413 -1.12571 0)
(2.72576 -1.02906 0)
(2.74877 -0.76585 0)
(2.78968 -0.632524 0)
(2.78797 -0.511417 0)
(2.77888 -0.403334 0)
(2.73152 -0.538139 0)
(2.69551 -0.476214 0)
(1.30381 -1.24984 0)
(1.43809 -1.8635 0)
(1.75036 -2.21119 0)
(1.99062 -2.30923 0)
(2.32116 -2.06196 0)
(2.46241 -2.00685 0)
(2.4922 -1.67241 0)
(2.50377 -1.51126 0)
(2.52112 -1.50004 0)
(2.53192 -1.45882 0)
(2.54475 -1.35859 0)
(2.59338 -1.19843 0)
(2.60046 -1.03401 0)
(2.66537 -0.944304 0)
(2.6835 -0.742863 0)
(2.73189 -0.600811 0)
(2.76085 -0.430288 0)
(2.75938 -0.218054 0)
(2.72157 -0.174416 0)
(2.67574 -0.162294 0)
(1.37045 -1.4534 0)
(1.64436 -2.09051 0)
(1.93206 -2.352 0)
(2.09667 -2.31083 0)
(2.27838 -2.01414 0)
(2.39881 -1.86738 0)
(2.5848 -1.54485 0)
(2.7084 -1.27423 0)
(2.74833 -1.19402 0)
(2.7627 -0.982325 0)
(2.76125 -0.985477 0)
(2.75091 -0.770622 0)
(2.71849 -0.719778 0)
(2.71809 -0.617865 0)
(2.69825 -0.510651 0)
(2.68323 -0.429484 0)
(2.69716 -0.358292 0)
(2.68955 -0.212302 0)
(2.65698 -0.0206848 0)
(2.61812 0.0510729 0)
(1.42971 -1.64923 0)
(1.77599 -2.30906 0)
(1.86936 -2.26952 0)
(1.876 -2.12428 0)
(2.02374 -1.90341 0)
(2.17048 -1.66257 0)
(2.34086 -1.51378 0)
(2.49363 -1.27841 0)
(2.61391 -1.16184 0)
(2.6731 -0.793634 0)
(2.73153 -0.612043 0)
(2.7228 -0.369829 0)
(2.72892 -0.27762 0)
(2.71249 -0.14353 0)
(2.6924 -0.0738915 0)
(2.65941 -0.0469821 0)
(2.63323 -0.0502809 0)
(2.62492 -0.0574339 0)
(2.55851 0.104757 0)
(2.57483 0.11167 0)
(1.40257 -1.69066 0)
(1.69866 -2.329 0)
(1.75248 -2.14937 0)
(1.79957 -1.98631 0)
(1.97173 -1.811 0)
(2.13968 -1.5064 0)
(2.24809 -1.40195 0)
(2.36285 -1.20597 0)
(2.42601 -1.04267 0)
(2.49963 -0.836818 0)
(2.5928 -0.632013 0)
(2.62018 -0.373593 0)
(2.65143 -0.179839 0)
(2.64696 0.00927044 0)
(2.59546 0.204545 0)
(2.56169 0.281565 0)
(2.51638 0.352694 0)
(2.51266 0.258631 0)
(2.45286 0.323625 0)
(2.48058 0.265819 0)
(1.34352 -1.68591 0)
(1.59915 -2.20014 0)
(1.73747 -1.94988 0)
(1.87608 -1.55919 0)
(2.04618 -1.54577 0)
(2.27108 -1.16105 0)
(2.35364 -1.19194 0)
(2.46057 -0.988642 0)
(2.51069 -0.67418 0)
(2.53342 -0.553491 0)
(2.56124 -0.348177 0)
(2.55875 -0.167144 0)
(2.55566 -0.0182945 0)
(2.54874 0.111125 0)
(2.49209 0.287037 0)
(2.47526 0.372114 0)
(2.39257 0.526555 0)
(2.34445 0.565431 0)
(2.30411 0.592351 0)
(2.31941 0.536061 0)
(1.09593 -1.58254 0)
(1.70223 -1.88586 0)
(1.89179 -1.6774 0)
(1.93829 -1.04983 0)
(2.0457 -1.15739 0)
(2.35465 -0.840353 0)
(2.55703 -0.490813 0)
(2.63374 -0.291448 0)
(2.58851 -0.055643 0)
(2.57288 0.0357074 0)
(2.53807 0.194451 0)
(2.49173 0.321472 0)
(2.44932 0.406953 0)
(2.40926 0.470889 0)
(2.35863 0.525139 0)
(2.33088 0.549294 0)
(2.26768 0.623055 0)
(2.21157 0.704536 0)
(2.15744 0.786369 0)
(2.13396 0.800698 0)
(0.822202 -1.3516 0)
(1.77307 -1.66795 0)
(2.17715 -1.43535 0)
(2.16617 -0.692362 0)
(2.48585 -0.388419 0)
(2.55412 -0.466328 0)
(2.59346 -0.297001 0)
(2.54073 0.039722 0)
(2.50542 0.131949 0)
(2.47516 0.31047 0)
(2.41774 0.479325 0)
(2.32781 0.639703 0)
(2.26926 0.727086 0)
(2.201 0.810656 0)
(2.15927 0.826828 0)
(2.12203 0.836589 0)
(2.08084 0.873352 0)
(2.07184 0.879578 0)
(2.03762 0.924188 0)
(2.05874 0.953479 0)
(1.10818 -0.985007 0)
(1.5341 -1.66359 0)
(2.21052 -1.00203 0)
(2.44263 -0.398247 0)
(2.45891 -0.266123 0)
(2.45007 -0.263834 0)
(2.43736 -0.0180742 0)
(2.39049 0.215743 0)
(2.34277 0.36729 0)
(2.31906 0.530869 0)
(2.22552 0.699197 0)
(2.14193 0.823551 0)
(2.08056 0.898559 0)
(2.01988 0.965225 0)
(1.98137 0.979226 0)
(1.9513 0.997548 0)
(1.95305 1.02002 0)
(1.96849 0.997194 0)
(1.995 0.995815 0)
(2.07203 0.977599 0)
(1.34571 -0.637636 0)
(1.98776 -0.851923 0)
(2.34486 0.235292 0)
(2.28764 -0.105452 0)
(2.32438 -0.0383972 0)
(2.34872 0.260269 0)
(2.26703 0.544417 0)
(2.19943 0.68022 0)
(2.13799 0.773546 0)
(2.08537 0.9034 0)
(1.97409 1.00916 0)
(1.91631 1.06035 0)
(1.88485 1.0767 0)
(1.86969 1.08504 0)
(1.87456 1.05412 0)
(1.8989 1.04674 0)
(1.96109 1.02141 0)
(2.16063 0.90676 0)
(2.3791 0.796212 0)
(2.77917 0.443124 0)
(1.08511 0.0428236 0)
(1.85427 -0.145712 0)
(2.25605 0.0608456 0)
(2.22502 0.502336 0)
(2.19557 0.654049 0)
(2.12959 0.776697 0)
(2.04209 0.894697 0)
(1.96054 0.978668 0)
(1.9139 1.03959 0)
(1.84784 1.12867 0)
(1.78832 1.16185 0)
(1.78973 1.15431 0)
(1.80721 1.13154 0)
(1.84979 1.08723 0)
(2.0431 0.949103 0)
(2.26248 0.82605 0)
(2.66426 0.503535 0)
(3.03569 0.0927675 0)
(3.05559 -0.0236899 0)
(3.00405 -0.00467623 0)
(1.03339 -0.00355219 0)
(1.91364 0.814903 0)
(2.10227 0.863784 0)
(1.99332 0.973264 0)
(1.96797 0.97367 0)
(1.85909 1.08534 0)
(1.78597 1.13633 0)
(1.76341 1.14502 0)
(1.76301 1.16143 0)
(1.74313 1.20124 0)
(1.72256 1.19377 0)
(1.85892 1.06811 0)
(2.08777 0.88727 0)
(2.49465 0.582101 0)
(2.98401 0.139153 0)
(3.07348 -0.0287854 0)
(3.00818 -0.00767708 0)
(3.00294 -0.00384121 0)
(3.00123 -0.00220063 0)
(3.00008 -0.000489738 0)
(1.16654 0.761154 0)
(1.82588 1.15788 0)
(1.84454 1.14825 0)
(1.73986 1.1964 0)
(1.70592 1.19799 0)
(1.66042 1.24321 0)
(1.65503 1.21432 0)
(1.72753 1.1675 0)
(1.76527 1.23321 0)
(1.80375 1.13907 0)
(2.27781 0.732374 0)
(2.86196 0.20371 0)
(3.10017 -0.0306864 0)
(3.02142 -0.0128325 0)
(3.00454 -0.00551233 0)
(3.00179 -0.0029851 0)
(3.00005 -0.000569521 0)
(2.99998 -2.13745e-05 0)
(2.99999 1.44285e-05 0)
(3 5.93312e-06 0)
(1.58072 1.25808 0)
(1.58482 1.26407 0)
(1.59229 1.26904 0)
(1.59964 1.2662 0)
(1.60411 1.25529 0)
(1.59123 1.26915 0)
(1.8969 1.17962 0)
(2.96315 0.407313 0)
(3.33686 -0.609972 0)
(3 5.89301e-11 0)
(3 -7.22937e-11 0)
(3 7.96044e-11 0)
(3 4.83482e-15 0)
(3 -4.25375e-13 0)
(3 -1.20786e-14 0)
(3 1.8681e-14 0)
(3 -8.22862e-15 0)
(3 1.70005e-15 0)
(3 2.20186e-15 0)
(3 -3.45053e-16 0)
(1.58336 1.24801 0)
(1.59435 1.2576 0)
(1.60549 1.26581 0)
(1.61121 1.27886 0)
(1.64187 1.27126 0)
(1.71162 1.22472 0)
(2.23254 0.760651 0)
(2.99054 0.0218451 0)
(3 4.92841e-08 0)
(3 -2.88675e-11 0)
(3 6.16009e-14 0)
(3 6.506e-16 0)
(3 -1.08209e-16 0)
(3 2.61596e-15 0)
(3 3.26707e-15 0)
(3 2.46971e-15 0)
(3 2.76653e-15 0)
(3 9.37489e-16 0)
(3 4.14218e-16 0)
(3 9.53708e-16 0)
(1.58282 1.24712 0)
(1.60466 1.25237 0)
(1.6172 1.25602 0)
(1.61394 1.27503 0)
(1.68576 1.22455 0)
(2.24786 0.769695 0)
(3.0034 -0.00807871 0)
(3.0002 -0.000597775 0)
(3 8.02555e-07 0)
(3 5.98142e-11 0)
(3 5.72795e-14 0)
(3 -1.87363e-15 0)
(3 4.59327e-16 0)
(3 2.99535e-15 0)
(3 3.18181e-15 0)
(3 1.86298e-15 0)
(3 1.43149e-15 0)
(3 -4.40951e-16 0)
(3 -1.0614e-15 0)
(3 -1.12051e-15 0)
(1.58258 1.25256 0)
(1.60367 1.25239 0)
(1.62402 1.25612 0)
(1.64472 1.26042 0)
(1.91177 1.05332 0)
(2.77129 0.202961 0)
(3.00457 -0.00113539 0)
(2.99991 7.67144e-05 0)
(3 -9.51921e-07 0)
(3 9.00229e-10 0)
(3 3.27981e-14 0)
(3 -1.16157e-15 0)
(3 6.62701e-16 0)
(3 1.94386e-15 0)
(3 1.8575e-15 0)
(3 9.96973e-16 0)
(3 2.34973e-16 0)
(3 -7.62385e-16 0)
(3 -1.35396e-15 0)
(3 -1.15968e-15 0)
(1.58205 1.26204 0)
(1.5946 1.26198 0)
(1.63166 1.26359 0)
(1.67507 1.23808 0)
(2.33995 0.644328 0)
(3.02012 -0.0179949 0)
(2.99975 0.000156438 0)
(3 -4.27212e-06 0)
(3 8.34531e-08 0)
(3 -9.22331e-10 0)
(3 2.71709e-13 0)
(3 -1.20593e-15 0)
(3 2.06501e-16 0)
(3 7.05477e-16 0)
(3 1.51434e-15 0)
(3 -5.05683e-16 0)
(3 -9.73593e-16 0)
(3 -3.81483e-17 0)
(3 -1.58273e-15 0)
(3 -1.04113e-15 0)
(1.58065 1.28017 0)
(1.58583 1.2806 0)
(1.64526 1.2608 0)
(1.75816 1.17296 0)
(2.66853 0.281956 0)
(3 -5.94528e-10 0)
(3 1.40979e-08 0)
(3 -1.27175e-08 0)
(3 5.46491e-10 0)
(3 2.63612e-12 0)
(3 -1.14417e-13 0)
(3 -1.27523e-15 0)
(3 -3.07282e-16 0)
(3 7.85577e-17 0)
(3 1.27262e-15 0)
(3 -1.00812e-15 0)
(3 -1.15073e-15 0)
(3 -8.9298e-16 0)
(3 -1.44687e-15 0)
(3 -1.38812e-15 0)
(1.58024 1.29477 0)
(1.55334 1.30698 0)
(1.67959 1.24047 0)
(2.21585 0.822853 0)
(3.02281 -0.0230029 0)
(3 -1.13649e-11 0)
(3 -1.5575e-11 0)
(3 2.72592e-11 0)
(3 -3.35647e-12 0)
(3 5.29842e-16 0)
(3 -8.13428e-16 0)
(3 -4.83882e-16 0)
(3 -6.5544e-16 0)
(3 -7.60156e-16 0)
(3 2.14984e-16 0)
(3 -7.95396e-16 0)
(3 -3.42444e-16 0)
(3 -1.24149e-15 0)
(3 -2.11857e-15 0)
(3 -2.02485e-15 0)
(1.59327 1.32973 0)
(1.49375 1.33627 0)
(1.74102 1.18455 0)
(2.40119 0.553457 0)
(3 -1.7256e-06 0)
(3 -8.57855e-12 0)
(3 8.54623e-14 0)
(3 -1.10574e-13 0)
(3 2.22033e-14 0)
(3 3.46054e-16 0)
(3 -6.73425e-17 0)
(3 2.29797e-16 0)
(3 -2.51724e-16 0)
(3 -7.63207e-16 0)
(3 -1.58734e-16 0)
(3 -7.57558e-17 0)
(3 4.84597e-16 0)
(3 -7.58288e-16 0)
(3 -2.15461e-15 0)
(3 -1.71347e-15 0)
(1.58943 1.30595 0)
(1.47446 1.35787 0)
(1.94115 1.03681 0)
(2.85995 0.119654 0)
(3 -1.23983e-08 0)
(3 2.89241e-11 0)
(3 -8.65907e-14 0)
(3 3.20386e-15 0)
(3 1.14154e-15 0)
(3 1.15224e-15 0)
(3 9.61808e-16 0)
(3 1.3785e-15 0)
(3 1.25564e-15 0)
(3 1.00024e-15 0)
(3 3.68184e-16 0)
(3 1.48011e-15 0)
(3 1.88322e-15 0)
(3 9.73858e-16 0)
(3 -9.46754e-16 0)
(3 -1.04752e-15 0)
(1.60288 1.29043 0)
(1.47846 1.37088 0)
(2.19274 0.80279 0)
(3.0104 -0.00865014 0)
(3 3.47252e-08 0)
(3 -1.57268e-11 0)
(3 3.81422e-14 0)
(3 1.37901e-15 0)
(3 1.40073e-15 0)
(3 7.8856e-16 0)
(3 6.85715e-16 0)
(3 1.72826e-15 0)
(3 1.52255e-15 0)
(3 1.02309e-15 0)
(3 1.32627e-15 0)
(3 2.23898e-15 0)
(3 2.5698e-15 0)
(3 1.83475e-15 0)
(3 4.48005e-16 0)
(3 -2.47522e-16 0)
(1.61988 1.27777 0)
(1.55697 1.32554 0)
(2.40598 0.55363 0)
(3 -3.37775e-12 0)
(3 -3.24022e-11 0)
(3 3.38014e-13 0)
(3 -4.66092e-16 0)
(3 1.32188e-15 0)
(3 1.07285e-15 0)
(3 7.9229e-16 0)
(3 1.07794e-15 0)
(3 1.31746e-15 0)
(3 1.25642e-15 0)
(3 6.34861e-16 0)
(3 8.11695e-16 0)
(3 2.62706e-15 0)
(3 3.93398e-15 0)
(3 3.2117e-15 0)
(3 2.54771e-15 0)
(3 1.90031e-15 0)
(1.63778 1.26368 0)
(1.6393 1.24456 0)
(2.65478 0.29028 0)
(3 7.80671e-13 0)
(3 -1.40553e-13 0)
(3 -1.20376e-15 0)
(3 9.22861e-16 0)
(3 8.0174e-17 0)
(3 4.23424e-16 0)
(3 6.54531e-16 0)
(3 1.08413e-15 0)
(3 1.44949e-15 0)
(3 1.37908e-15 0)
(3 1.05855e-15 0)
(3 7.72295e-16 0)
(3 1.71163e-15 0)
(3 2.78727e-15 0)
(3 2.94046e-15 0)
(3 3.13853e-15 0)
(3 3.2054e-15 0)
(1.65361 1.24058 0)
(1.822 1.1065 0)
(2.866 0.102915 0)
(3 -1.55556e-14 0)
(3 -7.23068e-16 0)
(3 -7.29592e-16 0)
(3 -1.10724e-15 0)
(3 -1.66287e-15 0)
(3 -8.27225e-16 0)
(3 6.66526e-17 0)
(3 8.00942e-16 0)
(3 1.38433e-15 0)
(3 1.7081e-15 0)
(3 1.60109e-15 0)
(3 1.4545e-15 0)
(3 1.68263e-15 0)
(3 2.11167e-15 0)
(3 2.18189e-15 0)
(3 1.93021e-15 0)
(3 2.84066e-15 0)
(1.66103 1.20636 0)
(1.87816 0.983147 0)
(2.97679 0.0158879 0)
(3 -2.09319e-15 0)
(3 -1.70577e-15 0)
(3 -2.12061e-15 0)
(3 -1.73909e-15 0)
(3 -2.16875e-15 0)
(3 -9.02285e-16 0)
(3 3.03219e-16 0)
(3 1.17417e-15 0)
(3 1.72223e-15 0)
(3 1.95555e-15 0)
(3 2.22344e-15 0)
(3 1.89741e-15 0)
(3 2.01409e-15 0)
(3 2.21712e-15 0)
(3 2.27358e-15 0)
(3 2.22656e-15 0)
(3 1.93405e-15 0)
(1.7156 1.1669 0)
(2.06634 0.813884 0)
(3 -2.02716e-15 0)
(3 -1.2431e-15 0)
(3 -5.23377e-16 0)
(3 -4.66036e-16 0)
(3 -8.2515e-16 0)
(3 -1.93785e-15 0)
(3 -1.25466e-15 0)
(3 2.98249e-16 0)
(3 1.15362e-15 0)
(3 2.11301e-15 0)
(3 2.20883e-15 0)
(3 2.17767e-15 0)
(3 1.88188e-15 0)
(3 1.35703e-15 0)
(3 1.63343e-15 0)
(3 1.71488e-15 0)
(3 1.86982e-15 0)
(3 2.15477e-15 0)
(1.78091 1.09938 0)
(2.24079 0.649424 0)
(3 -7.70806e-17 0)
(3 6.96055e-16 0)
(3 1.15437e-15 0)
(3 7.63883e-16 0)
(3 4.30539e-16 0)
(3 -8.15389e-16 0)
(3 -1.01511e-15 0)
(3 2.38203e-16 0)
(3 1.55791e-15 0)
(3 2.23564e-15 0)
(3 2.57189e-15 0)
(3 2.49391e-15 0)
(3 2.0446e-15 0)
(3 2.09072e-15 0)
(3 2.05735e-15 0)
(3 2.10353e-15 0)
(3 2.11779e-15 0)
(3 2.45817e-15 0)
(1.81047 1.00688 0)
(2.44313 0.445479 0)
(3 1.81577e-15 0)
(3 1.9725e-15 0)
(3 1.30993e-15 0)
(3 6.82308e-16 0)
(3 -1.41708e-15 0)
(3 -1.70553e-15 0)
(3 -1.8728e-15 0)
(3 -2.10027e-15 0)
(3 -1.67944e-15 0)
(3 -4.01877e-16 0)
(3 7.01285e-17 0)
(3 5.15846e-16 0)
(3 9.09506e-16 0)
(3 9.42235e-16 0)
(3 1.65437e-15 0)
(3 2.05953e-15 0)
(3 2.32692e-15 0)
(3 2.45998e-15 0)
(1.9289 0.880952 0)
(2.69625 0.219463 0)
(3 2.15029e-15 0)
(3 2.24581e-15 0)
(3 2.32278e-15 0)
(3 1.60215e-15 0)
(3 1.14455e-15 0)
(3 7.09239e-16 0)
(3 -5.44092e-16 0)
(3 -8.1173e-16 0)
(3 -1.12071e-15 0)
(3 8.2326e-17 0)
(3 1.26406e-15 0)
(3 2.96129e-15 0)
(3 3.66973e-15 0)
(3 3.83121e-15 0)
(3 3.6854e-15 0)
(3 3.73397e-15 0)
(3 4.14803e-15 0)
(3 4.35328e-15 0)
(2.10094 0.659154 0)
(2.99004 0.000140309 0)
(3 2.89436e-15 0)
(3 1.918e-15 0)
(3 1.60265e-15 0)
(3 1.42112e-15 0)
(3 1.27098e-15 0)
(3 6.18087e-16 0)
(3 -1.22029e-17 0)
(3 -4.00624e-16 0)
(3 -4.58804e-16 0)
(3 -3.75582e-16 0)
(3 -2.68204e-16 0)
(3 -1.68627e-16 0)
(3 8.56186e-17 0)
(3 7.55954e-16 0)
(3 7.90017e-16 0)
(3 1.70247e-15 0)
(3 2.0228e-15 0)
(3 2.30318e-15 0)
(1.99432 0.371585 0)
(2.99992 -8.81654e-06 0)
(3 -1.11801e-15 0)
(3 -1.62587e-15 0)
(3 -1.33333e-15 0)
(3 -1.23271e-15 0)
(3 -9.75904e-16 0)
(3 -8.63642e-16 0)
(3 -9.5718e-16 0)
(3 -1.43752e-15 0)
(3 -1.64399e-15 0)
(3 -1.64118e-15 0)
(3 -1.64899e-15 0)
(3 -1.90126e-15 0)
(3 -1.85461e-15 0)
(3 -1.62775e-15 0)
(3 -9.90604e-16 0)
(3 -8.0253e-16 0)
(3 -9.9444e-16 0)
(3 -1.25628e-15 0)
(1.99447 -0.372576 0)
(2.99992 7.13425e-06 0)
(3 -9.50591e-16 0)
(3 -1.10829e-15 0)
(3 -2.01084e-15 0)
(3 -1.83847e-15 0)
(3 -1.64562e-15 0)
(3 -1.7555e-15 0)
(3 -1.44481e-15 0)
(3 -9.52508e-16 0)
(3 -9.06016e-16 0)
(3 -1.00199e-15 0)
(3 -1.23461e-15 0)
(3 -1.24606e-15 0)
(3 -1.17653e-15 0)
(3 -1.01091e-15 0)
(3 -1.02618e-15 0)
(3 -1.23044e-15 0)
(3 -1.41702e-15 0)
(3 -1.51062e-15 0)
(2.10346 -0.655184 0)
(2.9902 -0.000188531 0)
(3 -8.07356e-17 0)
(3 3.27092e-16 0)
(3 4.70654e-16 0)
(3 2.33692e-16 0)
(3 -7.71955e-16 0)
(3 -8.88323e-16 0)
(3 -6.17113e-16 0)
(3 1.51438e-16 0)
(3 -2.51459e-16 0)
(3 -8.28296e-16 0)
(3 -1.38332e-15 0)
(3 -1.62076e-15 0)
(3 -2.05849e-15 0)
(3 -2.70533e-15 0)
(3 -3.26761e-15 0)
(3 -3.60382e-15 0)
(3 -3.8164e-15 0)
(3 -3.91617e-15 0)
(1.93378 -0.884049 0)
(2.69644 -0.220308 0)
(3 2.97077e-16 0)
(3 1.38526e-15 0)
(3 1.91368e-15 0)
(3 1.44099e-15 0)
(3 1.50168e-15 0)
(3 1.50434e-15 0)
(3 1.72312e-15 0)
(3 1.75479e-15 0)
(3 1.31497e-15 0)
(3 8.48702e-16 0)
(3 4.56943e-16 0)
(3 -2.43402e-17 0)
(3 -9.39213e-16 0)
(3 -1.61923e-15 0)
(3 -2.37482e-15 0)
(3 -2.70642e-15 0)
(3 -2.80797e-15 0)
(3 -3.05516e-15 0)
(1.80544 -1.00932 0)
(2.43465 -0.4504 0)
(3 3.0426e-15 0)
(3 3.51124e-15 0)
(3 2.4692e-15 0)
(3 1.83528e-15 0)
(3 1.53449e-15 0)
(3 1.56882e-15 0)
(3 1.93145e-15 0)
(3 1.67499e-15 0)
(3 9.95931e-16 0)
(3 2.49505e-16 0)
(3 -4.95239e-16 0)
(3 -1.04427e-15 0)
(3 -1.25442e-15 0)
(3 -1.20645e-15 0)
(3 -1.26725e-15 0)
(3 -1.28898e-15 0)
(3 -1.56981e-15 0)
(3 -1.722e-15 0)
(1.7757 -1.09601 0)
(2.2394 -0.649952 0)
(3 4.32981e-15 0)
(3 3.42502e-15 0)
(3 3.00115e-15 0)
(3 2.33043e-15 0)
(3 1.43236e-15 0)
(3 1.27421e-15 0)
(3 1.09512e-15 0)
(3 5.88361e-16 0)
(3 -1.20594e-16 0)
(3 -8.62218e-16 0)
(3 -1.32519e-15 0)
(3 -1.60393e-15 0)
(3 -1.647e-15 0)
(3 -1.45481e-15 0)
(3 -1.6316e-15 0)
(3 -1.97254e-15 0)
(3 -1.81924e-15 0)
(3 -1.57072e-15 0)
(1.72291 -1.16703 0)
(2.07175 -0.812541 0)
(3 3.78475e-15 0)
(3 2.94215e-15 0)
(3 2.47651e-15 0)
(3 2.59344e-15 0)
(3 1.89927e-15 0)
(3 1.0426e-15 0)
(3 6.45615e-16 0)
(3 1.04572e-16 0)
(3 -1.12526e-15 0)
(3 -1.45882e-15 0)
(3 -1.27459e-15 0)
(3 -6.26079e-16 0)
(3 -1.03461e-15 0)
(3 -1.50849e-15 0)
(3 -2.20837e-15 0)
(3 -2.2187e-15 0)
(3 -1.45445e-15 0)
(3 -8.43369e-16 0)
(1.66104 -1.20672 0)
(1.88041 -0.980401 0)
(2.97767 -0.0148438 0)
(3 2.06843e-15 0)
(3 2.1063e-15 0)
(3 1.50403e-15 0)
(3 5.12592e-16 0)
(3 -1.60677e-17 0)
(3 -3.10725e-16 0)
(3 -4.40716e-16 0)
(3 -1.21379e-15 0)
(3 -1.65206e-15 0)
(3 -1.75375e-15 0)
(3 -2.05297e-15 0)
(3 -2.36494e-15 0)
(3 -2.16561e-15 0)
(3 -1.86753e-15 0)
(3 -1.38899e-15 0)
(3 -7.08612e-16 0)
(3 -4.39478e-16 0)
(1.65299 -1.23967 0)
(1.81735 -1.10578 0)
(2.86434 -0.103183 0)
(3 6.50152e-15 0)
(3 2.42749e-16 0)
(3 -2.17331e-16 0)
(3 -1.27244e-15 0)
(3 -1.88042e-15 0)
(3 -2.2403e-15 0)
(3 -2.3714e-15 0)
(3 -1.85654e-15 0)
(3 -1.46714e-15 0)
(3 -1.3586e-15 0)
(3 -1.73256e-15 0)
(3 -2.06445e-15 0)
(3 -2.01788e-15 0)
(3 -1.82673e-15 0)
(3 -4.24044e-16 0)
(3 1.2398e-16 0)
(3 1.32813e-16 0)
(1.63693 -1.26544 0)
(1.64354 -1.24263 0)
(2.65386 -0.291011 0)
(3 -9.77614e-13 0)
(3 1.64973e-13 0)
(3 3.96741e-15 0)
(3 -1.5456e-15 0)
(3 -2.22193e-15 0)
(3 -2.98343e-15 0)
(3 -2.48192e-15 0)
(3 -1.53491e-15 0)
(3 -2.80496e-16 0)
(3 -9.65086e-16 0)
(3 -1.10462e-15 0)
(3 -1.30044e-15 0)
(3 -1.29165e-15 0)
(3 -3.75017e-16 0)
(3 4.47602e-16 0)
(3 1.80936e-16 0)
(3 -9.21563e-17 0)
(1.61921 -1.27816 0)
(1.55364 -1.32808 0)
(2.40416 -0.556977 0)
(3 4.10716e-12 0)
(3 3.30318e-11 0)
(3 -4.89428e-13 0)
(3 2.7586e-15 0)
(3 -2.49441e-15 0)
(3 -3.00472e-15 0)
(3 -2.57912e-15 0)
(3 -1.37464e-15 0)
(3 -4.37599e-16 0)
(3 -1.02986e-15 0)
(3 -1.29155e-15 0)
(3 -1.31252e-15 0)
(3 -1.06951e-15 0)
(3 -7.04657e-16 0)
(3 -6.50763e-16 0)
(3 -1.56368e-15 0)
(3 -6.48244e-16 0)
(1.60199 -1.29008 0)
(1.47573 -1.37468 0)
(2.18629 -0.808779 0)
(3.01037 0.00849763 0)
(3 -3.81255e-08 0)
(3 4.21413e-11 0)
(3 -8.60603e-14 0)
(3 -1.99353e-15 0)
(3 -2.48364e-15 0)
(3 -2.04967e-15 0)
(3 -1.41769e-15 0)
(3 -8.76566e-16 0)
(3 -1.41247e-15 0)
(3 -1.8148e-15 0)
(3 -1.93967e-15 0)
(3 -1.80614e-15 0)
(3 -1.85386e-15 0)
(3 -1.44298e-15 0)
(3 5.28865e-16 0)
(3 4.11496e-15 0)
(1.589 -1.30445 0)
(1.47597 -1.3521 0)
(1.95787 -1.02985 0)
(2.87014 -0.112889 0)
(3 1.26703e-08 0)
(3 -5.23299e-11 0)
(3 1.36405e-13 0)
(3 -2.52183e-15 0)
(3 -2.01675e-15 0)
(3 -1.87249e-15 0)
(3 -1.69495e-15 0)
(3 -1.14211e-15 0)
(3 -7.04576e-16 0)
(3 -1.47228e-15 0)
(3 -1.73655e-15 0)
(3 -5.33106e-16 0)
(3 -7.6437e-16 0)
(3 5.82606e-17 0)
(3 4.44688e-15 0)
(3 5.64248e-15 0)
(1.59441 -1.33134 0)
(1.49622 -1.33689 0)
(1.73237 -1.18706 0)
(2.39139 -0.556035 0)
(3 2.19548e-07 0)
(3 -3.40004e-13 0)
(3 -8.48774e-15 0)
(3 -1.04033e-15 0)
(3 -5.11042e-15 0)
(3 -1.08901e-15 0)
(3 -1.43477e-15 0)
(3 -6.23022e-16 0)
(3 -4.28722e-16 0)
(3 3.27697e-16 0)
(3 7.98002e-16 0)
(3 6.69957e-16 0)
(3 1.91089e-15 0)
(3 2.55682e-15 0)
(3 5.37494e-15 0)
(3 5.79692e-15 0)
(1.58113 -1.29541 0)
(1.55146 -1.3083 0)
(1.68097 -1.2369 0)
(2.21181 -0.821571 0)
(3.02278 0.0226791 0)
(3 5.52444e-12 0)
(3 -3.0394e-12 0)
(3 -4.07647e-12 0)
(3 2.22517e-12 0)
(3 -9.01895e-15 0)
(3 -1.47582e-15 0)
(3 9.17496e-17 0)
(3 4.13791e-16 0)
(3 1.56028e-15 0)
(3 1.5913e-15 0)
(3 2.44957e-15 0)
(3 3.42779e-15 0)
(3 3.96823e-15 0)
(3 5.21507e-15 0)
(3 5.44579e-15 0)
(1.58124 -1.28199 0)
(1.58765 -1.28153 0)
(1.64426 -1.26204 0)
(1.77034 -1.16254 0)
(2.6752 -0.274115 0)
(3 6.02717e-10 0)
(3 -1.40542e-08 0)
(3 1.26506e-08 0)
(3 -5.40101e-10 0)
(3 -2.48002e-12 0)
(3 1.14046e-13 0)
(3 -7.62004e-16 0)
(3 8.75167e-16 0)
(3 1.48948e-15 0)
(3 1.63293e-15 0)
(3 3.13565e-15 0)
(3 3.82178e-15 0)
(3 3.27716e-15 0)
(3 3.73615e-15 0)
(3 4.39442e-15 0)
(1.58157 -1.26263 0)
(1.59448 -1.26677 0)
(1.63073 -1.26476 0)
(1.65863 -1.25224 0)
(2.32803 -0.651779 0)
(3.0206 0.0182312 0)
(2.99975 -0.000144712 0)
(3 4.20377e-06 0)
(3 -8.25677e-08 0)
(3 9.15125e-10 0)
(3 -3.22521e-13 0)
(3 6.96867e-16 0)
(3 9.57439e-16 0)
(3 5.71902e-16 0)
(3 7.13327e-16 0)
(3 2.88448e-15 0)
(3 3.85272e-15 0)
(3 1.98657e-15 0)
(3 3.94059e-15 0)
(3 4.65992e-15 0)
(1.58199 -1.25213 0)
(1.60407 -1.25261 0)
(1.62522 -1.25817 0)
(1.64214 -1.26414 0)
(1.91708 -1.05041 0)
(2.7745 -0.201794 0)
(3.00441 0.000812346 0)
(2.99992 -7.14036e-05 0)
(3 9.30492e-07 0)
(3 -8.926e-10 0)
(3 1.62674e-14 0)
(3 1.6465e-15 0)
(3 1.69597e-15 0)
(3 6.44418e-16 0)
(3 -3.2329e-16 0)
(3 2.62459e-15 0)
(3 3.95481e-15 0)
(3 4.24683e-15 0)
(3 3.88444e-15 0)
(3 5.1231e-15 0)
(1.58134 -1.24681 0)
(1.60451 -1.25151 0)
(1.61871 -1.25613 0)
(1.61335 -1.27209 0)
(1.69687 -1.21713 0)
(2.24901 -0.768386 0)
(3.00478 0.00962439 0)
(3.00012 0.000493406 0)
(3 -7.76362e-07 0)
(3 -5.96098e-11 0)
(3 1.81532e-14 0)
(3 1.65941e-15 0)
(3 2.16735e-15 0)
(3 1.57475e-15 0)
(3 -1.25007e-16 0)
(3 2.67399e-15 0)
(3 3.29936e-15 0)
(3 4.84905e-15 0)
(3 3.55427e-15 0)
(3 3.41013e-15 0)
(1.58209 -1.24583 0)
(1.59417 -1.25646 0)
(1.60631 -1.26419 0)
(1.61039 -1.27767 0)
(1.63785 -1.27248 0)
(1.72206 -1.21446 0)
(2.23401 -0.755739 0)
(2.99109 -0.020424 0)
(3 -5.09377e-08 0)
(3 2.9636e-11 0)
(3 2.18463e-14 0)
(3 5.41466e-15 0)
(3 1.75731e-15 0)
(3 1.21431e-15 0)
(3 2.83313e-15 0)
(3 3.49191e-15 0)
(3 2.32479e-15 0)
(3 3.35367e-15 0)
(3 2.90319e-15 0)
(3 2.75851e-15 0)
(1.58103 -1.25842 0)
(1.58535 -1.26369 0)
(1.59365 -1.26808 0)
(1.60125 -1.26706 0)
(1.60461 -1.25817 0)
(1.59123 -1.26939 0)
(1.88677 -1.18151 0)
(2.95414 -0.414468 0)
(3.3502 0.628749 0)
(3 -5.99326e-11 0)
(3 7.24043e-11 0)
(3 -7.91322e-11 0)
(3 -1.48889e-15 0)
(3 4.29706e-13 0)
(3 1.85186e-14 0)
(3 -1.20009e-14 0)
(3 1.25079e-14 0)
(3 3.18231e-15 0)
(3 2.15325e-15 0)
(3 4.04175e-15 0)
(1.16447 -0.76798 0)
(1.83026 -1.15211 0)
(1.84256 -1.15319 0)
(1.73911 -1.20075 0)
(1.70755 -1.19987 0)
(1.66034 -1.24281 0)
(1.65417 -1.21555 0)
(1.7267 -1.16763 0)
(1.76283 -1.23642 0)
(1.8042 -1.14182 0)
(2.28297 -0.730903 0)
(2.86575 -0.200598 0)
(3.10025 0.0314873 0)
(3.02132 0.0128514 0)
(3.00461 0.00555225 0)
(3.00181 0.00301245 0)
(3.00005 0.000571437 0)
(2.99998 2.10195e-05 0)
(2.99999 -1.44536e-05 0)
(3 -5.93636e-06 0)
(1.02499 -0.0168457 0)
(1.91919 -0.792589 0)
(2.11667 -0.797216 0)
(2.00455 -0.940833 0)
(1.96738 -0.974482 0)
(1.85623 -1.08989 0)
(1.78301 -1.13927 0)
(1.76213 -1.14565 0)
(1.76237 -1.16165 0)
(1.74358 -1.2018 0)
(1.72523 -1.19331 0)
(1.8626 -1.06581 0)
(2.08917 -0.88501 0)
(2.49391 -0.581177 0)
(2.98304 -0.139378 0)
(3.07349 0.0288367 0)
(3.00821 0.00769732 0)
(3.00295 0.00384487 0)
(3.00123 0.00220155 0)
(3.00008 0.000489106 0)
(0.888336 -0.0653063 0)
(1.9062 -0.322446 0)
(2.26299 -0.39849 0)
(2.23117 -0.568864 0)
(2.19639 -0.648273 0)
(2.1319 -0.763694 0)
(2.04144 -0.888016 0)
(1.95996 -0.976465 0)
(1.91265 -1.03818 0)
(1.84918 -1.12833 0)
(1.78996 -1.16198 0)
(1.79042 -1.15483 0)
(1.80706 -1.13196 0)
(1.84838 -1.08742 0)
(2.04263 -0.948707 0)
(2.26245 -0.825556 0)
(2.66418 -0.503722 0)
(3.03565 -0.0930007 0)
(3.05571 0.0237201 0)
(3.00407 0.00468973 0)
(1.1163 0.688341 0)
(1.46788 1.09206 0)
(2.13559 0.473887 0)
(2.30378 0.115745 0)
(2.3425 0.00661099 0)
(2.35068 -0.285141 0)
(2.26446 -0.556216 0)
(2.19956 -0.680405 0)
(2.1368 -0.771727 0)
(2.08532 -0.902069 0)
(1.9759 -1.00949 0)
(1.91753 -1.06138 0)
(1.88497 -1.07766 0)
(1.86898 -1.08542 0)
(1.8737 -1.05438 0)
(1.89872 -1.0467 0)
(1.9614 -1.02119 0)
(2.16098 -0.906527 0)
(2.37911 -0.796282 0)
(2.77889 -0.443489 0)
(1.2504 1.27654 0)
(1.54171 1.63641 0)
(2.2442 0.793778 0)
(2.49675 0.265844 0)
(2.45612 0.253632 0)
(2.44089 0.253066 0)
(2.4337 0.0191262 0)
(2.39125 -0.211519 0)
(2.34334 -0.363364 0)
(2.31995 -0.528236 0)
(2.22881 -0.698338 0)
(2.14373 -0.824332 0)
(2.08082 -0.899967 0)
(2.01934 -0.96657 0)
(1.98044 -0.98015 0)
(1.95154 -0.99736 0)
(1.95341 -1.01959 0)
(1.96874 -0.996821 0)
(1.99513 -0.995591 0)
(2.07198 -0.977645 0)
(1.28787 1.65538 0)
(1.55221 1.87708 0)
(1.89178 1.44166 0)
(2.13483 0.964821 0)
(2.45268 0.328437 0)
(2.52371 0.485377 0)
(2.58455 0.290407 0)
(2.53952 -0.0416705 0)
(2.50568 -0.133002 0)
(2.47645 -0.311874 0)
(2.42168 -0.479815 0)
(2.32972 -0.641752 0)
(2.26986 -0.729014 0)
(2.20043 -0.812919 0)
(2.15838 -0.828206 0)
(2.12243 -0.836077 0)
(2.08137 -0.87236 0)
(2.07198 -0.878829 0)
(2.03731 -0.92415 0)
(2.05867 -0.95353 0)
(1.36974 1.85605 0)
(1.55396 2.1413 0)
(1.89688 1.70105 0)
(2.03046 1.19001 0)
(2.15444 1.01912 0)
(2.37992 0.827747 0)
(2.55379 0.478785 0)
(2.62547 0.281305 0)
(2.58438 0.0557364 0)
(2.57279 -0.0355715 0)
(2.53927 -0.196536 0)
(2.49296 -0.32302 0)
(2.44906 -0.40919 0)
(2.40804 -0.473463 0)
(2.35805 -0.525865 0)
(2.33135 -0.548491 0)
(2.26762 -0.622463 0)
(2.21037 -0.704848 0)
(2.15693 -0.785916 0)
(2.1336 -0.80123 0)
(1.38886 1.87984 0)
(1.56717 2.50324 0)
(1.7423 2.0067 0)
(1.90378 1.7187 0)
(2.15387 1.4316 0)
(2.3017 1.16139 0)
(2.36331 1.17713 0)
(2.45802 0.975116 0)
(2.50663 0.670362 0)
(2.53148 0.553071 0)
(2.56078 0.34972 0)
(2.55745 0.168269 0)
(2.55323 0.0183945 0)
(2.54659 -0.110983 0)
(2.49147 -0.285203 0)
(2.47512 -0.371165 0)
(2.39161 -0.526622 0)
(2.34264 -0.566265 0)
(2.3033 -0.591986 0)
(2.3202 -0.53419 0)
(1.40635 1.84576 0)
(1.67342 2.63384 0)
(1.72148 2.19897 0)
(1.83659 1.9943 0)
(2.02281 1.71858 0)
(2.14402 1.53378 0)
(2.24709 1.39401 0)
(2.35691 1.1964 0)
(2.42014 1.03659 0)
(2.49438 0.838408 0)
(2.5896 0.638506 0)
(2.61637 0.376604 0)
(2.64698 0.180633 0)
(2.64439 -0.00726052 0)
(2.59416 -0.201882 0)
(2.56068 -0.280496 0)
(2.51515 -0.352135 0)
(2.51151 -0.257628 0)
(2.45271 -0.322925 0)
(2.48019 -0.267089 0)
(1.44844 1.73403 0)
(1.72363 2.45014 0)
(1.82346 2.36729 0)
(1.89685 2.13207 0)
(2.05441 1.82476 0)
(2.14276 1.69539 0)
(2.33733 1.47518 0)
(2.48135 1.27007 0)
(2.60261 1.15963 0)
(2.66788 0.800778 0)
(2.73103 0.612233 0)
(2.72103 0.366272 0)
(2.7248 0.273493 0)
(2.70995 0.143741 0)
(2.69083 0.0742396 0)
(2.65833 0.0463257 0)
(2.63256 0.0494899 0)
(2.62471 0.055662 0)
(2.55921 -0.107243 0)
(2.57589 -0.113757 0)
(1.41158 1.46738 0)
(1.62041 2.16371 0)
(1.8555 2.38088 0)
(2.10803 2.33743 0)
(2.29028 1.93506 0)
(2.36128 1.85965 0)
(2.54824 1.45504 0)
(2.68706 1.27026 0)
(2.75381 1.19179 0)
(2.77303 0.973102 0)
(2.76917 0.972679 0)
(2.75471 0.764144 0)
(2.71846 0.717528 0)
(2.71728 0.61795 0)
(2.698 0.511671 0)
(2.6833 0.429421 0)
(2.69768 0.357766 0)
(2.69026 0.20987 0)
(2.6584 0.0199081 0)
(2.61972 -0.0514222 0)
(1.40169 1.23649 0)
(1.4768 1.83369 0)
(1.72193 2.20861 0)
(1.90177 2.27147 0)
(2.28804 2.03434 0)
(2.48411 1.98692 0)
(2.47633 1.63697 0)
(2.50047 1.50993 0)
(2.53815 1.49064 0)
(2.54467 1.45328 0)
(2.55065 1.35913 0)
(2.59501 1.20024 0)
(2.60029 1.03686 0)
(2.66557 0.947761 0)
(2.68432 0.745956 0)
(2.73297 0.602363 0)
(2.76169 0.42929 0)
(2.76078 0.215934 0)
(2.7223 0.176255 0)
(2.67774 0.163289 0)
(1.39872 1.1583 0)
(1.40783 1.57019 0)
(1.52861 2.04527 0)
(1.67712 2.25907 0)
(1.99995 2.19795 0)
(2.16939 2.08938 0)
(2.24661 1.92738 0)
(2.2603 1.81691 0)
(2.26805 1.73019 0)
(2.30366 1.6619 0)
(2.41083 1.45859 0)
(2.54209 1.36727 0)
(2.59605 1.12554 0)
(2.72786 1.02956 0)
(2.75038 0.765124 0)
(2.79086 0.629692 0)
(2.78885 0.50806 0)
(2.77992 0.402067 0)
(2.73294 0.540993 0)
(2.70013 0.473588 0)
(1.42469 1.15482 0)
(1.42451 1.49787 0)
(1.48978 1.9675 0)
(1.50143 2.22403 0)
(1.74474 2.22703 0)
(1.89246 2.16169 0)
(1.98356 2.0831 0)
(2.07789 1.87337 0)
(2.14468 1.77239 0)
(2.3118 1.6729 0)
(2.43564 1.47146 0)
(2.62238 1.40899 0)
(2.69716 1.14316 0)