/*--------------------------------*- C++ -*----------------------------------*\
  =========                 |
  \\      /  F ield         | OpenFOAM: The Open Source CFD Toolbox
   \\    /   O peration     | Website:  https://openfoam.org
    \\  /    A nd           | Version:  7
     \\/     M anipulation  |
\*---------------------------------------------------------------------------*/
FoamFile
{
    version     2.0;
    format      ascii;
    class       volScalarField;
    location    "5.2";
    object      p;
}
// * * * * * * * * * * * * * * * * * * * * * * * * * * * * * * * * * * * * * //

dimensions      [1 -1 -2 0 0 0 0];

internalField   nonuniform List<scalar> 
3700
(
0.198548
0.288531
0.340992
0.384234
0.403424
0.394407
0.361876
0.36919
0.38738
0.408829
0.425089
0.439162
0.470263
0.492077
0.501293
0.515366
0.534212
0.536678
0.544634
0.534817
0.133453
0.123814
0.131651
0.131052
0.129205
0.115842
0.0939037
0.100793
0.123587
0.151252
0.16871
0.160781
0.158311
0.164978
0.176201
0.1904
0.207869
0.226994
0.252688
0.250363
0.118099
0.0984872
0.0885677
0.0701631
0.0486593
0.0458915
0.0485696
0.060747
0.0703588
0.0790748
0.0886703
0.088507
0.0890572
0.0898165
0.0912926
0.0946091
0.102348
0.112927
0.124099
0.135941
0.0937315
0.0866624
0.0805469
0.0608047
0.043811
0.0437543
0.0474095
0.0596249
0.0703143
0.0829089
0.101741
0.113905
0.124524
0.131165
0.134638
0.136871
0.135804
0.138694
0.149966
0.17774
0.0744346
0.0740001
0.0681871
0.0474534
0.0421258
0.0436549
0.0500261
0.0596077
0.068818
0.0808051
0.100366
0.118402
0.13952
0.158233
0.171761
0.184667
0.181813
0.182898
0.183639
0.205468
0.0682231
0.0628574
0.0488059
0.0422688
0.0472632
0.0575109
0.0674892
0.0753362
0.0816936
0.0915689
0.100437
0.115559
0.142699
0.172517
0.197567
0.22285
0.244016
0.26337
0.270207
0.288653
0.0565658
0.0493747
0.0409476
0.0445997
0.0548279
0.0715887
0.0879167
0.104555
0.120382
0.140463
0.134148
0.138526
0.150397
0.178315
0.210828
0.248902
0.290263
0.33071
0.364209
0.414384
0.0425674
0.0413788
0.0417274
0.0443958
0.0569986
0.0769598
0.0954297
0.119692
0.156264
0.188303
0.202346
0.217499
0.225307
0.243185
0.261422
0.292555
0.337292
0.403168
0.459718
0.561225
0.0308965
0.0380971
0.0424713
0.0444499
0.0566031
0.0780303
0.0936927
0.119676
0.168891
0.217917
0.26086
0.294048
0.332417
0.36918
0.395275
0.425431
0.455656
0.514482
0.584368
0.73645
0.0231946
0.0341068
0.0423715
0.0475598
0.0589425
0.0827025
0.0965946
0.116973
0.16413
0.230216
0.297606
0.354973
0.428787
0.484661
0.542882
0.600633
0.656468
0.71295
0.800958
0.948618
0.0191157
0.030623
0.0420527
0.0515786
0.0742895
0.106999
0.126079
0.159206
0.208021
0.263419
0.345322
0.43008
0.528834
0.609912
0.701242
0.800334
0.90119
0.988178
1.14991
1.11999
0.0185178
0.0308662
0.0432801
0.0683361
0.111178
0.152244
0.19662
0.27185
0.363053
0.457884
0.549552
0.639296
0.733327
0.821046
0.918302
1.05247
1.20919
1.35038
1.56068
1.51091
0.0219969
0.0338409
0.0518922
0.0957794
0.148915
0.193879
0.272373
0.390161
0.526957
0.684546
0.81304
0.942617
1.06811
1.1869
1.31342
1.46857
1.64621
1.82466
2.09845
2.09081
0.0250664
0.0387414
0.0631887
0.104207
0.160286
0.215976
0.335097
0.489389
0.682459
0.917843
1.11278
1.30503
1.49038
1.67303
1.89013
2.1187
2.33446
2.56957
2.79244
2.99093
0.0242805
0.042311
0.0700163
0.0869039
0.14879
0.276798
0.502536
0.761291
1.09056
1.39989
1.66067
1.89673
2.13255
2.38238
2.70107
2.9869
3.25151
3.49352
3.65381
3.78599
0.0128141
0.0342697
0.0811853
0.0932894
0.253904
0.66555
1.0955
1.53205
1.99494
2.36546
2.63499
2.89093
3.15789
3.45624
3.78498
3.98008
4.08116
4.11851
4.02612
3.90506
0.00672615
0.0298275
0.0963029
0.366256
0.888923
1.49135
2.05626
2.63965
3.21509
3.56433
3.77591
4.00594
4.22122
4.39755
4.48706
4.4105
4.18938
3.64825
2.78396
1.88427
0.0388345
0.171602
0.51773
1.22055
2.13022
2.88285
3.51963
4.19543
4.77049
4.82307
4.72822
4.74049
4.70447
4.54272
4.0348
3.07252
2.09047
1.32963
1.01745
0.992877
0.304965
0.853958
1.99393
3.21914
4.16752
4.80595
5.40214
5.89203
5.74989
5.29299
4.85474
4.31426
3.39924
2.33036
1.42664
1.02943
0.989428
0.994967
0.99734
0.999447
2.32756
3.65805
4.91185
5.72471
6.18036
6.44525
6.56989
6.24239
4.54811
3.2106
2.37523
1.5723
1.08434
0.987721
0.99296
0.996293
0.999154
0.999971
1.00002
1.00001
6.98704
6.93214
6.89831
6.92075
6.99334
6.81725
6.00767
2.23256
0.662709
1
1
1
1
1
1
1
1
1
1
1
6.9386
6.89352
6.81574
6.75742
6.93495
5.73264
2.56135
1.01077
1
1
1
1
1
1
1
1
1
1
1
1
6.7844
6.8458
6.77151
6.57013
6.3313
3.38757
1.04831
0.999141
1
1
1
1
1
1
1
1
1
1
1
1
6.65815
6.83172
6.84407
6.41664
4.77118
1.49661
0.993203
1.00011
0.999999
1
1
1
1
1
1
1
1
1
1
1
6.50222
6.83528
6.87556
6.3184
2.74382
0.974121
1.00038
0.999994
1
1
1
1
1
1
1
1
1
1
1
1
6.38352
6.73894
6.81501
4.94703
1.34984
1
1
1
1
1
1
1
1
1
1
1
1
1
1
1
6.34812
6.65147
6.55721
3.49778
0.986831
1
1
1
1
1
1
1
1
1
1
1
1
1
1
1
6.45109
6.66663
6.13086
2.08327
0.999998
1
1
1
1
1
1
1
1
1
1
1
1
1
1
1
6.93192
6.7096
4.94844
1.19247
1
1
1
1
1
1
1
1
1
1
1
1
1
1
1
1
7.23705
6.37014
3.53439
0.987325
1
1
1
1
1
1
1
1
1
1
1
1
1
1
1
1
7.45831
6.04486
2.27023
1
1
1
1
1
1
1
1
1
1
1
1
1
1
1
1
1
7.53269
5.37527
1.5796
1
1
1
1
1
1
1
1
1
1
1
1
1
1
1
1
1
7.57791
4.69878
1.1606
1
1
1
1
1
1
1
1
1
1
1
1
1
1
1
1
1
7.40217
3.94822
1.00017
1
1
1
1
1
1
1
1
1
1
1
1
1
1
1
1
1
7.10852
3.24152
1
1
1
1
1
1
1
1
1
1
1
1
1
1
1
1
1
1
6.91847
2.60934
1
1
1
1
1
1
1
1
1
1
1
1
1
1
1
1
1
1
6.77163
1.88852
1
1
1
1
1
1
1
1
1
1
1
1
1
1
1
1
1
1
6.26782
1.32584
1
1
1
1
1
1
1
1
1
1
1
1
1
1
1
1
1
1
5.68066
1.00442
1
1
1
1
1
1
1
1
1
1
1
1
1
1
1
1
1
1
4.67162
1.00009
1
1
1
1
1
1
1
1
1
1
1
1
1
1
1
1
1
1
4.66928
1.0001
1
1
1
1
1
1
1
1
1
1
1
1
1
1
1
1
1
1
5.69284
1.0044
1
1
1
1
1
1
1
1
1
1
1
1
1
1
1
1
1
1
6.26327
1.32487
1
1
1
1
1
1
1
1
1
1
1
1
1
1
1
1
1
1
6.76679
1.88143
1
1
1
1
1
1
1
1
1
1
1
1
1
1
1
1
1
1
6.93099
2.59816
1
1
1
1
1
1
1
1
1
1
1
1
1
1
1
1
1
1
7.10511
3.25028
1
1
1
1
1
1
1
1
1
1
1
1
1
1
1
1
1
1
7.4044
3.95139
1.00019
1
1
1
1
1
1
1
1
1
1
1
1
1
1
1
1
1
7.57563
4.70944
1.16554
1
1
1
1
1
1
1
1
1
1
1
1
1
1
1
1
1
7.52843
5.37623
1.58812
1
1
1
1
1
1
1
1
1
1
1
1
1
1
1
1
1
7.45711
6.04312
2.26553
1
1
1
1
1
1
1
1
1
1
1
1
1
1
1
1
1
7.23779
6.36504
3.52102
0.987358
1
1
1
1
1
1
1
1
1
1
1
1
1
1
1
1
6.93768
6.70509
4.93346
1.19336
1
1
1
1
1
1
1
1
1
1
1
1
1
1
1
1
6.46586
6.68235
6.14064
2.07578
0.999994
1
1
1
1
1
1
1
1
1
1
1
1
1
1
1
6.35082
6.65545
6.55975
3.51062
0.989208
1
1
1
1
1
1
1
1
1
1
1
1
1
1
1
6.38341
6.73449
6.80177
4.92205
1.35038
1
1
1
1
1
1
1
1
1
1
1
1
1
1
1
6.50204
6.83498
6.87568
6.33914
2.72778
0.974341
1.00038
0.999994
1
1
1
1
1
1
1
1
1
1
1
1
6.65919
6.83489
6.84961
6.43624
4.77152
1.50164
0.992968
1.00012
0.999999
1
1
1
1
1
1
1
1
1
1
1
6.78232
6.8426
6.76309
6.56314
6.32279
3.40202
1.05189
0.999077
1
1
1
1
1
1
1
1
1
1
1
1
6.92887
6.88828
6.80388
6.73467
6.93455
5.73983
2.56256
1.0104
1
1
1
1
1
1
1
1
1
1
1
1
6.98609
6.93375
6.89806
6.92192
7.00523
6.81866
6.00831
2.2333
0.661677
1
1
1
1
1
1
1
1
1
1
1
2.32644
3.65955
4.91296
5.72416
6.19297
6.45118
6.57176
6.24345
4.54693
3.21114
2.37652
1.57319
1.08465
0.987755
0.992973
0.996296
0.999153
0.999971
1.00002
1.00001
0.305718
0.857598
1.99723
3.22354
4.16011
4.80422
5.40606
5.89552
5.75189
5.29318
4.85437
4.31324
3.3975
2.32888
1.4262
1.02938
0.989409
0.994958
0.997337
0.999446
0.0347046
0.161922
0.5287
1.22726
2.14761
2.88415
3.51042
4.18774
4.77305
4.82437
4.72809
4.73973
4.70355
4.54182
4.03446
3.07265
2.09101
1.33024
1.01766
0.992896
0.00791707
0.0295387
0.0878242
0.375974
0.900203
1.49735
2.05328
2.6283
3.20582
3.55972
3.77331
4.0034
4.21825
4.39518
4.48513
4.40872
4.18829
3.6483
2.7845
1.88383
0.0125135
0.0286318
0.0660993
0.0959196
0.252647
0.683042
1.11167
1.54204
1.99907
2.36962
2.63836
2.89457
3.16162
3.45805
3.78542
3.98216
4.08309
4.11852
4.02568
3.90375
0.0276443
0.0378601
0.0597855
0.0752098
0.143758
0.268328
0.499055
0.76814
1.10151
1.40741
1.66619
1.89952
2.13331
2.38072
2.69869
2.98509
3.25063
3.49198
3.6511
3.7849
0.0349524
0.0391437
0.0589764
0.094801
0.153832
0.200837
0.323677
0.473799
0.667596
0.904846
1.10354
1.29854
1.48651
1.67035
1.89031
2.12052
2.33779
2.57169
2.79403
2.99207
0.0337809
0.0352333
0.0513222
0.0926749
0.145347
0.190039
0.269191
0.383256
0.519083
0.680617
0.811252
0.943236
1.06986
1.19019
1.3182
1.4728
1.6466
1.82181
2.09583
2.08907
0.0295552
0.0348429
0.0415674
0.0696379
0.114011
0.155443
0.200385
0.278843
0.370063
0.468152
0.560541
0.648517
0.739064
0.824425
0.917439
1.04717
1.20468
1.34783
1.56084
1.51298
0.0261022
0.0348466
0.0413671
0.0505213
0.0781214
0.111589
0.127854
0.166491
0.217951
0.269011
0.344642
0.426781
0.523483
0.605081
0.696465
0.79775
0.901337
0.991601
1.1526
1.12003
0.0277216
0.0375367
0.0438826
0.0481276
0.0603497
0.08732
0.0954206
0.115126
0.15937
0.222973
0.290687
0.349029
0.425042
0.48247
0.542929
0.602566
0.660641
0.716926
0.803656
0.948888
0.0326117
0.0411322
0.0442658
0.0462081
0.0593028
0.079722
0.0905997
0.114999
0.165039
0.214572
0.258782
0.293317
0.334561
0.37196
0.399968
0.430902
0.460429
0.514098
0.581365
0.734102
0.0415238
0.0434376
0.0428319
0.0447195
0.0587657
0.0784504
0.0936208
0.116518
0.156232
0.189203
0.206161
0.222202
0.230756
0.248921
0.265226
0.29254
0.33285
0.398311
0.456306
0.560808
0.0541568
0.0480352
0.0405473
0.0435655
0.0555479
0.0738221
0.0892757
0.105018
0.123632
0.14578
0.138664
0.143021
0.150927
0.174775
0.205924
0.244075
0.286242
0.328628
0.364181
0.417902
0.0694782
0.0598822
0.0444139
0.0405533
0.0466606
0.0607073
0.0712499
0.0781126
0.0847882
0.09549
0.101235
0.113441
0.138879
0.169335
0.195111
0.221179
0.244277
0.265515
0.275593
0.293706
0.0731957
0.0720535
0.0630827
0.0438568
0.0401149
0.0449472
0.052417
0.0604286
0.0688548
0.0803195
0.0983888
0.11623
0.138731
0.15849
0.17249
0.187318
0.186637
0.188458
0.188274
0.20497
0.0779745
0.0822272
0.0779364
0.0597572
0.0420337
0.043337
0.0476066
0.059643
0.069889
0.0821683
0.100722
0.114545
0.126744
0.134098
0.13759
0.140989
0.138673
0.139316
0.147366
0.174461
0.0931197
0.0925341
0.0862767
0.0704285
0.0502607
0.0447
0.0488586
0.0609259
0.0704638
0.0792714
0.091553
0.0908228
0.0912213
0.0914877
0.0921601
0.094173
0.0998103
0.10955
0.120798
0.135504
0.118
0.110359
0.124658
0.112647
0.0895992
0.0886119
0.110435
0.139463
0.140717
0.148439
0.168729
0.19052
0.207584
0.201464
0.181922
0.165747
0.158396
0.158857
0.168508
0.182136
0.196798
0.265556
0.339378
0.364992
0.357042
0.363301
0.370373
0.401978
0.404935
0.411285
0.430943
0.449946
0.474861
0.485299
0.478517
0.482934
0.492987
0.492702
0.519938
0.526213
0.557742
0.632311
0.699339
0.81888
0.849409
0.866769
0.844093
0.842646
0.869768
0.917667
0.943286
0.945777
0.936846
0.928831
0.935385
0.952765
0.969449
0.972497
0.965662
0.95825
0.2876
0.406088
0.542022
0.678691
0.780193
0.841445
0.843585
0.842287
0.86782
0.913512
0.945735
0.952465
0.947239
0.928707
0.925766
0.934808
0.954712
0.967029
0.967614
0.965879
0.137508
0.158253
0.23652
0.331185
0.506674
0.690578
0.76682
0.837848
0.877855
0.902543
0.928525
0.937387
0.941328
0.939272
0.931126
0.9292
0.941223
0.957726
0.963425
0.967218
0.192549
0.216099
0.222483
0.232837
0.250857
0.325099
0.534385
0.740626
0.819217
0.871329
0.914936
0.923346
0.936532
0.950805
0.945827
0.936007
0.938571
0.947823
0.95533
0.963787
0.239494
0.262538
0.275242
0.282419
0.293663
0.297441
0.320035
0.431487
0.632467
0.787427
0.86635
0.904476
0.934715
0.961645
0.961712
0.951675
0.942115
0.942653
0.948865
0.958828
0.303309
0.329954
0.333834
0.323463
0.321219
0.329926
0.34741
0.342273
0.374911
0.494009
0.685802
0.825926
0.915986
0.95763
0.969327
0.966691
0.949464
0.936137
0.939423
0.955341
0.39526
0.415189
0.391792
0.353085
0.352566
0.366116
0.38198
0.386679
0.383201
0.374802
0.441472
0.640234
0.808094
0.940707
0.96931
0.965579
0.952178
0.93552
0.941811
0.957684
0.525806
0.511236
0.47541
0.415618
0.395839
0.4021
0.421474
0.423656
0.413963
0.40021
0.387847
0.436078
0.616093
0.816415
0.936282
0.960075
0.950193
0.939676
0.955025
0.962713
0.678747
0.629548
0.565422
0.482634
0.44784
0.450485
0.459693
0.46006
0.452504
0.436219
0.414164
0.405372
0.438955
0.611863
0.806508
0.937633
0.930509
0.939095
0.966158
0.963934
0.853643
0.773872
0.693652
0.584604
0.513663
0.494887
0.487538
0.493363
0.489182
0.475024
0.453158
0.430532
0.42509
0.451729
0.604299
0.825485
0.885966
0.939873
0.973857
0.960463
1.23906
0.946858
0.835508
0.750647
0.648169
0.555903
0.544104
0.555875
0.550827
0.537476
0.514344
0.488504
0.46687
0.451701
0.469309
0.564902
0.748475
0.892507
0.938196
0.950894
2.05442
1.47002
1.10852
1.00178
0.923341
0.770467
0.663558
0.635693
0.615763
0.584433
0.564114
0.552749
0.535995
0.515532
0.479808
0.48235
0.523318
0.636184
0.781865
0.908792
2.50765
2.17591
1.70026
1.32111
1.1294
0.976843
0.81695
0.714629
0.699419
0.665275
0.648304
0.636998
0.619968
0.592282
0.551991
0.518752
0.523445
0.533263
0.572289
0.744337
2.36821
2.34877
2.24315
1.92535
1.53306
1.28944
1.10764
0.938127
0.882276
0.823972
0.765522
0.703166
0.661524
0.632155
0.607131
0.577949
0.567072
0.556902
0.547465
0.583166
1.67994
2.14593
2.22505
2.19642
2.0514
1.7805
1.49382
1.24569
1.07686
0.951817
0.872276
0.791568
0.722118
0.714601
0.704897
0.675132
0.648072
0.622294
0.576985
0.577488
1.10905
1.43606
1.84924
2.1136
2.11237
2.07297
1.93372
1.69181
1.43006
1.22288
1.09028
0.991568
0.894408
0.849301
0.807136
0.747517
0.694465
0.657932
0.62971
0.602317
1.00456
1.04388
1.20613
1.54841
1.8651
2.02071
2.01473
1.97034
1.83306
1.62837
1.39682
1.22587
1.07335
0.962643
0.894463
0.826212
0.768104
0.739574
0.733145
0.699262
1.00009
1.0011
1.0105
1.07992
1.2692
1.57301
1.82038
1.93532
1.92926
1.89075
1.76672
1.58081
1.39176
1.20699
1.08859
1.01181
0.935214
0.880014
0.833933
0.760474
1
1.00001
1.00015
1.0026
1.01877
1.10031
1.29146
1.55795
1.76705
1.85766
1.85187
1.81478
1.72112
1.55528
1.37241
1.22784
1.1047
0.997504
0.921274
0.833009
1
1
1
1.00003
1.00032
1.00387
1.02504
1.10834
1.28518
1.52238
1.70301
1.78823
1.78454
1.75683
1.67569
1.53614
1.38357
1.23115
1.12276
0.998143
1
1
1
1
1
1.00005
1.00051
1.00468
1.02646
1.10539
1.26458
1.47571
1.63931
1.72477
1.72212
1.7023
1.64397
1.52893
1.39546
1.19455
1
1
1
1
1
1
1
1.00006
1.00059
1.00472
1.02564
1.09437
1.23299
1.42305
1.57334
1.6673
1.66557
1.65306
1.61599
1.46274
1
1
1
1
1
1
1
1
1.00001
1.00006
1.00059
1.00422
1.02169
1.08062
1.19784
1.37202
1.50599
1.60846
1.61476
1.5908
1
1
1
1
1
1
1
1
1
1
1.00001
1.00006
1.0005
1.00347
1.01767
1.06351
1.16501
1.31355
1.4436
1.54973
1
1
1
1
1
1
1
1
1
1
1
1
1.00001
1.00005
1.00041
1.00254
1.01415
1.0512
1.13608
1.38853
1.62791
2.46599
2.5824
2.08374
1.30951
1.03682
1.00187
1.00005
1
1
1
1
1
1
1
2.34225
2.81812
2.52611
1.5406
1.04826
1.00081
1
1
1
1
1
1
1
1
1
2.93251
2.87005
1.98236
1.15223
1.00516
1.00005
1
1
1
1
1
1
1
1
1
3.25235
2.55854
1.36459
1.01923
1.00019
1
1
1
1
1
1
1
1
1
1
3.32625
1.68749
1.04763
1.00052
1
1
1
1
1
1
1
1
1
1
1
2.07219
1.07459
1.00051
0.999999
1
1
1
1
1
1
1
1
1
1
1
1.10178
1.00057
0.999997
1
1
1
1
1
1
1
1
1
1
1
1
0.998121
0.999862
0.999996
1
1
1
1
1
1
1
1
1
1
1
1
0.999967
1
1
1
1
1
1
1
1
1
1
1
1
1
1
1
1
1
1
1
1
1
1
1
1
1
1
1
1
1
1
1
1
1
1
1
1
1
1
1
1
1
1
1
1
1
1
1
1
1
1
1
1
1
1
1
1
1
1
1
1
1
1
1
1
1
1
1
1
1
1
1
1
1
1
1
1
1
1
1
1
1
1
1
1
1
1
1
1
1
1
1
1
1
1
1
1
1
1
1
1
1
1
1
1
1
1
1
1
1
1
1
1
1
1
1
1
1
1
1
1
1
1
1
1
1
1
1
1
1
1
1
1
1
1
1
1
1
1
1
1
1
1
1
1
1
1
1
1
1
1
1
1
1
1
1
1
1
1
1
1
1
1
1
1
1
1
1
1
1
1
1
1
1
1
1
1
1
1
1
1
1
1
1
1
1
1
1
1
1
1
1
1
1
1
1
1
1
1
1
1
1
1
1
1
1
1
1
1
1
1
1
1
1
1
1
1
1
1
1
1
1
1
1
1
1
1
1
1
1
1
1
1
1
1
1
1
1
1
1
1
1
1
1
1
1
1
1
1
1
1
1
1
1
1
1
1
1
1
1
1
1
1
1
1
1
1
1
1
1
1
1
1
1
1
1
1
1
1
1
1
1
1
1
1
1
1
1
1
1
1
1
1
1
1
1
1
1
1
1
1
1
1
1
1
1
1
1
1
1
1
1
1
1
1
1
1
1
1
1
1
1
1
1
1
1
1
1
1
1
1
1
1
1
1
1
1
1
1
1
1
1
1
1
1
1
1
1
1
1
1
1
1
1
1
1
1
1
1
1
1
1
1
1
1
1
1
1
1
1
1
1
1
1
1
1
1
1
1
1
1
1
1
1
1
1
1
1
1
1
1
1
1
1
1
1
1
1
1
1
1
1
1
1
1
1
1
1
1
1
1
1
1
1
1
1
1
1
1
1
1
1
1
1
1
1
1
1
1
1
1
1
1
1
1
1
1
1
1
1
1
1
1
1
1
1
1
1
1
1
1
1
1
1
1
1
1
1
1
1
1
1
1
1
1
1
1
1
1
1
1
1
1
1
1
1
1
1
1
1
1
1
1
1
1
1
1
1
1
1
1
1
1
1
1
1
1
1
1
1
1
1
1
1
1
1
1
1
1
1
1
1
1
1
1
1
1
1
1
1
1
1
1
1
1
1
1
1
1
1
1
1
1
1
1
1
1
1
1
1
1
1
1
1
1
1
1
1
1
1
1
1
1
1
1
1
1
1
1
1
1
1
1
1
1
1
1
1
1
1
1
1
1
1
1
1
1
1
1
1
1
1
1
1
1
1
1
1
1
1
1
1
1
1
1
1
1
1
1
1
1
1
1
1
1
1
1
1
1
1
1
1
1
1
1
1
1
1
1
1
1
1
1
1
1
1
1
1
1
1
1
1
1
1
1
1
1
1
1
1
1
1
1
1
1
1
1
1
1
1
1
1
1
1
1
1
1
1
1
1
1
1
1
1
1
1
1
1
1
1
1
1
1
1
1
1
1
1
1
1
1
1
1
1
1
1
1
1
1
1
1
1
1
1
1
1
1
1
1
1
1
1
1
1
1
1
1
1
1
1
1
1
1
1
1
1
1
1
1
1
1
1
1
1
1
1
1
1
1
1
1
1
1
1
1
1
1
1
1
1
1
1
1
1
1
1
1
1
1
1
1
1
1
1
1
1
1
1
1
1
1
1
1
1
1
1
1
1
1
1
1
1
1
1
1
1
1
1
1
1
1
1
1
1
1
1
1
1
1
1
1
1
1
1
1
1
1
1
1
1
1
1
1
1
1
1
1
1
1
1
1
1
1
1
1
1
1
1
1
1
1
1
1
1
1
1
1
1
1
1
1
1
1
1
1
1
1
1
1
1
1
1
1
1
1
0.999967
1
1
1
1
1
1
1
1
1
1
1
1
1
1
0.998128
0.999863
0.999996
1
1
1
1
1
1
1
1
1
1
1
1
1.10151
1.00056
0.999997
1
1
1
1
1
1
1
1
1
1
1
1
2.07097
1.07444
1.00051
0.999999
1
1
1
1
1
1
1
1
1
1
1
3.32589
1.68748
1.04761
1.00052
1
1
1
1
1
1
1
1
1
1
1
3.25258
2.55907
1.36494
1.01927
1.00019
1
1
1
1
1
1
1
1
1
1
2.93194
2.86946
1.98207
1.15223
1.00516
1.00005
1
1
1
1
1
1
1
1
1
2.34196
2.81734
2.52527
1.54045
1.04826
1.00081
1
1
1
1
1
1
1
1
1
1.62509
2.46531
2.58245
2.08347
1.3094
1.0368
1.00187
1.00005
1
1
1
1
1
1
1
1.24831
2.05518
2.50537
2.36864
1.68109
1.10925
1.00456
1.00009
1
1
1
1
1
1
1
0.931622
1.4713
2.1812
2.34877
2.14516
1.43595
1.04388
1.0011
1.00001
1
1
1
1
1
1
0.829761
1.09677
1.70279
2.24389
2.22505
1.84909
1.20599
1.01049
1.00015
1
1
1
1
1
1
0.76181
0.998106
1.30625
1.92426
2.19679
2.11352
1.548
1.07982
1.0026
1.00003
1
1
1
1
1
0.665247
0.931258
1.12882
1.53628
2.04784
2.11223
1.86463
1.26897
1.01877
1.00032
1
1
1
1
1
0.558508
0.782017
0.977467
1.28699
1.78099
2.07274
2.02067
1.57295
1.10035
1.00387
1.00005
1
1
1
1
0.541749
0.674739
0.813743
1.08854
1.5013
1.93264
2.01481
1.8207
1.29162
1.02506
1.00051
1
1
1
1
0.550173
0.639071
0.736217
0.930966
1.23503
1.69516
1.97042
1.93543
1.55815
1.1084
1.00468
1.00006
1
1
1
0.54248
0.607684
0.712724
0.891411
1.06588
1.43066
1.83308
1.92914
1.76698
1.2852
1.02647
1.00059
1.00001
1
1
0.524539
0.572524
0.667969
0.834846
0.953139
1.21485
1.62586
1.89017
1.85736
1.5223
1.10541
1.00472
1.00006
1
1
0.508505
0.545925
0.648215
0.770826
0.87488
1.08202
1.39456
1.76653
1.85177
1.70301
1.2646
1.02564
1.00059
1.00001
1
0.492519
0.545275
0.630662
0.703079
0.793203
0.990144
1.22641
1.58104
1.81493
1.78849
1.47592
1.09439
1.00422
1.00006
1
0.472276
0.534997
0.610279
0.656147
0.728079
0.902768
1.07657
1.39234
1.72131
1.78489
1.63962
1.2331
1.0217
1.0005
1.00001
0.465091
0.514601
0.583844
0.627943
0.721413
0.856493
0.962667
1.20721
1.55611
1.75732
1.72521
1.42326
1.08065
1.00347
1.00005
0.477179
0.481508
0.549842
0.60391
0.709539
0.808165
0.890649
1.08967
1.3736
1.67649
1.72254
1.57365
1.19793
1.01768
1.00041
0.568416
0.487475
0.524561
0.575742
0.676227
0.743669
0.821916
1.01441
1.22829
1.53674
1.70262
1.66753
1.37213
1.06354
1.00254
0.754178
0.532099
0.531556
0.563391
0.647796
0.690636
0.767319
0.938221
1.10427
1.38403
1.6442
1.66574
1.50612
1.16503
1.01415
0.890518
0.64545
0.540924
0.554777
0.621666
0.656064
0.7387
0.881441
0.99649
1.23148
1.52902
1.65318
1.60857
1.31359
1.0512
0.936082
0.786115
0.576635
0.547806
0.577448
0.628956
0.731854
0.833862
0.919656
1.12246
1.39546
1.61607
1.61484
1.44361
1.13605
0.950284
0.908174
0.743832
0.583571
0.578215
0.601605
0.697748
0.759834
0.831672
0.997584
1.19455
1.4628
1.59081
1.54971
1.38846
0.85543
0.769922
0.696134
0.59361
0.513984
0.491377
0.485183
0.490307
0.48332
0.468545
0.454448
0.433264
0.427763
0.454332
0.610247
0.836438
0.880712
0.935264
0.970182
0.959921
0.67831
0.628457
0.568474
0.483372
0.445029
0.447868
0.455756
0.455793
0.449676
0.435319
0.417871
0.407908
0.442273
0.615037
0.844531
0.941718
0.916888
0.930584
0.962294
0.962877
0.5265
0.511682
0.475849
0.415887
0.395179
0.400286
0.420946
0.424287
0.417724
0.407129
0.39473
0.441954
0.623675
0.838195
0.922741
0.949585
0.938443
0.932391
0.951615
0.961782
0.39794
0.41492
0.38969
0.350205
0.350438
0.36152
0.379065
0.387035
0.389847
0.381285
0.442731
0.643486
0.825193
0.944924
0.944871
0.947963
0.94492
0.935655
0.943655
0.960837
0.303461
0.330733
0.331794
0.319814
0.316378
0.325273
0.345582
0.342289
0.374782
0.491775
0.688914
0.820595
0.913949
0.949612
0.948163
0.950136
0.952427
0.948127
0.950473
0.961886
0.238583
0.262974
0.273557
0.279975
0.290504
0.295901
0.322474
0.429452
0.625487
0.792704
0.866761
0.898616
0.928069
0.946396
0.948768
0.952343
0.952818
0.949011
0.952382
0.961398
0.192373
0.216973
0.222346
0.231227
0.250042
0.336304
0.552731
0.743163
0.817611
0.879389
0.919295
0.920516
0.927755
0.939493
0.945861
0.951083
0.953721
0.954683
0.957242
0.961984
0.137252
0.168474
0.247062
0.330847
0.504203
0.708008
0.775726
0.843001
0.881255
0.909517
0.929532
0.93648
0.937791
0.936144
0.941136
0.949353
0.959044
0.960783
0.961136
0.960784
0.287131
0.43295
0.551759
0.677464
0.776579
0.851896
0.851092
0.848475
0.867521
0.910064
0.942697
0.949084
0.942893
0.932107
0.939365
0.957611
0.968994
0.967944
0.960701
0.954873
0.566964
0.636282
0.69987
0.818935
0.84904
0.853392
0.841612
0.843285
0.867518
0.919935
0.955771
0.958739
0.945546
0.930946
0.940352
0.961126
0.965568
0.961978
0.954239
0.953522
)
;

boundaryField
{
    inlet
    {
        type            fixedValue;
        value           uniform 1;
    }
    outlet
    {
        type            zeroGradient;
    }
    airfoil
    {
        type            zeroGradient;
    }
    top
    {
        type            symmetryPlane;
    }
    bottom
    {
        type            symmetryPlane;
    }
    defaultFaces
    {
        type            empty;
    }
}


// ************************************************************************* //
