/*--------------------------------*- C++ -*----------------------------------*\
  =========                 |
  \\      /  F ield         | OpenFOAM: The Open Source CFD Toolbox
   \\    /   O peration     | Website:  https://openfoam.org
    \\  /    A nd           | Version:  7
     \\/     M anipulation  |
\*---------------------------------------------------------------------------*/
FoamFile
{
    version     2.0;
    format      ascii;
    class       volScalarField;
    location    "5.2";
    object      rho;
}
// * * * * * * * * * * * * * * * * * * * * * * * * * * * * * * * * * * * * * //

dimensions      [1 -3 0 0 0 0 0];

internalField   nonuniform List<scalar> 
3700
(
0.275976
0.400402
0.473008
0.53269
0.559256
0.546819
0.501969
0.512202
0.537163
0.56626
0.588608
0.60817
0.65131
0.681455
0.694006
0.713449
0.73957
0.743049
0.754133
0.740671
0.186119
0.172661
0.183538
0.18257
0.179827
0.161296
0.13099
0.140679
0.172282
0.21052
0.234774
0.223902
0.220607
0.229847
0.245336
0.26505
0.289352
0.315961
0.35172
0.348583
0.164749
0.137518
0.123776
0.0981685
0.0681778
0.0643199
0.0680591
0.0850605
0.0984826
0.110665
0.124081
0.123873
0.124666
0.125749
0.127828
0.132466
0.143278
0.158055
0.173664
0.190227
0.130901
0.12108
0.112612
0.0851175
0.0614169
0.0613462
0.0664535
0.0835191
0.0984475
0.116028
0.142334
0.159343
0.174188
0.18348
0.188368
0.191528
0.190081
0.194128
0.209857
0.24862
0.104121
0.103519
0.0954207
0.0664992
0.0590727
0.0612172
0.0701284
0.0835142
0.0963869
0.113124
0.140437
0.165628
0.195124
0.221256
0.240167
0.258209
0.254256
0.255825
0.256904
0.287382
0.0955047
0.0880112
0.0683843
0.0592676
0.0662724
0.0806145
0.0945769
0.105546
0.114425
0.128201
0.14057
0.161687
0.199587
0.241216
0.276194
0.311492
0.341038
0.368065
0.377632
0.403384
0.0792455
0.0691885
0.057406
0.0625187
0.0768139
0.100234
0.123053
0.146315
0.168458
0.196514
0.187706
0.193809
0.210371
0.249354
0.294744
0.347871
0.405554
0.461953
0.508686
0.578605
0.0596921
0.058016
0.0584955
0.0622101
0.0797993
0.107668
0.133466
0.167354
0.218428
0.263177
0.282806
0.303979
0.314895
0.339874
0.36536
0.408817
0.471189
0.562978
0.641782
0.783151
0.0433711
0.053423
0.0595135
0.0622528
0.0791976
0.109102
0.130996
0.16728
0.235954
0.304379
0.364299
0.410622
0.464115
0.515402
0.551822
0.593912
0.636093
0.718083
0.815413
1.02706
0.0325832
0.0478284
0.0593446
0.066566
0.082434
0.115603
0.135026
0.163484
0.229275
0.321462
0.415461
0.495465
0.598306
0.676195
0.757325
0.837813
0.915616
0.994276
1.11678
1.32215
0.0268613
0.042936
0.0588828
0.0721801
0.103889
0.149562
0.176235
0.222437
0.29049
0.367722
0.481944
0.600097
0.737658
0.850584
0.97773
1.11566
1.25603
1.37707
1.60184
1.5603
0.026015
0.0432593
0.0606085
0.0956116
0.155414
0.212725
0.274636
0.379477
0.506549
0.638553
0.766248
0.891241
1.02222
1.14437
1.27972
1.46632
1.68417
1.8804
2.17239
2.10328
0.0308617
0.0474323
0.0726787
0.13395
0.208083
0.270785
0.380159
0.544192
0.734614
0.953886
1.13275
1.31306
1.48766
1.65288
1.82874
2.04435
2.2911
2.53888
2.91879
2.90812
0.0351348
0.0542995
0.0884923
0.145724
0.223966
0.30159
0.467474
0.682261
0.950865
1.27821
1.54938
1.81673
2.07438
2.3281
2.62944
2.94657
3.24588
3.57208
3.88135
4.15682
0.0340212
0.0592646
0.0980501
0.121607
0.20798
0.386266
0.700394
1.06032
1.51795
1.9479
2.3104
2.63843
2.96592
3.31251
3.7543
4.15041
4.51719
4.85293
5.0758
5.25966
0.0179769
0.0480039
0.113641
0.130456
0.354262
0.92669
1.5242
2.13053
2.77321
3.28772
3.662
4.01721
4.38741
4.80078
5.25624
5.52661
5.66709
5.71938
5.59252
5.42672
0.00947643
0.0418325
0.134716
0.510597
1.23682
2.0734
2.85768
3.66715
4.46544
4.94987
5.24321
5.56189
5.85991
6.10439
6.22867
6.12305
5.81903
5.07315
3.87758
2.63074
0.0546093
0.239937
0.721358
1.69739
2.9595
4.00363
4.88677
5.82363
6.62072
6.69319
6.56159
6.57864
6.52877
6.30578
5.60553
4.27497
2.91622
1.85963
1.42436
1.39006
0.426412
1.18936
2.77104
4.46928
5.7835
6.66839
7.49446
8.1735
7.97657
7.34336
6.73626
5.98956
4.72469
3.24731
1.99439
1.44107
1.38525
1.39298
1.39629
1.39923
3.23607
5.07879
6.81437
7.93931
8.57049
8.93846
9.11131
8.65906
6.31382
4.46056
3.30607
2.19597
1.5176
1.38287
1.39018
1.39483
1.39882
1.39997
1.40003
1.40002
9.68516
9.60928
9.56267
9.59424
9.69585
9.4545
8.33762
3.11196
0.929117
1.40001
1.40001
1.40001
1.40001
1.40001
1.40001
1.40001
1.40001
1.40001
1.40001
1.40001
9.61806
9.55577
9.4485
9.36866
9.61633
7.95801
3.56908
1.41495
1.40001
1.40001
1.40001
1.40001
1.40001
1.40001
1.40001
1.40001
1.40001
1.40001
1.40001
1.40001
9.40511
9.49
9.38749
9.11008
8.7822
4.71218
1.46704
1.39881
1.40001
1.40001
1.40001
1.40001
1.40001
1.40001
1.40001
1.40001
1.40001
1.40001
1.40001
1.40001
9.23063
9.47067
9.48812
8.8989
6.62626
2.08953
1.39054
1.40016
1.4
1.40001
1.40001
1.40001
1.40001
1.40001
1.40001
1.40001
1.40001
1.40001
1.40001
1.40001
9.015
9.47577
9.53204
8.76485
3.81988
1.36388
1.40053
1.4
1.40001
1.40001
1.40001
1.40001
1.40001
1.40001
1.40001
1.40001
1.40001
1.40001
1.40001
1.40001
8.85076
9.34257
9.44873
6.86941
1.88571
1.40001
1.40001
1.40001
1.40001
1.40001
1.40001
1.40001
1.40001
1.40001
1.40001
1.40001
1.40001
1.40001
1.40001
1.40001
8.80171
9.22163
9.09239
4.86296
1.38152
1.40001
1.40001
1.40001
1.40001
1.40001
1.40001
1.40001
1.40001
1.40001
1.40001
1.40001
1.40001
1.40001
1.40001
1.40001
8.94353
9.24268
8.50426
2.90253
1.40001
1.40001
1.40001
1.40001
1.40001
1.40001
1.40001
1.40001
1.40001
1.40001
1.40001
1.40001
1.40001
1.40001
1.40001
1.40001
9.60839
9.30263
6.87077
1.66704
1.40001
1.40001
1.40001
1.40001
1.40001
1.40001
1.40001
1.40001
1.40001
1.40001
1.40001
1.40001
1.40001
1.40001
1.40001
1.40001
10.0302
8.83502
4.91432
1.38231
1.40001
1.40001
1.40001
1.40001
1.40001
1.40001
1.40001
1.40001
1.40001
1.40001
1.40001
1.40001
1.40001
1.40001
1.40001
1.40001
10.336
8.38679
3.16261
1.40001
1.40001
1.40001
1.40001
1.40001
1.40001
1.40001
1.40001
1.40001
1.40001
1.40001
1.40001
1.40001
1.40001
1.40001
1.40001
1.40001
10.4386
7.46204
2.20468
1.40001
1.40001
1.40001
1.40001
1.40001
1.40001
1.40001
1.40001
1.40001
1.40001
1.40001
1.40001
1.40001
1.40001
1.40001
1.40001
1.40001
10.5009
6.5267
1.62307
1.40001
1.40001
1.40001
1.40001
1.40001
1.40001
1.40001
1.40001
1.40001
1.40001
1.40001
1.40001
1.40001
1.40001
1.40001
1.40001
1.40001
10.2575
5.48771
1.40024
1.40001
1.40001
1.40001
1.40001
1.40001
1.40001
1.40001
1.40001
1.40001
1.40001
1.40001
1.40001
1.40001
1.40001
1.40001
1.40001
1.40001
9.85193
4.50794
1.40001
1.40001
1.40001
1.40001
1.40001
1.40001
1.40001
1.40001
1.40001
1.40001
1.40001
1.40001
1.40001
1.40001
1.40001
1.40001
1.40001
1.40001
9.59058
3.63148
1.40001
1.40001
1.40001
1.40001
1.40001
1.40001
1.40001
1.40001
1.40001
1.40001
1.40001
1.40001
1.40001
1.40001
1.40001
1.40001
1.40001
1.40001
9.3906
2.63246
1.40001
1.40001
1.40001
1.40001
1.40001
1.40001
1.40001
1.40001
1.40001
1.40001
1.40001
1.40001
1.40001
1.40001
1.40001
1.40001
1.40001
1.40001
8.6971
1.85233
1.40001
1.40001
1.40001
1.40001
1.40001
1.40001
1.40001
1.40001
1.40001
1.40001
1.40001
1.40001
1.40001
1.40001
1.40001
1.40001
1.40001
1.40001
7.88537
1.40614
1.40001
1.40001
1.40001
1.40001
1.40001
1.40001
1.40001
1.40001
1.40001
1.40001
1.40001
1.40001
1.40001
1.40001
1.40001
1.40001
1.40001
1.40001
6.48733
1.40013
1.40001
1.40001
1.40001
1.40001
1.40001
1.40001
1.40001
1.40001
1.40001
1.40001
1.40001
1.40001
1.40001
1.40001
1.40001
1.40001
1.40001
1.40001
6.48407
1.40014
1.40001
1.40001
1.40001
1.40001
1.40001
1.40001
1.40001
1.40001
1.40001
1.40001
1.40001
1.40001
1.40001
1.40001
1.40001
1.40001
1.40001
1.40001
7.90214
1.40611
1.40001
1.40001
1.40001
1.40001
1.40001
1.40001
1.40001
1.40001
1.40001
1.40001
1.40001
1.40001
1.40001
1.40001
1.40001
1.40001
1.40001
1.40001
8.69078
1.85097
1.40001
1.40001
1.40001
1.40001
1.40001
1.40001
1.40001
1.40001
1.40001
1.40001
1.40001
1.40001
1.40001
1.40001
1.40001
1.40001
1.40001
1.40001
9.38405
2.62264
1.40001
1.40001
1.40001
1.40001
1.40001
1.40001
1.40001
1.40001
1.40001
1.40001
1.40001
1.40001
1.40001
1.40001
1.40001
1.40001
1.40001
1.40001
9.60799
3.61601
1.40001
1.40001
1.40001
1.40001
1.40001
1.40001
1.40001
1.40001
1.40001
1.40001
1.40001
1.40001
1.40001
1.40001
1.40001
1.40001
1.40001
1.40001
9.84725
4.52002
1.40001
1.40001
1.40001
1.40001
1.40001
1.40001
1.40001
1.40001
1.40001
1.40001
1.40001
1.40001
1.40001
1.40001
1.40001
1.40001
1.40001
1.40001
10.2606
5.49209
1.40027
1.40001
1.40001
1.40001
1.40001
1.40001
1.40001
1.40001
1.40001
1.40001
1.40001
1.40001
1.40001
1.40001
1.40001
1.40001
1.40001
1.40001
10.4977
6.54144
1.62992
1.40001
1.40001
1.40001
1.40001
1.40001
1.40001
1.40001
1.40001
1.40001
1.40001
1.40001
1.40001
1.40001
1.40001
1.40001
1.40001
1.40001
10.4327
7.46331
2.21649
1.40001
1.40001
1.40001
1.40001
1.40001
1.40001
1.40001
1.40001
1.40001
1.40001
1.40001
1.40001
1.40001
1.40001
1.40001
1.40001
1.40001
10.3343
8.38439
3.1561
1.40001
1.40001
1.40001
1.40001
1.40001
1.40001
1.40001
1.40001
1.40001
1.40001
1.40001
1.40001
1.40001
1.40001
1.40001
1.40001
1.40001
10.0312
8.82799
4.89584
1.38236
1.40001
1.40001
1.40001
1.40001
1.40001
1.40001
1.40001
1.40001
1.40001
1.40001
1.40001
1.40001
1.40001
1.40001
1.40001
1.40001
9.61633
9.29643
6.85007
1.66829
1.40001
1.40001
1.40001
1.40001
1.40001
1.40001
1.40001
1.40001
1.40001
1.40001
1.40001
1.40001
1.40001
1.40001
1.40001
1.40001
8.96396
9.2644
8.51778
2.89216
1.40001
1.40001
1.40001
1.40001
1.40001
1.40001
1.40001
1.40001
1.40001
1.40001
1.40001
1.40001
1.40001
1.40001
1.40001
1.40001
8.80548
9.22714
9.09587
4.88069
1.38482
1.40001
1.40001
1.40001
1.40001
1.40001
1.40001
1.40001
1.40001
1.40001
1.40001
1.40001
1.40001
1.40001
1.40001
1.40001
8.85065
9.33646
9.43042
6.83477
1.88644
1.40001
1.40001
1.40001
1.40001
1.40001
1.40001
1.40001
1.40001
1.40001
1.40001
1.40001
1.40001
1.40001
1.40001
1.40001
9.0148
9.47542
9.53227
8.79359
3.79765
1.36419
1.40053
1.4
1.40001
1.40001
1.40001
1.40001
1.40001
1.40001
1.40001
1.40001
1.40001
1.40001
1.40001
1.40001
9.23209
9.47509
9.4958
8.92603
6.62677
2.09655
1.39022
1.40017
1.4
1.40001
1.40001
1.40001
1.40001
1.40001
1.40001
1.40001
1.40001
1.40001
1.40001
1.40001
9.40223
9.48557
9.37585
9.10041
8.77036
4.73215
1.47202
1.39872
1.40001
1.40001
1.40001
1.40001
1.40001
1.40001
1.40001
1.40001
1.40001
1.40001
1.40001
1.40001
9.60456
9.54849
9.43208
9.33716
9.6157
7.96785
3.57074
1.41442
1.40001
1.40001
1.40001
1.40001
1.40001
1.40001
1.40001
1.40001
1.40001
1.40001
1.40001
1.40001
9.68379
9.61144
9.56227
9.5958
9.71225
9.45643
8.33855
3.11301
0.927671
1.40001
1.40001
1.40001
1.40001
1.40001
1.40001
1.40001
1.40001
1.40001
1.40001
1.40001
3.23449
5.08083
6.81587
7.93851
8.58789
8.94665
9.11392
8.66055
6.31221
4.46133
3.30786
2.1972
1.51804
1.38292
1.3902
1.39484
1.39882
1.39997
1.40003
1.40002
0.427471
1.19441
2.77559
4.47533
5.77325
6.666
7.4999
8.17835
7.97937
7.34365
6.73576
5.98815
4.72228
3.24526
1.99377
1.44099
1.38522
1.39297
1.39629
1.39923
0.0488212
0.226441
0.736631
1.70669
2.98357
4.00541
4.87403
5.81302
6.62431
6.69501
6.56142
6.57757
6.52749
6.30453
5.60506
4.27515
2.91697
1.86047
1.42465
1.39009
0.0111479
0.0414434
0.12286
0.524087
1.25245
2.08171
2.85355
3.65145
4.45263
4.9435
5.2396
5.55837
5.85578
6.10111
6.226
6.1206
5.81752
5.07321
3.87833
2.63012
0.0175754
0.0401632
0.0925906
0.13411
0.35245
0.950927
1.54663
2.1444
2.77893
3.29347
3.66666
4.02222
4.39255
4.80327
5.25687
5.52949
5.66977
5.7194
5.59192
5.42492
0.038722
0.0530761
0.0837732
0.105267
0.200956
0.374435
0.695527
1.0698
1.53312
1.9583
2.31802
2.64227
2.96697
3.31023
3.75104
4.14793
4.51598
4.85079
5.07204
5.25816
0.0489572
0.0548884
0.082623
0.132585
0.214985
0.280513
0.45158
0.660578
0.9302
1.26015
1.53655
1.80772
2.06902
2.32441
2.62971
2.94911
3.25049
3.57499
3.88355
4.15842
0.0473215
0.0494057
0.0719089
0.129633
0.203135
0.265447
0.375734
0.534584
0.723653
0.948408
1.13026
1.31392
1.4901
1.65746
1.83539
2.0502
2.29162
2.53492
2.91517
2.90572
0.0414259
0.0488317
0.0582424
0.0974762
0.159401
0.217214
0.279895
0.389218
0.516312
0.65285
0.781542
0.904067
1.03019
1.14906
1.27852
1.45896
1.6779
1.87686
2.17262
2.10617
0.036621
0.0488279
0.0579439
0.0707291
0.109265
0.156
0.178727
0.232605
0.304342
0.375522
0.481004
0.595515
0.730229
0.843877
0.971094
1.11207
1.25623
1.38183
1.60559
1.56036
0.0388965
0.0525966
0.0614487
0.0673643
0.0844042
0.122062
0.1334
0.160907
0.222637
0.311366
0.405822
0.487189
0.593093
0.673142
0.757387
0.840497
0.921423
0.999806
1.12052
1.32251
0.0457477
0.0576385
0.0619968
0.0646897
0.0829466
0.11145
0.126683
0.160757
0.230572
0.299704
0.361393
0.409594
0.467093
0.519267
0.558348
0.60152
0.642725
0.71754
0.811236
1.02379
0.0582092
0.0608699
0.0600182
0.0626414
0.0822409
0.109725
0.130934
0.162918
0.218363
0.264413
0.28811
0.310525
0.322482
0.347857
0.37065
0.40879
0.465003
0.556218
0.637032
0.782573
0.0758486
0.0672948
0.0568372
0.0610611
0.0778019
0.103331
0.12493
0.146943
0.172976
0.203919
0.194004
0.200083
0.211111
0.24441
0.287901
0.34114
0.399949
0.45905
0.508644
0.583508
0.0972209
0.0838339
0.0622426
0.0568657
0.0654218
0.0850701
0.0998198
0.109423
0.118752
0.133686
0.141689
0.158729
0.194252
0.236774
0.272761
0.309157
0.341397
0.371052
0.385141
0.410424
0.102379
0.100797
0.088301
0.0614757
0.0562588
0.0630258
0.0734746
0.084662
0.0964378
0.112447
0.137683
0.162595
0.194018
0.22161
0.241178
0.261904
0.260981
0.263572
0.26337
0.286694
0.108996
0.114931
0.108978
0.0836523
0.0589306
0.0607619
0.0667279
0.0835465
0.0978596
0.114999
0.140911
0.160235
0.177282
0.187569
0.192479
0.197268
0.194082
0.195006
0.206244
0.244053
0.130061
0.129275
0.120597
0.0985364
0.0704115
0.0626563
0.068464
0.0853144
0.0986361
0.110943
0.128107
0.127105
0.127686
0.128082
0.129044
0.131864
0.139744
0.153349
0.169061
0.18962
0.164719
0.154072
0.173871
0.157186
0.125116
0.12366
0.153747
0.194092
0.196023
0.206883
0.234968
0.264916
0.288502
0.280075
0.253152
0.23094
0.22097
0.22178
0.235224
0.254173
0.273749
0.368964
0.470876
0.506361
0.4954
0.504034
0.513589
0.557139
0.561275
0.570078
0.596971
0.622797
0.657184
0.671672
0.66245
0.668857
0.683106
0.682968
0.72074
0.729246
0.772753
0.876327
0.969352
1.13517
1.17776
1.20212
1.17111
1.1694
1.2071
1.27358
1.3092
1.31275
1.3005
1.28949
1.29867
1.32287
1.3461
1.35039
1.341
1.33086
0.400367
0.564992
0.753545
0.943286
1.08397
1.16883
1.17178
1.16993
1.20531
1.26871
1.31343
1.32278
1.31552
1.28983
1.28581
1.29845
1.32613
1.34324
1.34406
1.34171
0.192466
0.221434
0.330526
0.462388
0.706504
0.962035
1.06752
1.1657
1.22109
1.25532
1.29125
1.30341
1.30876
1.30579
1.29447
1.29183
1.30853
1.33137
1.33918
1.34439
0.269341
0.302261
0.3112
0.325686
0.35085
0.454289
0.745512
1.0321
1.14123
1.21355
1.27393
1.2854
1.30359
1.3233
1.31633
1.30266
1.30616
1.31889
1.32919
1.34081
0.33485
0.367051
0.384827
0.394888
0.410598
0.415856
0.447316
0.602476
0.88209
1.09763
1.2073
1.26009
1.30197
1.33935
1.33942
1.32543
1.31209
1.31274
1.32127
1.335
0.423861
0.461085
0.46654
0.452126
0.449006
0.461141
0.485505
0.478334
0.523774
0.689628
0.956561
1.15135
1.27642
1.33424
1.3505
1.34683
1.32287
1.3043
1.30884
1.33088
0.552048
0.579874
0.547328
0.493416
0.492695
0.511577
0.533681
0.540229
0.535399
0.523733
0.616629
0.89329
1.12672
1.31099
1.35074
1.34556
1.32694
1.30379
1.31253
1.33456
0.733888
0.713659
0.663805
0.580509
0.552974
0.561713
0.588725
0.591775
0.578281
0.559158
0.542007
0.609233
0.85985
1.13847
1.30508
1.33813
1.3244
1.3098
1.33113
1.34181
0.946788
0.87833
0.789087
0.6738
0.62538
0.629127
0.641995
0.642523
0.632013
0.609354
0.578689
0.56652
0.613345
0.854128
1.12493
1.30719
1.29726
1.30919
1.34681
1.34372
1.19003
1.07907
0.9675
0.815752
0.717026
0.690987
0.680817
0.688954
0.683152
0.66346
0.633051
0.601609
0.594081
0.631264
0.843743
1.15151
1.23558
1.31045
1.35773
1.33913
1.72562
1.31968
1.16493
1.04691
0.904329
0.775995
0.759658
0.776094
0.769107
0.750555
0.718372
0.68244
0.652372
0.6313
0.655885
0.789095
1.04464
1.24498
1.30859
1.32624
2.85847
2.04694
1.54475
1.39645
1.28739
1.07474
0.92606
0.887387
0.859716
0.816122
0.787844
0.772074
0.748827
0.720395
0.67064
0.674264
0.731424
0.888715
1.09163
1.26827
3.48949
3.02846
2.36764
1.84088
1.57441
1.36222
1.13976
0.997474
0.976395
0.928881
0.905297
0.889638
0.866018
0.827539
0.77144
0.725169
0.731795
0.7456
0.800074
1.03979
3.2994
3.2704
3.1235
2.68167
2.13636
1.79764
1.54475
1.30894
1.2313
1.1502
1.06888
0.982111
0.924191
0.883341
0.848519
0.807909
0.792848
0.778769
0.765689
0.815559
2.34605
2.99303
3.10123
3.06024
2.85844
2.4816
2.08283
1.73763
1.50272
1.3287
1.218
1.10563
1.00892
0.99854
0.98509
0.943672
0.906034
0.87019
0.807031
0.807894
1.552
2.00758
2.58239
2.94913
2.94589
2.89019
2.69628
2.35956
1.99525
1.70688
1.52225
1.3848
1.24948
1.18671
1.12803
1.04498
0.971072
0.92018
0.880863
0.842743
1.40637
1.46122
1.68749
2.16443
2.60506
2.82082
2.81137
2.7489
2.55762
2.27253
1.95008
1.71197
1.49949
1.34524
1.25024
1.15513
1.07414
1.03439
1.02548
0.978302
1.40014
1.40154
1.41466
1.51151
1.7755
2.19894
2.54325
2.70271
2.69345
2.63936
2.46648
2.20742
1.94401
1.68651
1.52148
1.41445
1.30767
1.23072
1.1665
1.06407
1.40001
1.40002
1.40021
1.40363
1.4262
1.53996
1.80659
2.1781
2.46926
2.59511
2.58641
2.53452
2.40389
2.17271
1.91782
1.71628
1.54458
1.39508
1.28877
1.16565
1.40001
1.40001
1.40001
1.40004
1.40045
1.4054
1.43495
1.55118
1.79785
2.1286
2.38021
2.49873
2.49312
2.45443
2.34126
2.14669
1.93399
1.72146
1.57029
1.39645
1.40001
1.40001
1.40001
1.40001
1.40001
1.40007
1.40071
1.40653
1.43694
1.54706
1.76913
2.06358
2.29152
2.4105
2.4065
2.37885
2.29749
2.13708
1.95098
1.67076
1.40001
1.40001
1.40001
1.40001
1.40001
1.40001
1.40001
1.40009
1.40082
1.4066
1.43578
1.53168
1.72507
1.99014
2.19959
2.33051
2.32789
2.31045
2.25874
2.04501
1.40001
1.40001
1.40001
1.40001
1.40001
1.40001
1.40001
1.40001
1.40001
1.40009
1.40083
1.4059
1.43028
1.5125
1.67603
1.91898
2.10573
2.24856
2.25718
2.22376
1.40001
1.40001
1.40001
1.40001
1.40001
1.40001
1.40001
1.40001
1.40001
1.40001
1.40001
1.40008
1.4007
1.40485
1.42467
1.48862
1.63023
1.83743
2.01877
2.16664
1.40001
1.40001
1.40001
1.40001
1.40001
1.40001
1.40001
1.40001
1.40001
1.40001
1.40001
1.40001
1.40001
1.40007
1.40057
1.40356
1.41975
1.47145
1.58988
1.9419
2.26553
3.43002
3.5935
2.90519
1.83072
1.4513
1.40261
1.40007
1.40001
1.40001
1.40001
1.40001
1.40001
1.40001
1.40001
3.25726
3.9194
3.51837
2.15217
1.46724
1.40114
1.40001
1.4
1.40001
1.40001
1.40001
1.40001
1.40001
1.40001
1.40001
4.07678
3.99269
2.765
1.61194
1.4072
1.40007
1.40001
1.40001
1.40001
1.40001
1.40001
1.40001
1.40001
1.40001
1.40001
4.5208
3.56347
1.90724
1.4268
1.40026
1.40001
1.40001
1.40001
1.40001
1.40001
1.40001
1.40001
1.40001
1.40001
1.40001
4.62654
2.35573
1.46632
1.40073
1.40001
1.40001
1.40001
1.40001
1.40001
1.40001
1.40001
1.40001
1.40001
1.40001
1.40001
2.88963
1.50384
1.40071
1.4
1.4
1.4
1.40001
1.40001
1.40001
1.40001
1.40001
1.40001
1.40001
1.40001
1.40001
1.54185
1.4008
1.4
1.4
1.40001
1.40001
1.40001
1.40001
1.40001
1.40001
1.40001
1.40001
1.40001
1.40001
1.40001
1.39738
1.39981
1.4
1.40001
1.40001
1.40001
1.40001
1.40001
1.40001
1.40001
1.40001
1.40001
1.40001
1.40001
1.40001
1.39996
1.40001
1.40001
1.40001
1.40001
1.40001
1.40001
1.40001
1.40001
1.40001
1.40001
1.40001
1.40001
1.40001
1.40001
1.40001
1.40001
1.40001
1.40001
1.40001
1.40001
1.40001
1.40001
1.40001
1.40001
1.40001
1.40001
1.40001
1.40001
1.40001
1.40001
1.40001
1.40001
1.40001
1.40001
1.40001
1.40001
1.40001
1.40001
1.40001
1.40001
1.40001
1.40001
1.40001
1.40001
1.40001
1.40001
1.40001
1.40001
1.40001
1.40001
1.40001
1.40001
1.40001
1.40001
1.40001
1.40001
1.40001
1.40001
1.40001
1.40001
1.40001
1.40001
1.40001
1.40001
1.40001
1.40001
1.40001
1.40001
1.40001
1.40001
1.40001
1.40001
1.40001
1.40001
1.40001
1.40001
1.40001
1.40001
1.40001
1.40001
1.40001
1.40001
1.40001
1.40001
1.40001
1.40001
1.40001
1.40001
1.40001
1.40001
1.40001
1.40001
1.40001
1.40001
1.40001
1.40001
1.40001
1.40001
1.40001
1.40001
1.40001
1.40001
1.40001
1.40001
1.40001
1.40001
1.40001
1.40001
1.40001
1.40001
1.40001
1.40001
1.40001
1.40001
1.40001
1.40001
1.40001
1.40001
1.40001
1.40001
1.40001
1.40001
1.40001
1.40001
1.40001
1.40001
1.40001
1.40001
1.40001
1.40001
1.40001
1.40001
1.40001
1.40001
1.40001
1.40001
1.40001
1.40001
1.40001
1.40001
1.40001
1.40001
1.40001
1.40001
1.40001
1.40001
1.40001
1.40001
1.40001
1.40001
1.40001
1.40001
1.40001
1.40001
1.40001
1.40001
1.40001
1.40001
1.40001
1.40001
1.40001
1.40001
1.40001
1.40001
1.40001
1.40001
1.40001
1.40001
1.40001
1.40001
1.40001
1.40001
1.40001
1.40001
1.40001
1.40001
1.40001
1.40001
1.40001
1.40001
1.40001
1.40001
1.40001
1.40001
1.40001
1.40001
1.40001
1.40001
1.40001
1.40001
1.40001
1.40001
1.40001
1.40001
1.40001
1.40001
1.40001
1.40001
1.40001
1.40001
1.40001
1.40001
1.40001
1.40001
1.40001
1.40001
1.40001
1.40001
1.40001
1.40001
1.40001
1.40001
1.40001
1.40001
1.40001
1.40001
1.40001
1.40001
1.40001
1.40001
1.40001
1.40001
1.40001
1.40001
1.40001
1.40001
1.40001
1.40001
1.40001
1.40001
1.40001
1.40001
1.40001
1.40001
1.40001
1.40001
1.40001
1.40001
1.40001
1.40001
1.40001
1.40001
1.40001
1.40001
1.40001
1.40001
1.40001
1.40001
1.40001
1.40001
1.40001
1.40001
1.40001
1.40001
1.40001
1.40001
1.40001
1.40001
1.40001
1.40001
1.40001
1.40001
1.40001
1.40001
1.40001
1.40001
1.40001
1.40001
1.40001
1.40001
1.40001
1.40001
1.40001
1.40001
1.40001
1.40001
1.40001
1.40001
1.40001
1.40001
1.40001
1.40001
1.40001
1.40001
1.40001
1.40001
1.40001
1.40001
1.40001
1.40001
1.40001
1.40001
1.40001
1.40001
1.40001
1.40001
1.40001
1.40001
1.40001
1.40001
1.40001
1.40001
1.40001
1.40001
1.40001
1.40001
1.40001
1.40001
1.40001
1.40001
1.40001
1.40001
1.40001
1.40001
1.40001
1.40001
1.40001
1.40001
1.40001
1.40001
1.40001
1.40001
1.40001
1.40001
1.40001
1.40001
1.40001
1.40001
1.40001
1.40001
1.40001
1.40001
1.40001
1.40001
1.40001
1.40001
1.40001
1.40001
1.40001
1.40001
1.40001
1.40001
1.40001
1.40001
1.40001
1.40001
1.40001
1.40001
1.40001
1.40001
1.40001
1.40001
1.40001
1.40001
1.40001
1.40001
1.40001
1.40001
1.40001
1.40001
1.40001
1.40001
1.40001
1.40001
1.40001
1.40001
1.40001
1.40001
1.40001
1.40001
1.40001
1.40001
1.40001
1.40001
1.40001
1.40001
1.40001
1.40001
1.40001
1.40001
1.40001
1.40001
1.40001
1.40001
1.40001
1.40001
1.40001
1.40001
1.40001
1.40001
1.40001
1.40001
1.40001
1.40001
1.40001
1.40001
1.40001
1.40001
1.40001
1.40001
1.40001
1.40001
1.40001
1.40001
1.40001
1.40001
1.40001
1.40001
1.40001
1.40001
1.40001
1.40001
1.40001
1.40001
1.40001
1.40001
1.40001
1.40001
1.40001
1.40001
1.40001
1.40001
1.40001
1.40001
1.40001
1.40001
1.40001
1.40001
1.40001
1.40001
1.40001
1.40001
1.40001
1.40001
1.40001
1.40001
1.40001
1.40001
1.40001
1.40001
1.40001
1.40001
1.40001
1.40001
1.40001
1.40001
1.40001
1.40001
1.40001
1.40001
1.40001
1.40001
1.40001
1.40001
1.40001
1.40001
1.40001
1.40001
1.40001
1.40001
1.40001
1.40001
1.40001
1.40001
1.40001
1.40001
1.40001
1.40001
1.40001
1.40001
1.40001
1.40001
1.40001
1.40001
1.40001
1.40001
1.40001
1.40001
1.40001
1.40001
1.40001
1.40001
1.40001
1.40001
1.40001
1.40001
1.40001
1.40001
1.40001
1.40001
1.40001
1.40001
1.40001
1.40001
1.40001
1.40001
1.40001
1.40001
1.40001
1.40001
1.40001
1.40001
1.40001
1.40001
1.40001
1.40001
1.40001
1.40001
1.40001
1.40001
1.40001
1.40001
1.40001
1.40001
1.40001
1.40001
1.40001
1.40001
1.40001
1.40001
1.40001
1.40001
1.40001
1.40001
1.40001
1.40001
1.40001
1.40001
1.40001
1.40001
1.40001
1.40001
1.40001
1.40001
1.40001
1.40001
1.40001
1.40001
1.40001
1.40001
1.40001
1.40001
1.40001
1.40001
1.40001
1.40001
1.40001
1.40001
1.40001
1.40001
1.40001
1.40001
1.40001
1.40001
1.40001
1.40001
1.40001
1.40001
1.40001
1.40001
1.40001
1.40001
1.40001
1.40001
1.40001
1.40001
1.40001
1.40001
1.40001
1.40001
1.40001
1.40001
1.40001
1.40001
1.40001
1.40001
1.40001
1.40001
1.40001
1.40001
1.40001
1.40001
1.40001
1.40001
1.40001
1.40001
1.40001
1.40001
1.40001
1.40001
1.40001
1.40001
1.40001
1.40001
1.40001
1.40001
1.40001
1.40001
1.40001
1.40001
1.40001
1.40001
1.40001
1.40001
1.40001
1.40001
1.40001
1.40001
1.40001
1.40001
1.40001
1.40001
1.40001
1.40001
1.40001
1.40001
1.40001
1.40001
1.40001
1.40001
1.40001
1.40001
1.40001
1.40001
1.40001
1.40001
1.40001
1.40001
1.40001
1.40001
1.40001
1.40001
1.40001
1.40001
1.40001
1.40001
1.40001
1.40001
1.40001
1.40001
1.40001
1.40001
1.40001
1.40001
1.40001
1.40001
1.40001
1.40001
1.40001
1.40001
1.40001
1.40001
1.40001
1.40001
1.40001
1.40001
1.40001
1.40001
1.40001
1.40001
1.40001
1.40001
1.40001
1.40001
1.40001
1.40001
1.40001
1.40001
1.40001
1.40001
1.40001
1.40001
1.40001
1.40001
1.40001
1.40001
1.40001
1.40001
1.40001
1.40001
1.40001
1.40001
1.40001
1.40001
1.40001
1.40001
1.40001
1.40001
1.40001
1.40001
1.40001
1.40001
1.40001
1.40001
1.40001
1.40001
1.40001
1.40001
1.40001
1.40001
1.40001
1.40001
1.40001
1.40001
1.40001
1.40001
1.40001
1.40001
1.40001
1.40001
1.40001
1.40001
1.40001
1.40001
1.40001
1.40001
1.40001
1.40001
1.40001
1.40001
1.40001
1.40001
1.40001
1.40001
1.40001
1.40001
1.40001
1.40001
1.40001
1.40001
1.40001
1.40001
1.40001
1.40001
1.40001
1.40001
1.40001
1.40001
1.40001
1.40001
1.40001
1.40001
1.40001
1.40001
1.40001
1.40001
1.40001
1.40001
1.40001
1.40001
1.40001
1.40001
1.40001
1.40001
1.40001
1.40001
1.40001
1.40001
1.40001
1.40001
1.40001
1.40001
1.40001
1.40001
1.40001
1.40001
1.40001
1.40001
1.40001
1.40001
1.40001
1.40001
1.40001
1.40001
1.40001
1.40001
1.40001
1.40001
1.40001
1.40001
1.40001
1.40001
1.40001
1.40001
1.40001
1.40001
1.40001
1.40001
1.40001
1.40001
1.40001
1.40001
1.40001
1.40001
1.40001
1.40001
1.40001
1.40001
1.40001
1.40001
1.40001
1.40001
1.40001
1.40001
1.40001
1.40001
1.40001
1.40001
1.40001
1.40001
1.40001
1.40001
1.40001
1.40001
1.40001
1.40001
1.40001
1.40001
1.40001
1.40001
1.40001
1.40001
1.40001
1.40001
1.40001
1.40001
1.40001
1.40001
1.40001
1.40001
1.40001
1.40001
1.40001
1.40001
1.40001
1.40001
1.40001
1.40001
1.40001
1.40001
1.40001
1.40001
1.40001
1.40001
1.39996
1.40001
1.40001
1.40001
1.40001
1.40001
1.40001
1.40001
1.40001
1.40001
1.40001
1.40001
1.40001
1.40001
1.40001
1.39739
1.39981
1.4
1.4
1.40001
1.40001
1.40001
1.40001
1.40001
1.40001
1.40001
1.40001
1.40001
1.40001
1.40001
1.54147
1.40079
1.4
1.4
1.40001
1.40001
1.40001
1.40001
1.40001
1.40001
1.40001
1.40001
1.40001
1.40001
1.40001
2.88796
1.50364
1.40071
1.4
1.4
1.4
1.40001
1.40001
1.40001
1.40001
1.40001
1.40001
1.40001
1.40001
1.40001
4.62604
2.35573
1.4663
1.40073
1.40001
1.4
1.40001
1.40001
1.40001
1.40001
1.40001
1.40001
1.40001
1.40001
1.40001
4.52113
3.5642
1.90773
1.42686
1.40027
1.40001
1.40001
1.40001
1.40001
1.40001
1.40001
1.40001
1.40001
1.40001
1.40001
4.076
3.99187
2.76458
1.61194
1.40719
1.40007
1.40001
1.40001
1.40001
1.40001
1.40001
1.40001
1.40001
1.40001
1.40001
3.25686
3.91831
3.5172
2.15196
1.46725
1.40114
1.40001
1.4
1.40001
1.40001
1.40001
1.40001
1.40001
1.40001
1.40001
2.2616
3.42906
3.59357
2.90482
1.83058
1.45128
1.40261
1.40007
1.40001
1.40001
1.40001
1.40001
1.40001
1.40001
1.40001
1.73847
2.85953
3.48632
3.29999
2.34766
1.55228
1.40637
1.40013
1.40001
1.40001
1.40001
1.40001
1.40001
1.40001
1.40001
1.2985
2.04871
3.03581
3.2704
2.99197
2.00744
1.46122
1.40154
1.40002
1.40001
1.40001
1.40001
1.40001
1.40001
1.40001
1.15694
1.52841
2.37114
3.12453
3.10122
2.58218
1.68729
1.41464
1.40021
1.40001
1.40001
1.40001
1.40001
1.40001
1.40001
1.06244
1.39136
1.82025
2.68015
3.06074
2.94902
2.16384
1.51137
1.40363
1.40004
1.40001
1.40001
1.40001
1.40001
1.40001
0.928083
1.29842
1.57361
2.14083
2.8535
2.94571
2.6044
1.77518
1.4262
1.40045
1.40001
1.40001
1.40001
1.40001
1.40001
0.779594
1.09081
1.3631
1.79423
2.48229
2.88986
2.82076
2.19887
1.54002
1.40541
1.40007
1.40001
1.40001
1.40001
1.40001
0.756372
0.941609
1.13531
1.51817
2.09323
2.69477
2.81149
2.54371
1.80681
1.43497
1.40071
1.40001
1.40001
1.40001
1.40001
0.768154
0.892084
1.02752
1.29898
1.72279
2.36421
2.74901
2.70287
2.17838
1.55126
1.40653
1.40009
1.40001
1.40001
1.40001
0.757491
0.848468
0.994898
1.24402
1.48744
1.99609
2.55765
2.69328
2.46916
1.79788
1.43695
1.40082
1.40001
1.40001
1.40001
0.732547
0.799535
0.932608
1.16534
1.33056
1.69571
2.26904
2.63855
2.5947
2.12849
1.54709
1.4066
1.40009
1.40001
1.40001
0.710251
0.762499
0.905156
1.07626
1.22164
1.51076
1.94692
2.46621
2.58628
2.38021
1.76916
1.43578
1.40083
1.40001
1.40001
0.688042
0.761662
0.880803
0.981984
1.10791
1.38282
1.71272
2.20773
2.53473
2.4991
2.06386
1.53171
1.4059
1.40008
1.40001
0.659905
0.747439
0.852515
0.916685
1.01722
1.26113
1.50397
1.94482
2.40415
2.49359
2.29194
1.72522
1.43029
1.4007
1.40001
0.649962
0.719104
0.815776
0.877459
1.00803
1.19674
1.34527
1.6868
2.17386
2.45511
2.41112
1.99044
1.51254
1.40485
1.40007
0.666861
0.673027
0.768446
0.844021
0.991553
1.12947
1.24493
1.52298
1.91947
2.34237
2.40708
2.20003
1.67615
1.42467
1.40057
0.793985
0.681398
0.733267
0.804832
0.945195
1.03962
1.14914
1.41808
1.7169
2.14752
2.3793
2.33083
1.91913
1.48867
1.40356
1.05256
0.743652
0.743111
0.787718
0.905649
0.96573
1.07304
1.31187
1.54398
1.93462
2.29781
2.32814
2.1059
1.63026
1.41975
1.2422
0.901612
0.756299
0.775808
0.869314
0.917573
1.03317
1.23271
1.39367
1.72191
2.1372
2.3106
2.24872
1.83748
1.47145
1.30564
1.09754
0.806134
0.766163
0.807677
0.879811
1.02368
1.1664
1.28651
1.56988
1.95099
2.25885
2.25729
2.01878
1.58984
1.32539
1.2674
1.03908
0.816123
0.808912
0.841751
0.97619
1.06318
1.16378
1.39567
1.67075
2.04509
2.22378
2.16661
1.9418
1.19252
1.07357
0.970951
0.828277
0.71745
0.686083
0.677536
0.684704
0.675001
0.654455
0.634866
0.605417
0.597799
0.634865
0.851996
1.16675
1.22827
1.30405
1.35261
1.33836
0.946181
0.876812
0.793332
0.674818
0.621447
0.625473
0.636514
0.63659
0.628091
0.608121
0.583869
0.570051
0.617962
0.858522
1.17776
1.31287
1.27834
1.29736
1.34142
1.34225
0.734855
0.714279
0.664413
0.580876
0.552045
0.55918
0.587994
0.592664
0.583535
0.568807
0.551595
0.617415
0.870386
1.16874
1.28627
1.32357
1.30809
1.29968
1.32639
1.34052
0.555785
0.579497
0.544396
0.489398
0.489726
0.505171
0.529623
0.540732
0.544673
0.53277
0.61838
0.897808
1.15047
1.31686
1.31679
1.3211
1.31686
1.30398
1.31509
1.33895
0.424077
0.462175
0.463689
0.447038
0.442255
0.454654
0.482963