/*--------------------------------*- C++ -*----------------------------------*\
  =========                 |
  \\      /  F ield         | OpenFOAM: The Open Source CFD Toolbox
   \\    /   O peration     | Website:  https://openfoam.org
    \\  /    A nd           | Version:  7
     \\/     M anipulation  |
\*---------------------------------------------------------------------------*/
FoamFile
{
    version     2.0;
    format      ascii;
    class       volScalarField;
    location    "5.2";
    object      T;
}
// * * * * * * * * * * * * * * * * * * * * * * * * * * * * * * * * * * * * * //

dimensions      [0 0 0 1 0 0 0];

internalField   nonuniform List<scalar> 
3700
(
100.722
100.885
100.926
100.984
100.991
100.979
100.928
100.911
100.963
101.078
101.107
101.095
101.084
101.094
101.125
101.131
101.126
101.117
101.108
101.09
100.385
100.394
100.422
100.495
100.59
100.548
100.363
100.307
100.43
100.586
100.606
100.533
100.467
100.488
100.548
100.57
100.576
100.58
100.581
100.552
100.358
100.265
100.177
100.061
99.9201
99.8889
99.9098
99.983
100.02
100.037
100.046
100.03
100.012
99.9957
99.9859
99.9902
100.007
100.027
100.043
100.048
100.247
100.204
100.137
100.011
99.8677
99.8534
99.8797
99.9474
99.9927
100.039
100.073
100.078
100.084
100.082
100.067
100.048
100.023
100.023
100.046
100.087
100.084
100.079
100.044
99.9035
99.8368
99.8366
99.8693
99.9244
99.957
100.003
100.054
100.081
100.105
100.122
100.124
100.126
100.111
100.091
100.075
100.096
100.008
99.988
99.9184
99.8464
99.8435
99.8772
99.903
99.9287
99.953
99.9966
100.031
100.059
100.097
100.128
100.146
100.16
100.172
100.178
100.175
100.181
99.9331
99.908
99.8623
99.8737
99.929
99.991
100.025
100.043
100.046
100.069
100.054
100.066
100.089
100.115
100.141
100.171
100.201
100.226
100.238
100.265
99.8365
99.8526
99.8686
99.9104
99.9988
100.071
100.102
100.128
100.157
100.17
100.17
100.171
100.17
100.173
100.173
100.186
100.217
100.259
100.284
100.328
99.7332
99.8373
99.9102
99.9634
100.059
100.129
100.133
100.16
100.21
100.232
100.249
100.255
100.274
100.282
100.284
100.285
100.287
100.306
100.332
100.387
99.6606
99.8355
99.959
100.027
100.104
100.156
100.153
100.171
100.221
100.262
100.286
100.303
100.334
100.345
100.358
100.367
100.376
100.388
100.409
100.448
99.6306
99.8517
99.985
100.042
100.113
100.159
100.157
100.203
100.255
100.29
100.313
100.336
100.368
100.387
100.41
100.431
100.449
100.464
100.501
100.493
99.6544
99.8925
99.9734
100.062
100.152
100.196
100.23
100.294
100.341
100.389
100.408
100.424
100.435
100.446
100.462
100.487
100.517
100.539
100.579
100.57
99.7865
99.8845
99.9597
100.105
100.191
100.239
100.306
100.374
100.426
100.47
100.486
100.504
100.518
100.532
100.549
100.57
100.594
100.616
100.653
100.654
99.8813
99.8869
99.9686
100.114
100.194
100.258
100.356
100.423
100.482
100.53
100.549
100.568
100.586
100.608
100.637
100.666
100.689
100.709
100.723
100.733
99.9165
99.951
99.9725
100.048
100.157
100.324
100.451
100.518
100.583
100.614
100.63
100.645
100.663
100.689
100.725
100.753
100.773
100.783
100.779
100.774
99.7937
99.9454
100.017
100.115
100.34
100.549
100.624
100.673
100.711
100.728
100.737
100.749
100.767
100.791
100.813
100.824
100.821
100.814
100.788
100.744
99.369
99.8234
100.08
100.424
100.621
100.699
100.738
100.774
100.8
100.812
100.822
100.835
100.85
100.855
100.855
100.844
100.793
100.678
100.515
100.276
99.5592
100.128
100.481
100.671
100.771
100.809
100.833
100.858
100.876
100.883
100.883
100.883
100.881
100.857
100.771
100.622
100.358
100.1
100.005
99.9978
100.127
100.52
100.739
100.84
100.883
100.899
100.915
100.922
100.919
100.91
100.897
100.842
100.725
100.468
100.147
100.01
99.9967
99.9985
99.9992
99.9998
100.696
100.837
100.914
100.949
100.957
100.95
100.95
100.928
100.848
100.769
100.583
100.239
100.032
99.9959
99.9978
99.9989
99.9998
100
100
100
100.999
100.996
100.993
100.989
100.978
100.949
100.877
100.438
99.8578
100
100
100
100
100
100
100
100
100
100
100
100.998
100.996
100.99
100.98
100.963
100.851
100.471
100.01
100
100
100
100
100
100
100
100
100
100
100
100
100.99
100.992
100.987
100.967
100.93
100.646
100.041
99.9993
100
100
100
100
100
100
100
100
100
100
100
100
100.984
100.99
100.987
100.949
100.806
100.275
99.996
100
100
100
100
100
100
100
100
100
100
100
100
100
100.978
100.988
100.984
100.923
100.562
99.992
100
100
100
100
100
100
100
100
100
100
100
100
100
100
100.974
100.985
100.977
100.822
100.216
100
100
100
100
100
100
100
100
100
100
100
100
100
100
100
100.974
100.981
100.965
100.698
100.003
100
100
100
100
100
100
100
100
100
100
100
100
100
100
100
100.984
100.981
100.929
100.484
99.9998
100
100
100
100
100
100
100
100
100
100
100
100
100
100
100
101.003
100.977
100.831
100.145
100
100
100
100
100
100
100
100
100
100
100
100
100
100
100
100
101.013
100.942
100.689
99.9963
100
100
100
100
100
100
100
100
100
100
100
100
100
100
100
100
101.022
100.907
100.497
100
100
100
100
100
100
100
100
100
100
100
100
100
100
100
100
100
101.027
100.849
100.307
100
100
100
100
100
100
100
100
100
100
100
100
100
100
100
100
100
101.03
100.791
100.11
100
100
100
100
100
100
100
100
100
100
100
100
100
100
100
100
100
101.029
100.726
100
100
100
100
100
100
100
100
100
100
100
100
100
100
100
100
100
100
101.015
100.67
100
100
100
100
100
100
100
100
100
100
100
100
100
100
100
100
100
100
100.994
100.595
100
100
100
100
100
100
100
100
100
100
100
100
100
100
100
100
100
100
100.955
100.436
100
100
100
100
100
100
100
100
100
100
100
100
100
100
100
100
100
100
100.895
100.208
100
100
100
100
100
100
100
100
100
100
100
100
100
100
100
100
100
100
100.857
100.004
100
100
100
100
100
100
100
100
100
100
100
100
100
100
100
100
100
100
100.816
100
100
100
100
100
100
100
100
100
100
100
100
100
100
100
100
100
100
100
100.816
100
100
100
100
100
100
100
100
100
100
100
100
100
100
100
100
100
100
100
100.859
100.004
100
100
100
100
100
100
100
100
100
100
100
100
100
100
100
100
100
100
100.896
100.208
100
100
100
100
100
100
100
100
100
100
100
100
100
100
100
100
100
100
100.954
100.433
100
100
100
100
100
100
100
100
100
100
100
100
100
100
100
100
100
100
100.993
100.593
100
100
100
100
100
100
100
100
100
100
100
100
100
100
100
100
100
100
101.015
100.672
100
100
100
100
100
100
100
100
100
100
100
100
100
100
100
100
100
100
101.029
100.726
100
100
100
100
100
100
100
100
100
100
100
100
100
100
100
100
100
100
101.031
100.792
100.113
100
100
100
100
100
100
100
100
100
100
100
100
100
100
100
100
100
101.027
100.85
100.311
100
100
100
100
100
100
100
100
100
100
100
100
100
100
100
100
100
101.023
100.907
100.496
100
100
100
100
100
100
100
100
100
100
100
100
100
100
100
100
100
101.014
100.941
100.686
99.9963
100
100
100
100
100
100
100
100
100
100
100
100
100
100
100
100
101.003
100.976
100.829
100.145
100
100
100
100
100
100
100
100
100
100
100
100
100
100
100
100
100.985
100.981
100.929
100.482
99.9994
100
100
100
100
100
100
100
100
100
100
100
100
100
100
100
100.973
100.981
100.965
100.701
100.006
100
100
100
100
100
100
100
100
100
100
100
100
100
100
100
100.974
100.984
100.977
100.821
100.217
100
100
100
100
100
100
100
100
100
100
100
100
100
100
100
100.977
100.988
100.983
100.924
100.56
99.9921
100
100
100
100
100
100
100
100
100
100
100
100
100
100
100.984
100.99
100.987
100.949
100.805
100.275
99.996
100
100
100
100
100
100
100
100
100
100
100
100
100
100.99
100.992
100.987
100.967
100.93
100.649
100.043
99.9993
100
100
100
100
100
100
100
100
100
100
100
100
100.998
100.996
100.99
100.979
100.964
100.853
100.472
100.01
100
100
100
100
100
100
100
100
100
100
100
100
100.999
100.997
100.994
100.989
100.979
100.949
100.877
100.438
99.8577
100
100
100
100
100
100
100
100
100
100
100
100.697
100.838
100.914
100.949
100.958
100.951
100.95
100.927
100.848
100.768
100.583
100.24
100.032
99.9959
99.9978
99.9989
99.9998
100
100
100
100.125
100.522
100.74
100.841
100.882
100.899
100.915
100.922
100.919
100.91
100.896
100.842
100.725
100.468
100.146
100.01
99.9967
99.9985
99.9992
99.9998
99.5195
100.111
100.482
100.672
100.774
100.809
100.833
100.857
100.875
100.883
100.883
100.883
100.881
100.857
100.771
100.622
100.358
100.101
100.005
99.9978
99.4266
99.7849
100.077
100.435
100.626
100.701
100.738
100.772
100.798
100.812
100.822
100.835
100.85
100.855
100.854
100.844
100.793
100.679
100.515
100.275
99.6786
99.8045
99.9447
100.133
100.357
100.561
100.628
100.675
100.711
100.729
100.738
100.751
100.768
100.791
100.813
100.824
100.822
100.814
100.788
100.744
99.9489
99.8649
99.9126
100.026
100.152
100.327
100.453
100.523
100.588
100.617
100.632
100.646
100.663
100.689
100.724
100.753
100.773
100.783
100.779
100.774
99.9517
99.8415
99.9326
100.104
100.177
100.235
100.347
100.415
100.477
100.527
100.548
100.567
100.585
100.606
100.636
100.666
100.69
100.71
100.724
100.733
99.9408
99.8402
99.92
100.087
100.173
100.229
100.302
100.37
100.424
100.47
100.486
100.504
100.518
100.532
100.55
100.572
100.595
100.616
100.652
100.653
99.883
99.8947
99.9178
100.018
100.135
100.188
100.231
100.299
100.344
100.393
100.412
100.427
100.437
100.447
100.461
100.486
100.516
100.539
100.578
100.57
99.7875
99.9128
99.9485
100.001
100.097
100.145
100.15
100.208
100.259
100.291
100.311
100.333
100.363
100.384
100.408
100.43
100.449
100.464
100.502
100.493
99.7784
99.9142
99.979
100.022
100.101
100.153
100.142
100.168
100.217
100.256
100.281
100.298
100.332
100.344
100.359
100.369
100.378
100.389
100.411
100.449
99.8008
99.9075
99.9605
100.003
100.093
100.145
100.124
100.151
100.21
100.233
100.25
100.257
100.277
100.285
100.288
100.29
100.292
100.306
100.33
100.386
99.87
99.9063
99.9111
99.9459
100.038
100.097
100.103
100.128
100.166
100.178
100.18
100.18
100.179
100.182
100.18
100.188
100.213
100.255
100.282
100.327
99.9621
99.9328
99.8754
99.8868
99.9556
100.02
100.045
100.057
100.064
100.085
100.065
100.073
100.089
100.113
100.137
100.166
100.198
100.225
100.238
100.267
100.05
100.002
99.8988
99.8403
99.852
99.9065
99.9303
99.941
99.9592
100.001
100.029
100.056
100.092
100.125
100.145
100.16
100.174
100.181
100.179
100.186
100.093
100.077
100.017
99.8765
99.8262
99.8422
99.8767
99.9271
99.9578
100.001
100.045
100.078
100.106
100.124
100.128
100.13
100.12
100.103
100.082
100.092
100.155
100.164
100.123
100.01
99.8589
99.8521
99.8825
99.945
99.985
100.032
100.071
100.08
100.09
100.09
100.076
100.06
100.031
100.019
100.033
100.08
100.236
100.211
100.158
100.065
99.9343
99.8785
99.9099
99.9791
100.014
100.034
100.053
100.037
100.019
100.001
99.9853
99.9838
99.9937
100.014
100.034
100.046
100.293
100.28
100.374
100.331
100.258
100.322
100.561
100.596
100.501
100.45
100.533
100.684
100.734
100.705
100.608
100.479
100.356
100.28
100.292
100.322
100.646
100.763
100.904
100.914
100.9
100.911
100.961
101.011
101.004
101.004
101.064
101.145
101.16
101.154
101.129
101.084
101.036
100.998
100.995
101.022
101.047
101.017
101.003
100.992
100.969
100.945
100.907
100.881
100.877
100.876
100.871
100.864
100.853
100.843
100.837
100.832
100.827
100.823
100.816
100.804
100.568
100.625
100.702
100.73
100.766
100.786
100.789
100.793
100.8
100.805
100.807
100.807
100.807
100.803
100.798
100.792
100.789
100.789
100.789
100.784
100.023
100.055
100.183
100.275
100.402
100.497
100.565
100.626
100.648
100.656
100.673
100.685
100.696
100.704
100.704
100.701
100.702
100.71
100.718
100.723
100.085
100.092
100.089
100.088
100.1
100.187
100.353
100.463
100.497
100.52
100.548
100.567
100.58
100.592
100.595
100.596
100.601
100.612
100.623
100.634
100.132
100.137
100.133
100.126
100.13
100.135
100.164
100.267
100.382
100.435
100.464
100.49
100.51
100.519
100.521
100.522
100.524
100.532
100.541
100.552
100.182
100.185
100.178
100.16
100.156
100.164
100.179
100.178
100.211
100.288
100.373
100.43
100.467
100.483
100.486
100.486
100.483
100.482
100.486
100.496
100.239
100.24
100.216
100.183
100.183
100.193
100.205
100.208
100.203
100.189
100.233
100.34
100.409
100.458
100.467
100.465
100.461
100.456
100.458
100.465
100.306
100.29
100.267
100.234
100.218
100.219
100.228
100.228
100.219
100.203
100.181
100.21
100.312
100.397
100.439
100.447
100.444
100.439
100.444
100.446
100.366
100.346
100.318
100.28
100.256
100.247
100.246
100.243
100.236
100.222
100.197
100.177
100.195
100.291
100.372
100.421
100.42
100.424
100.432
100.431
100.426
100.404
100.374
100.331
100.293
100.269
100.255
100.255
100.25
100.238
100.217
100.189
100.176
100.184
100.27
100.362
100.387
100.41
100.418
100.413
100.525
100.449
100.411
100.382
100.344
100.293
100.275
100.275
100.267
100.255
100.238
100.215
100.191
100.172
100.175
100.224
100.309
100.364
100.374
100.378
100.62
100.542
100.466
100.433
100.411
100.364
100.316
100.291
100.274
100.256
100.244
100.23
100.21
100.188
100.163
100.152
100.167
100.219
100.273
100.319
100.608
100.588
100.538
100.471
100.43
100.394
100.349
100.302
100.286
100.27
100.258
100.243
100.224
100.2
100.175
100.15
100.141
100.13
100.142
100.22
100.488
100.547
100.542
100.516
100.465
100.422
100.385
100.34
100.316
100.292
100.267
100.237
100.211
100.19
100.173
100.151
100.133
100.115
100.1
100.107
100.25
100.377
100.447
100.483
100.473
100.448
100.409
100.365
100.326
100.289
100.262
100.233
100.203
100.191
100.18
100.161
100.14
100.118
100.093
100.073
100.043
100.145
100.254
100.337
100.388
100.415
100.406
100.381
100.343
100.302
100.272
100.246
100.216
100.195
100.174
100.148
100.122
100.101
100.083
100.06
100.002
100.015
100.065
100.155
100.234
100.29
100.329
100.348
100.339
100.317
100.281
100.249
100.214
100.183
100.161
100.136
100.113
100.098
100.09
100.068
100
100
100.003
100.025
100.078
100.149
100.208
100.249
100.279
100.292
100.282
100.26
100.23
100.195
100.168
100.148
100.125
100.106
100.087
100.056
100
100
100
100.001
100.006
100.031
100.081
100.139
100.187
100.217
100.24
100.244
100.237
100.216
100.186
100.158
100.13
100.102
100.079
100.049
100
100
100
100
100
100.001
100.008
100.032
100.078
100.129
100.169
100.192
100.211
100.21
100.201
100.182
100.156
100.126
100.1
100.068
100
100
100
100
100
100
100
100.001
100.008
100.031
100.073
100.118
100.154
100.174
100.186
100.184
100.177
100.161
100.137
100.097
100
100
100
100
100
100
100
100
100
100.001
100.008
100.028
100.065
100.107
100.14
100.159
100.168
100.167
100.162
100.138
100
100
100
100
100
100
100
100
100
100
100
100.001
100.007
100.024
100.057
100.097
100.127
100.146
100.155
100.151
100
100
100
100
100
100
100
100
100
100
100
100
100
100.001
100.006
100.019
100.048
100.084
100.113
100.138
100
100
100
100
100
100
100
100
100
100
100
100
100
100
100
100.001
100.004
100.016
100.04
100.105
100.598
100.653
100.609
100.415
100.142
100.017
100.001
100
100
100
100
100
100
100
100
100.672
100.663
100.517
100.217
100.022
100
100
100
100
100
100
100
100
100
100
100.705
100.636
100.373
100.074
100.002
100
100
100
100
100
100
100
100
100
100
100.719
100.519
100.167
100.009
100
100
100
100
100
100
100
100
100
100
100
100.654
100.287
100.025
100
100
100
100
100
100
100
100
100
100
100
100
100.396
100.039
100
100
100
100
100
100
100
100
100
100
100
100
100
100.042
100
100
100
100
100
100
100
100
100
100
100
100
100
100
99.9995
100
100
100
100
100
100
100
100
100
100
100
100
100
100
100
100
100
100
100
100
100
100
100
100
100
100
100
100
100
100
100
100
100
100
100
100
100
100
100
100
100
100
100
100
100
100
100
100
100
100
100
100
100
100
100
100
100
100
100
100
100
100
100
100
100
100
100
100
100
100
100
100
100
100
100
100
100
100
100
100
100
100
100
100
100
100
100
100
100
100
100
100
100
100
100
100
100
100
100
100
100
100
100
100
100
100
100
100
100
100
100
100
100
100
100
100
100
100
100
100
100
100
100
100
100
100
100
100
100
100
100
100
100
100
100
100
100
100
100
100
100
100
100
100
100
100
100
100
100
100
100
100
100
100
100
100
100
100
100
100
100
100
100
100
100
100
100
100
100
100
100
100
100
100
100
100
100
100
100
100
100
100
100
100
100
100
100
100
100
100
100
100
100
100
100
100
100
100
100
100
100
100
100
100
100
100
100
100
100
100
100
100
100
100
100
100
100
100
100
100
100
100
100
100
100
100
100
100
100
100
100
100
100
100
100
100
100
100
100
100
100
100
100
100
100
100
100
100
100
100
100
100
100
100
100
100
100
100
100
100
100
100
100
100
100
100
100
100
100
100
100
100
100
100
100
100
100
100
100
100
100
100
100
100
100
100
100
100
100
100
100
100
100
100
100
100
100
100
100
100
100
100
100
100
100
100
100
100
100
100
100
100
100
100
100
100
100
100
100
100
100
100
100
100
100
100
100
100
100
100
100
100
100
100
100
100
100
100
100
100
100
100
100
100
100
100
100
100
100
100
100
100
100
100
100
100
100
100
100
100
100
100
100
100
100
100
100
100
100
100
100
100
100
100
100
100
100
100
100
100
100
100
100
100
100
100
100
100
100
100
100
100
100
100
100
100
100
100
100
100
100
100
100
100
100
100
100
100
100
100
100
100
100
100
100
100
100
100
100
100
100
100
100
100
100
100
100
100
100
100
100
100
100
100
100
100
100
100
100
100
100
100
100
100
100
100
100
100
100
100
100
100
100
100
100
100
100
100
100
100
100
100
100
100
100
100
100
100
100
100
100
100
100
100
100
100
100
100
100
100
100
100
100
100
100
100
100
100
100
100
100
100
100
100
100
100
100
100
100
100
100
100
100
100
100
100
100
100
100
100
100
100
100
100
100
100
100
100
100
100
100
100
100
100
100
100
100
100
100
100
100
100
100
100
100
100
100
100
100
100
100
100
100
100
100
100
100
100
100
100
100
100
100
100
100
100
100
100
100
100
100
100
100
100
100
100
100
100
100
100
100
100
100
100
100
100
100
100
100
100
100
100
100
100
100
100
100
100
100
100
100
100
100
100
100
100
100
100
100
100
100
100
100
100
100
100
100
100
100
100
100
100
100
100
100
100
100
100
100
100
100
100
100
100
100
100
100
100
100
100
100
100
100
100
100
100
100
100
100
100
100
100
100
100
100
100
100
100
100
100
100
100
100
100
100
100
100
100
100
100
100
100
100
100
100
100
100
100
100
100
100
100
100
100
100
100
100
100
100
100
100
100
100
100
100
100
100
100
100
100
100
100
100
100
100
100
100
100
100
100
100
100
100
100
100
100
100
100
100
100
100
100
100
100
100
100
100
100
100
100
100
100
100
100
100
100
100
100
100
100
100
100
100
100
100
100
100
100
100
100
100
100
100
100
100
100
100
100
100
100
100
100
100
100
100
100
100
100
100
100
100
100
100
100
100
100
100
100
100
100
100
100
100
100
100
100
100
100
100
100
100
100
100
100
100
100
100
100
100
100
100
100
100
100
100
100
100
100
100
100
100
100
100
100
100
100
100
100
100
100
100
100
100
100
100
100
100
100
100
100
100
100
100
100
100
100
100
100
100
100
100
100
100
100
100
100
100
100
100
100
100
100
100
100
100
100
100
100
100
100
100
100
100
100
100
100
100
100
100
100
100
100
100
100
100
100
100
100
100
100
100
100
100
100
99.9995
100
100
100
100
100
100
100
100
100
100
100
100
100
100
100.042
100
100
100
100
100
100
100
100
100
100
100
100
100
100
100.395
100.039
100
100
100
100
100
100
100
100
100
100
100
100
100
100.653
100.287
100.025
100
100
100
100
100
100
100
100
100
100
100
100
100.719
100.519
100.168
100.009
100
100
100
100
100
100
100
100
100
100
100
100.705
100.636
100.373
100.074
100.002
100
100
100
100
100
100
100
100
100
100
100.672
100.663
100.517
100.217
100.022
100
100
100
100
100
100
100
100
100
100
100.598
100.653
100.609
100.415
100.142
100.017
100.001
100
100
100
100
100
100
100
100
100.528
100.62
100.608
100.488
100.251
100.043
100.002
100
100
100
100
100
100
100
100
100.445
100.543
100.589
100.547
100.377
100.145
100.015
100
100
100
100
100
100
100
100
100.409
100.463
100.539
100.542
100.447
100.254
100.065
100.003
100
100
100
100
100
100
100
100.386
100.431
100.468
100.516
100.483
100.337
100.155
100.025
100.001
100
100
100
100
100
100
100.352
100.412
100.429
100.466
100.473
100.388
100.234
100.078
100.006
100
100
100
100
100
100
100.298
100.368
100.393
100.422
100.448
100.415
100.29
100.149
100.031
100.001
100
100
100
100
100
100.275
100.322
100.347
100.382
100.411
100.406
100.329
100.208
100.081
100.008
100
100
100
100
100
100.272
100.294
100.31
100.337
100.363
100.382
100.349
100.249
100.139
100.032
100.001
100
100
100
100
100.262
100.27
100.293
100.319
100.323
100.343
100.339
100.28
100.187
100.078
100.008
100
100
100
100
100.247
100.25
100.274
100.296
100.289
100.301
100.316
100.292
100.217
100.129
100.031
100.001
100
100
100
100.234
100.236
100.26
100.269
100.262
100.27
100.281
100.282
100.24
100.169
100.073
100.008
100
100
100
100.216
100.226
100.241
100.237
100.233
100.245
100.249
100.26
100.244
100.192
100.118
100.028
100.001
100
100
100.194
100.209
100.22
100.21
100.206
100.218
100.215
100.23
100.237
100.211
100.154
100.065
100.007
100
100
100.18
100.186
100.197
100.19
100.194
100.197
100.183
100.195
100.216
100.21
100.174
100.107
100.024
100.001
100
100.179
100.161
100.174
100.173
100.182
100.174
100.159
100.168
100.186
100.202
100.186
100.14
100.057
100.006
100
100.227
100.157
100.153
100.15
100.161
100.146
100.135
100.148
100.158
100.182
100.184
100.16
100.097
100.019
100.001
100.313
100.173
100.144
100.131
100.14
100.121
100.113
100.126
100.13
100.156
100.177
100.168
100.127
100.048
100.004
100.365
100.224
100.132
100.114
100.118
100.1
100.098
100.106
100.102
100.126
100.161
100.167
100.146
100.084
100.016
100.374
100.276
100.144
100.1
100.093
100.083
100.09
100.087
100.079
100.1
100.137
100.162
100.155
100.113
100.04
100.378
100.319
100.22
100.108
100.073
100.059
100.068
100.056
100.048
100.068
100.097
100.138
100.151
100.138
100.105
100.427
100.402
100.375
100.336
100.297
100.269
100.254
100.252
100.244
100.231
100.215
100.191
100.179
100.189
100.276
100.366
100.385
100.408
100.418
100.413
100.365
100.346
100.319
100.282
100.257
100.247
100.243
100.239
100.232
100.218
100.198
100.179
100.198
100.295
100.39
100.422
100.415
100.421
100.432
100.431
100.306
100.291
100.268
100.235
100.219
100.219
100.227
100.226
100.219
100.207
100.187
100.214
100.317
100.406
100.433
100.442
100.439
100.437
100.443
100.446
100.24
100.24
100.215
100.182
100.182
100.19
100.202
100.207
100.205
100.193
100.234
100.343
100.417
100.459
100.458
100.458
100.458
100.455
100.459
100.465
100.181
100.185
100.178
100.157
100.153
100.161
100.177
100.177
100.211
100.287
100.376
100.427
100.465
100.48
100.48
100.481
100.485
100.487
100.49
100.497
100.13
100.138
100.134
100.126
100.128
100.133
100.167
100.264
100.376
100.436
100.466
100.487
100.504
100.512
100.518
100.524
100.53
100.535
100.542
100.552
100.084
100.083
100.085
100.086
100.099
100.199
100.367
100.465
100.492
100.518
100.551
100.565
100.573
100.582
100.592
100.601
100.607
100.614
100.622
100.632
100.023
100.094
100.205
100.276
100.394
100.509
100.584
100.636
100.644
100.652
100.674
100.685
100.689
100.694
100.701
100.706
100.709
100.711
100.716
100.719
100.576
100.675
100.725
100.736
100.757
100.793
100.808
100.804
100.797
100.801
100.809
100.809
100.804
100.796
100.796
100.796
100.793
100.788
100.785
100.779
101.052
101.033
101.012
100.996
100.966
100.941
100.913
100.885
100.874
100.877
100.878
100.871
100.856
100.841
100.836
100.833
100.825
100.818
100.811
100.802
)
;

boundaryField
{
    inlet
    {
        type            fixedValue;
        value           uniform 100;
    }
    outlet
    {
        type            inletOutlet;
        inletValue      uniform 100;
        value           nonuniform List<scalar> 
50
(
100.378
100.319
100.22
100.107
100.073
100.06
100.068
100.056
100.049
100.068
100.097
100.138
100.151
100.138
100.105
100.804
100.784
100.723
100.634
100.552
100.496
100.465
100.446
100.431
100.413
100.413
100.431
100.446
100.465
100.497
100.552
100.632
100.719
100.779
100.802
100.378
100.319
100.22
100.108
100.073
100.059
100.068
100.056
100.048
100.068
100.097
100.138
100.151
100.138
100.105
)
;
    }
    airfoil
    {
        type            zeroGradient;
    }
    top
    {
        type            symmetryPlane;
    }
    bottom
    {
        type            symmetryPlane;
    }
    defaultFaces
    {
        type            empty;
    }
}


// ************************************************************************* //
