/*--------------------------------*- C++ -*----------------------------------*\
  =========                 |
  \\      /  F ield         | OpenFOAM: The Open Source CFD Toolbox
   \\    /   O peration     | Website:  https://openfoam.org
    \\  /    A nd           | Version:  7
     \\/     M anipulation  |
\*---------------------------------------------------------------------------*/
FoamFile
{
    version     2.0;
    format      ascii;
    class       volVectorField;
    location    "5.2";
    object      U;
}
// * * * * * * * * * * * * * * * * * * * * * * * * * * * * * * * * * * * * * //

dimensions      [0 1 -1 0 0 0 0];

internalField   nonuniform List<vector> 
3700
(
(1.35435 -0.387198 0)
(1.40084 -0.440292 0)
(1.42178 -0.347944 0)
(1.36057 -0.248004 0)
(1.35748 -0.155571 0)
(1.43451 -0.189324 0)
(1.52723 -0.284594 0)
(1.56405 -0.394393 0)
(1.48448 -0.326383 0)
(1.47915 -0.146889 0)
(1.57397 -0.100796 0)
(1.62719 -0.195899 0)
(1.65193 -0.277427 0)
(1.61255 -0.270536 0)
(1.58558 -0.233712 0)
(1.60139 -0.205781 0)
(1.6397 -0.17119 0)
(1.70774 -0.108667 0)
(1.82709 -0.0761962 0)
(1.89286 -0.0757558 0)
(1.72291 -1.32423 0)
(1.83221 -1.16997 0)
(1.95454 -1.30245 0)
(1.9422 -1.41296 0)
(1.84965 -1.35443 0)
(1.89105 -1.50761 0)
(1.99305 -1.77691 0)
(1.89048 -1.88441 0)
(1.77811 -1.68711 0)
(1.76913 -1.36302 0)
(1.92601 -1.22277 0)
(2.03822 -1.26613 0)
(2.07857 -1.28625 0)
(2.055 -1.23964 0)
(2.03668 -1.18187 0)
(2.04756 -1.12007 0)
(2.07167 -1.14263 0)
(2.10356 -1.07326 0)
(2.1852 -0.981694 0)
(2.26971 -0.951248 0)
(1.81778 -1.33286 0)
(1.97921 -1.11924 0)
(2.21517 -1.4026 0)
(2.33682 -1.72914 0)
(2.1433 -2.12359 0)
(2.06796 -2.25716 0)
(2.1127 -2.20046 0)
(2.02383 -2.19941 0)
(2.02903 -2.16957 0)
(2.08702 -2.09421 0)
(2.15251 -2.05486 0)
(2.24185 -1.96942 0)
(2.34882 -1.90962 0)
(2.4511 -1.8468 0)
(2.53705 -1.8021 0)
(2.60975 -1.74652 0)
(2.60696 -1.76559 0)
(2.59215 -1.68705 0)
(2.55418 -1.66176 0)
(2.54818 -1.59748 0)
(1.92031 -1.38995 0)
(2.08016 -1.13287 0)
(2.22503 -1.38663 0)
(2.22899 -1.71891 0)
(2.07831 -2.10088 0)
(2.06418 -2.21632 0)
(2.14797 -2.1716 0)
(2.10645 -2.12711 0)
(2.13765 -2.09038 0)
(2.23135 -2.02071 0)
(2.21594 -2.05839 0)
(2.2968 -1.87938 0)
(2.36698 -1.80696 0)
(2.46115 -1.70969 0)
(2.59297 -1.60643 0)
(2.72692 -1.44908 0)
(2.77062 -1.36786 0)
(2.81324 -1.34074 0)
(2.78831 -1.37252 0)
(2.6875 -1.38761 0)
(1.84161 -1.38898 0)
(1.92596 -1.24149 0)
(1.89743 -1.58365 0)
(1.79881 -1.98854 0)
(1.85013 -2.18673 0)
(1.98297 -2.21458 0)
(2.08448 -2.17406 0)
(2.14556 -2.087 0)
(2.20555 -2.0351 0)
(2.3684 -1.82825 0)
(2.37625 -1.91328 0)
(2.4421 -1.80124 0)
(2.43897 -1.73289 0)
(2.46368 -1.66007 0)
(2.53512 -1.57021 0)
(2.63065 -1.43416 0)
(2.67769 -1.27181 0)
(2.79776 -1.09986 0)
(2.87505 -0.920135 0)
(2.82705 -0.913884 0)
(1.65137 -1.4197 0)
(1.6937 -1.43827 0)
(1.5967 -1.79891 0)
(1.59031 -2.11663 0)
(1.59404 -2.1824 0)
(1.78033 -2.13384 0)
(1.93405 -2.10357 0)
(2.18012 -1.86348 0)
(2.34152 -1.82769 0)
(2.50781 -1.68601 0)
(2.51727 -1.65833 0)
(2.60218 -1.54712 0)
(2.61312 -1.51725 0)
(2.59549 -1.49845 0)
(2.60311 -1.41279 0)
(2.60941 -1.33685 0)
(2.62652 -1.20773 0)
(2.72892 -1.14947 0)
(2.76507 -0.97238 0)
(2.84732 -0.744291 0)
(1.4439 -1.34781 0)
(1.46441 -1.49425 0)
(1.44922 -1.88654 0)
(1.49293 -2.13771 0)
(1.5616 -2.15675 0)
(1.74307 -2.0826 0)
(1.90145 -2.00165 0)
(2.07996 -1.82745 0)
(2.23372 -1.68466 0)
(2.44828 -1.58528 0)
(2.55332 -1.36247 0)
(2.66934 -1.26689 0)
(2.71399 -1.16824 0)
(2.71643 -1.17134 0)
(2.73427 -1.07232 0)
(2.71441 -1.05938 0)
(2.69785 -0.948572 0)
(2.69773 -0.946324 0)
(2.72529 -0.898064 0)
(2.75905 -0.663528 0)
(1.28052 -1.18374 0)
(1.32401 -1.44847 0)
(1.39476 -1.89705 0)
(1.49896 -2.1149 0)
(1.63116 -2.12892 0)
(1.7656 -2.09331 0)
(1.97596 -1.97294 0)
(2.09698 -1.80688 0)
(2.18335 -1.65863 0)
(2.3239 -1.59749 0)
(2.44732 -1.34973 0)
(2.61865 -1.2605 0)
(2.66882 -0.960891 0)
(2.75287 -0.858356 0)
(2.76949 -0.66649 0)
(2.76877 -0.652971 0)
(2.76214 -0.576892 0)
(2.73389 -0.558849 0)
(2.72086 -0.662446 0)
(2.69459 -0.491429 0)
(1.16883 -1.04222 0)
(1.20395 -1.46821 0)
(1.40139 -1.88791 0)
(1.55715 -2.06648 0)
(1.77928 -2.02818 0)
(1.95776 -2.06838 0)
(2.18737 -1.82284 0)
(2.30947 -1.66955 0)
(2.33937 -1.59908 0)
(2.37017 -1.53776 0)
(2.4595 -1.32864 0)
(2.55326 -1.21068 0)
(2.5969 -0.967844 0)
(2.71506 -0.871743 0)
(2.72496 -0.610161 0)
(2.76852 -0.465547 0)
(2.76083 -0.293456 0)
(2.7357 -0.184346 0)
(2.69709 -0.284116 0)
(2.6581 -0.236563 0)
(1.07669 -0.99665 0)
(1.13273 -1.54029 0)
(1.49373 -1.93732 0)
(1.79371 -2.15842 0)
(2.22955 -2.0157 0)
(2.42914 -1.98311 0)
(2.55806 -1.64589 0)
(2.56938 -1.33987 0)
(2.62123 -1.26385 0)
(2.63814 -1.23112 0)
(2.64023 -1.12498 0)
(2.6603 -0.939647 0)
(2.6433 -0.793765 0)
(2.67986 -0.705261 0)
(2.67729 -0.532984 0)
(2.70529 -0.42531 0)
(2.71537 -0.263673 0)
(2.69058 -0.0721181 0)
(2.64565 0.0303237 0)
(2.61226 0.0162527 0)
(1.01514 -1.01062 0)
(1.19853 -1.67007 0)
(1.71312 -2.16741 0)
(2.16951 -2.35096 0)
(2.51075 -1.96045 0)
(2.53881 -1.86129 0)
(2.71382 -1.54768 0)
(2.81782 -1.13764 0)
(2.85066 -0.974105 0)
(2.79849 -0.689188 0)
(2.78765 -0.628576 0)
(2.75424 -0.431477 0)
(2.73103 -0.365991 0)
(2.70915 -0.257428 0)
(2.6821 -0.19507 0)
(2.6552 -0.160555 0)
(2.64528 -0.125747 0)
(2.61875 -0.0159555 0)
(2.5551 0.164479 0)
(2.5603 0.166448 0)
(1.00347 -1.0711 0)
(1.4374 -1.92893 0)
(1.9574 -2.35712 0)
(2.17421 -2.10145 0)
(2.20735 -1.86355 0)
(2.31715 -1.59056 0)
(2.43078 -1.33928 0)
(2.5304 -1.08251 0)
(2.58225 -0.981674 0)
(2.62321 -0.663365 0)
(2.69207 -0.481544 0)
(2.67263 -0.213008 0)
(2.6761 -0.0598724 0)
(2.63275 0.11432 0)
(2.59805 0.215245 0)
(2.56666 0.242632 0)
(2.5403 0.233979 0)
(2.53354 0.186727 0)
(2.45296 0.314521 0)
(2.47225 0.289554 0)
(1.06974 -1.32733 0)
(1.63844 -2.22337 0)
(1.90899 -2.18663 0)
(1.93884 -1.86314 0)
(2.03893 -1.70803 0)
(2.21653 -1.4074 0)
(2.34306 -1.15496 0)
(2.42248 -0.955062 0)
(2.45875 -0.761318 0)
(2.49772 -0.584128 0)
(2.562 -0.39035 0)
(2.56506 -0.157223 0)
(2.57524 0.0207283 0)
(2.53828 0.208924 0)
(2.48128 0.383811 0)
(2.45014 0.459106 0)
(2.38344 0.560037 0)
(2.36448 0.520177 0)
(2.31977 0.55629 0)
(2.32737 0.512517 0)
(1.0375 -1.43148 0)
(1.52264 -2.17678 0)
(1.7649 -1.99844 0)
(1.92951 -1.69852 0)
(2.10922 -1.57888 0)
(2.31777 -1.03268 0)
(2.45195 -0.759477 0)
(2.53081 -0.550609 0)
(2.51578 -0.220769 0)
(2.53378 -0.124809 0)
(2.52345 0.0617795 0)
(2.49456 0.203058 0)
(2.458 0.317777 0)
(2.41272 0.418435 0)
(2.35217 0.522288 0)
(2.32839 0.568349 0)
(2.24845 0.672003 0)
(2.19268 0.74341 0)
(2.15826 0.787533 0)
(2.13976 0.792133 0)
(0.909257 -1.38378 0)
(1.50607 -2.02672 0)
(1.79212 -1.8161 0)
(2.06397 -0.966438 0)
(2.35559 -0.89779 0)
(2.44087 -0.294719 0)
(2.54313 -0.159719 0)
(2.52707 0.112791 0)
(2.48245 0.235938 0)
(2.45442 0.372754 0)
(2.40043 0.518153 0)
(2.3323 0.640289 0)
(2.2749 0.714158 0)
(2.21271 0.783972 0)
(2.16744 0.802172 0)
(2.13269 0.812268 0)
(2.08899 0.850734 0)
(2.06773 0.877161 0)
(2.03152 0.929684 0)
(2.05473 0.956866 0)
(0.89809 -0.963944 0)
(1.76932 -1.46166 0)
(2.11231 -1.33395 0)
(2.26592 -0.132421 0)
(2.42505 0.132733 0)
(2.46517 -0.0543743 0)
(2.46617 0.0698588 0)
(2.39759 0.302336 0)
(2.33802 0.422172 0)
(2.30792 0.572995 0)
(2.22272 0.728852 0)
(2.14147 0.848135 0)
(2.07571 0.92068 0)
(2.01354 0.985742 0)
(1.97199 0.993881 0)
(1.94947 1.00113 0)
(1.95608 1.01446 0)
(1.97186 0.990997 0)
(1.99658 0.990579 0)
(2.06888 0.976271 0)
(1.28954 -0.398013 0)
(1.88124 -0.944347 0)
(2.29449 -0.0711693 0)
(2.38843 -0.0166468 0)
(2.36916 0.127704 0)
(2.36851 0.296004 0)
(2.27768 0.524286 0)
(2.20915 0.635949 0)
(2.13379 0.744741 0)
(2.08651 0.884538 0)
(1.98053 0.994876 0)
(1.92746 1.04794 0)
(1.89247 1.07073 0)
(1.87184 1.08756 0)
(1.86919 1.05923 0)
(1.89382 1.05173 0)
(1.96077 1.023 0)
(2.16639 0.901768 0)
(2.38555 0.786985 0)
(2.78049 0.435622 0)
(1.19596 -0.0878974 0)
(1.94098 -0.354891 0)
(2.21925 0.340686 0)
(2.23355 0.515265 0)
(2.20112 0.619519 0)
(2.15635 0.742947 0)
(2.04581 0.894834 0)
(1.95686 0.982348 0)
(1.89889 1.0414 0)
(1.84419 1.13185 0)
(1.789 1.16034 0)
(1.79322 1.1513 0)
(1.81491 1.12925 0)
(1.85387 1.08637 0)
(2.04047 0.951389 0)
(2.25758 0.830734 0)
(2.66569 0.504253 0)
(3.03651 0.0916478 0)
(3.05453 -0.0237272 0)
(3.00399 -0.00462914 0)
(1.02451 0.00381022 0)
(1.89769 0.865196 0)
(2.10733 0.820594 0)
(2.00843 0.938485 0)
(1.96984 0.986252 0)
(1.86714 1.09735 0)
(1.79319 1.14328 0)
(1.75981 1.14705 0)
(1.75583 1.16315 0)
(1.73076 1.20495 0)
(1.71062 1.19894 0)
(1.86391 1.07461 0)
(2.10555 0.887952 0)
(2.51051 0.576966 0)
(2.98961 0.135165 0)
(3.07354 -0.0295366 0)
(3.00806 -0.00767029 0)
(3.0029 -0.00381798 0)
(3.00122 -0.00218272 0)
(3.00008 -0.00048069 0)
(1.16158 0.768457 0)
(1.82988 1.14193 0)
(1.838 1.14849 0)
(1.74726 1.1908 0)
(1.71677 1.2041 0)
(1.67086 1.246 0)
(1.66255 1.21765 0)
(1.72629 1.16549 0)
(1.75313 1.22565 0)
(1.77785 1.14095 0)
(2.25796 0.750487 0)
(2.84898 0.218896 0)
(3.09493 -0.0244661 0)
(3.02063 -0.0122291 0)
(3.00446 -0.0053633 0)
(3.00185 -0.00300699 0)
(3.00006 -0.000601611 0)
(2.99998 -2.48896e-05 0)
(2.99999 1.42762e-05 0)
(3 5.91057e-06 0)
(1.576 1.2536 0)
(1.58167 1.25983 0)
(1.59175 1.26523 0)
(1.60473 1.26454 0)
(1.62458 1.25214 0)
(1.61752 1.26181 0)
(1.89001 1.14975 0)
(2.96594 0.334575 0)
(3.33582 -0.558586 0)
(3 6.73352e-11 0)
(3 -8.84079e-11 0)
(3 9.51089e-11 0)
(3 9.7339e-15 0)
(3 -5.00687e-13 0)
(3 -1.7028e-14 0)
(3 2.27789e-14 0)
(3 -1.03549e-14 0)
(3 -6.45614e-16 0)
(3 -1.61029e-15 0)
(3 -9.01761e-16 0)
(1.57446 1.24683 0)
(1.58787 1.25846 0)
(1.59672 1.26785 0)
(1.59908 1.26356 0)
(1.66843 1.23937 0)
(1.74437 1.22099 0)
(2.31399 0.707053 0)
(3.00287 0.00839697 0)
(3 5.66722e-08 0)
(3 -6.4171e-11 0)
(3 -1.45665e-12 0)
(3 9.5428e-15 0)
(3 -2.06633e-15 0)
(3 -2.48027e-16 0)
(3 1.18015e-15 0)
(3 3.15384e-15 0)
(3 2.56913e-15 0)
(3 -4.14644e-16 0)
(3 -1.59068e-15 0)
(3 1.18563e-15 0)
(1.5828 1.2559 0)
(1.59886 1.26071 0)
(1.59608 1.26999 0)
(1.56382 1.29788 0)
(1.7408 1.20551 0)
(2.2063 0.837093 0)
(2.98897 0.00701883 0)
(3.00027 -0.000595474 0)
(3 6.84859e-07 0)
(3 5.3096e-11 0)
(3 -7.80589e-13 0)
(3 1.85931e-14 0)
(3 -1.42824e-15 0)
(3 -9.11002e-16 0)
(3 6.37134e-16 0)
(3 2.75403e-15 0)
(3 3.03358e-16 0)
(3 -7.44612e-16 0)
(3 -1.37076e-15 0)
(3 1.76454e-15 0)
(1.58632 1.25787 0)
(1.60574 1.2623 0)
(1.6227 1.26909 0)
(1.57474 1.33458 0)
(1.83067 1.11526 0)
(2.70439 0.263036 0)
(3.00518 -0.0019564 0)
(2.99992 7.31803e-05 0)
(3 -8.24071e-07 0)
(3 8.53809e-10 0)
(3 -7.28712e-14 0)
(3 -6.62092e-15 0)
(3 -1.12268e-15 0)
(3 -3.83153e-16 0)
(3 4.3639e-17 0)
(3 6.06334e-16 0)
(3 -1.46388e-16 0)
(3 -5.36035e-16 0)
(3 -7.78288e-16 0)
(3 1.26364e-15 0)
(1.58843 1.26978 0)
(1.60842 1.26512 0)
(1.63888 1.25725 0)
(1.70526 1.2135 0)
(2.33072 0.642023 0)
(3.02226 -0.0201556 0)
(2.99972 0.000157638 0)
(3 -4.36293e-06 0)
(3 8.43591e-08 0)
(3 -8.7686e-10 0)
(3 3.4809e-12 0)
(3 -4.18719e-14 0)
(3 -3.09979e-15 0)
(3 -1.33321e-15 0)
(3 4.03319e-16 0)
(3 -2.25739e-15 0)
(3 -1.99189e-15 0)
(3 -5.20574e-16 0)
(3 -6.33444e-16 0)
(3 6.45084e-16 0)
(1.58612 1.28285 0)
(1.58733 1.27396 0)
(1.64759 1.23693 0)
(1.89524 1.07051 0)
(2.76729 0.202681 0)
(3 -5.82688e-10 0)
(3 1.40526e-08 0)
(3 -1.26917e-08 0)
(3 5.51686e-10 0)
(3 2.78127e-12 0)
(3 -1.17279e-13 0)
(3 -1.10636e-15 0)
(3 -4.44357e-15 0)
(3 -2.76698e-15 0)
(3 -1.81505e-15 0)
(3 -2.2768e-15 0)
(3 -1.60092e-15 0)
(3 -1.68913e-15 0)
(3 -1.15634e-15 0)
(3 -3.37444e-16 0)
(1.58357 1.29239 0)
(1.54814 1.28228 0)
(1.65233 1.24202 0)
(2.07375 0.873316 0)
(3.01295 -0.00778893 0)
(3 4.52562e-12 0)
(3 -4.98503e-12 0)
(3 2.4473e-12 0)
(3 -8.54074e-13 0)
(3 2.08376e-14 0)
(3 -2.90725e-15 0)
(3 -3.63433e-15 0)
(3 -4.65229e-15 0)
(3 -4.71005e-15 0)
(3 -3.42722e-15 0)
(3 -1.15676e-15 0)
(3 -8.87389e-16 0)
(3 -2.02694e-15 0)
(3 -1.88351e-15 0)
(3 -1.68679e-15 0)
(1.57857 1.32149 0)
(1.50332 1.32187 0)
(1.763 1.19089 0)
(2.42117 0.552668 0)
(3 -3.59489e-07 0)
(3 1.92573e-11 0)
(3 1.14816e-13 0)
(3 -1.167e-14 0)
(3 3.87073e-15 0)
(3 -1.81742e-15 0)
(3 -2.50794e-15 0)
(3 -2.97691e-15 0)
(3 -3.94617e-15 0)
(3 -4.02857e-15 0)
(3 -3.14471e-15 0)
(3 -1.45125e-15 0)
(3 -1.89588e-15 0)
(3 -1.75551e-15 0)
(3 -2.05776e-15 0)
(3 -2.13599e-15 0)
(1.58571 1.30719 0)
(1.47134 1.33978 0)
(1.97161 1.04579 0)
(2.87257 0.131822 0)
(3 -1.69807e-09 0)
(3 3.66781e-12 0)
(3 3.36659e-15 0)
(3 1.39554e-15 0)
(3 4.28691e-16 0)
(3 -1.15712e-15 0)
(3 -1.62915e-15 0)
(3 -2.68733e-15 0)
(3 -3.11402e-15 0)
(3 -3.23946e-15 0)
(3 -3.15227e-15 0)
(3 -1.40945e-15 0)
(3 -1.30387e-15 0)
(3 -1.07401e-15 0)
(3 -2.0996e-15 0)
(3 -2.48157e-15 0)
(1.60454 1.29799 0)
(1.48408 1.39795 0)
(2.10626 0.860966 0)
(3.01152 -0.009622 0)
(3 1.03667e-08 0)
(3 -2.1072e-11 0)
(3 4.33328e-14 0)
(3 7.77026e-16 0)
(3 5.96271e-16 0)
(3 -6.83572e-16 0)
(3 -1.35269e-15 0)
(3 -1.35683e-15 0)
(3 -1.84461e-15 0)
(3 -1.89287e-15 0)
(3 -1.62609e-15 0)
(3 -4.99832e-16 0)
(3 3.96767e-16 0)
(3 -5.89515e-16 0)
(3 -2.4678e-15 0)
(3 -2.161e-15 0)
(1.6215 1.2816 0)
(1.58185 1.30377 0)
(2.43363 0.516922 0)
(3 4.27206e-13 0)
(3 -7.50593e-12 0)
(3 1.34463e-13 0)
(3 -4.84936e-16 0)
(3 1.10314e-15 0)
(3 6.34317e-16 0)
(3 -7.60453e-16 0)
(3 -1.58023e-15 0)
(3 -1.63977e-15 0)
(3 -1.37557e-15 0)
(3 -7.51802e-16 0)
(3 -2.81097e-17 0)
(3 1.36483e-15 0)
(3 2.46661e-15 0)
(3 2.39526e-15 0)
(3 -4.58527e-16 0)
(3 -1.36569e-15 0)
(1.63794 1.26558 0)
(1.64673 1.23454 0)
(2.65869 0.279993 0)
(3 6.19418e-13 0)
(3 1.16397e-14 0)
(3 7.68232e-16 0)
(3 7.38515e-16 0)
(3 1.09331e-15 0)
(3 9.56819e-16 0)
(3 -9.12515e-16 0)
(3 -1.79868e-15 0)
(3 -1.95784e-15 0)
(3 -1.53089e-15 0)
(3 -1.16036e-15 0)
(3 1.03663e-15 0)
(3 2.25631e-15 0)
(3 3.97058e-15 0)
(3 4.9878e-15 0)
(3 4.21987e-15 0)
(3 2.62714e-15 0)
(1.65858 1.24098 0)
(1.80518 1.09963 0)
(2.87582 0.0877324 0)
(3 -1.08889e-12 0)
(3 4.67378e-16 0)
(3 6.80741e-16 0)
(3 7.12858e-16 0)
(3 1.32238e-15 0)
(3 1.12522e-15 0)
(3 -8.45293e-17 0)
(3 -1.07259e-15 0)
(3 -1.865e-15 0)
(3 -1.70694e-15 0)
(3 -8.36118e-16 0)
(3 3.19179e-16 0)
(3 1.81262e-15 0)
(3 3.55845e-15 0)
(3 3.93534e-15 0)
(3 4.08987e-15 0)
(3 3.79494e-15 0)
(1.68882 1.19405 0)
(1.9226 0.968248 0)
(2.99986 3.7822e-05 0)
(3 7.95476e-15 0)
(3 3.90513e-16 0)
(3 6.07902e-16 0)
(3 1.20939e-15 0)
(3 1.73072e-15 0)
(3 1.70377e-15 0)
(3 5.17131e-16 0)
(3 -5.03052e-16 0)
(3 -1.09195e-15 0)
(3 -1.06958e-15 0)
(3 -4.78899e-16 0)
(3 1.46904e-16 0)
(3 8.94291e-16 0)
(3 1.14383e-15 0)
(3 1.19836e-15 0)
(3 1.19103e-15 0)
(3 1.32302e-15 0)
(1.70391 1.16125 0)
(2.04455 0.835793 0)
(3 1.33024e-15 0)
(3 1.36857e-15 0)
(3 1.26116e-15 0)
(3 1.017e-15 0)
(3 1.1064e-15 0)
(3 1.66978e-15 0)
(3 1.85135e-15 0)
(3 3.23221e-16 0)
(3 -2.25316e-15 0)
(3 -3.47918e-15 0)
(3 -4.27605e-15 0)
(3 -4.49979e-15 0)
(3 -3.93937e-15 0)
(3 -3.02673e-15 0)
(3 -1.42482e-15 0)
(3 -5.61948e-16 0)
(3 8.61339e-16 0)
(3 1.53651e-15 0)
(1.72692 1.10932 0)
(2.19301 0.666627 0)
(3 1.33083e-15 0)
(3 5.33596e-16 0)
(3 1.09996e-15 0)
(3 1.49829e-15 0)
(3 1.31102e-15 0)
(3 9.90232e-16 0)
(3 5.09045e-16 0)
(3 -1.58607e-15 0)
(3 -2.69003e-15 0)
(3 -3.58093e-15 0)
(3 -4.42892e-15 0)
(3 -4.82221e-15 0)
(3 -4.7936e-15 0)
(3 -4.82302e-15 0)
(3 -4.45572e-15 0)
(3 -4.31245e-15 0)
(3 -3.81436e-15 0)
(3 -3.03571e-15 0)
(1.84071 1.02022 0)
(2.44363 0.448277 0)
(3 -2.49688e-15 0)
(3 -1.7268e-15 0)
(3 -1.09582e-15 0)
(3 1.68971e-16 0)
(3 1.66292e-17 0)
(3 -7.7306e-16 0)
(3 -1.6546e-15 0)
(3 -1.70772e-15 0)
(3 -1.84246e-15 0)
(3 -1.87305e-15 0)
(3 -2.37037e-15 0)
(3 -2.86614e-15 0)
(3 -3.7808e-15 0)
(3 -4.00939e-15 0)
(3 -3.94194e-15 0)
(3 -4.18686e-15 0)
(3 -4.57528e-15 0)
(3 -4.77955e-15 0)
(1.96388 0.865527 0)
(2.74132 0.188127 0)
(3 -8.35407e-16 0)
(3 -2.99796e-16 0)
(3 2.49407e-16 0)
(3 3.93325e-16 0)
(3 2.52546e-16 0)
(3 6.52917e-16 0)
(3 6.0146e-16 0)
(3 3.44775e-16 0)
(3 1.71102e-16 0)
(3 2.89982e-16 0)
(3 2.58796e-16 0)
(3 -9.17795e-17 0)
(3 -6.01544e-16 0)
(3 -9.75746e-16 0)
(3 -1.07513e-15 0)
(3 -1.15817e-15 0)
(3 -1.10192e-15 0)
(3 -6.30258e-16 0)
(2.0928 0.641977 0)
(2.99311 0.000144714 0)
(3 -9.44703e-16 0)
(3 -4.15825e-16 0)
(3 6.81204e-16 0)
(3 1.13076e-15 0)
(3 1.30065e-15 0)
(3 8.909e-16 0)
(3 6.80008e-16 0)
(3 4.27955e-17 0)
(3 -4.20672e-16 0)
(3 -6.00601e-16 0)
(3 -1.09036e-15 0)
(3 -1.50729e-15 0)
(3 -1.73851e-15 0)
(3 -1.99737e-15 0)
(3 -2.0279e-15 0)
(3 -1.80427e-15 0)
(3 -1.44958e-15 0)
(3 -1.58399e-15 0)
(1.99236 0.380069 0)
(2.99988 -2.226e-05 0)
(3 -1.02736e-15 0)
(3 -1.19237e-15 0)
(3 -7.91344e-16 0)
(3 -3.57112e-16 0)
(3 -1.13472e-16 0)
(3 1.35684e-16 0)
(3 2.62759e-16 0)
(3 1.0185e-16 0)
(3 1.99945e-18 0)
(3 -6.81173e-17 0)
(3 -6.81577e-17 0)
(3 -3.02614e-17 0)
(3 3.89527e-16 0)
(3 5.60278e-16 0)
(3 6.71883e-16 0)
(3 7.33974e-16 0)
(3 5.48792e-16 0)
(3 2.98245e-16 0)
(1.99227 -0.379072 0)
(2.99986 2.71505e-05 0)
(3 -1.03499e-15 0)
(3 -2.05919e-15 0)
(3 -2.47253e-15 0)
(3 -2.65991e-15 0)
(3 -2.25583e-15 0)
(3 -1.18235e-15 0)
(3 -3.04647e-16 0)
(3 1.38007e-16 0)
(3 2.53285e-16 0)
(3 4.86574e-16 0)
(3 1.17395e-15 0)
(3 2.04674e-15 0)
(3 2.55806e-15 0)
(3 2.72161e-15 0)
(3 2.72382e-15 0)
(3 2.57854e-15 0)
(3 2.52446e-15 0)
(3 2.58529e-15 0)
(2.08953 -0.644135 0)
(2.99312 -0.00012455 0)
(3 -1.58755e-15 0)
(3 -1.20214e-15 0)
(3 -9.7023e-16 0)
(3 -9.76829e-16 0)
(3 -3.67714e-16 0)
(3 7.78869e-16 0)
(3 1.50546e-15 0)
(3 1.49006e-15 0)
(3 7.27271e-16 0)
(3 1.09249e-15 0)
(3 1.58322e-15 0)
(3 1.92448e-15 0)
(3 1.89644e-15 0)
(3 1.16815e-15 0)
(3 6.92945e-16 0)
(3 1.20768e-17 0)
(3 -9.1647e-19 0)
(3 -2.15229e-17 0)
(1.9603 -0.863673 0)
(2.74138 -0.187535 0)
(3 -7.56698e-16 0)
(3 -1.21955e-15 0)
(3 -1.28535e-15 0)
(3 -1.46245e-15 0)
(3 -1.23266e-15 0)
(3 -3.38659e-16 0)
(3 -3.05168e-16 0)
(3 -4.90344e-16 0)
(3 -1.12301e-15 0)
(3 -1.13387e-15 0)
(3 -1.00289e-15 0)
(3 -6.96273e-16 0)
(3 -6.54573e-16 0)
(3 -5.4466e-16 0)
(3 -3.87948e-16 0)
(3 -4.73117e-16 0)
(3 -5.55081e-16 0)
(3 -5.6284e-16 0)
(1.84415 -1.02062 0)
(2.44718 -0.44701 0)
(3 9.04784e-16 0)
(3 1.53716e-15 0)
(3 1.89182e-15 0)
(3 1.71222e-15 0)
(3 7.43694e-16 0)
(3 1.98055e-16 0)
(3 -5.39166e-17 0)
(3 -3.66742e-16 0)
(3 1.09953e-17 0)
(3 6.96259e-16 0)
(3 1.38618e-15 0)
(3 1.69603e-15 0)
(3 1.34539e-15 0)
(3 1.33608e-15 0)
(3 1.10388e-15 0)
(3 1.37889e-15 0)
(3 1.58627e-15 0)
(3 1.57848e-15 0)
(1.73075 -1.10761 0)
(2.1976 -0.663413 0)
(3 -7.77667e-16 0)
(3 -2.04543e-16 0)
(3 -2.30788e-16 0)
(3 4.74411e-17 0)
(3 -5.84522e-16 0)
(3 -9.61853e-16 0)
(3 -9.57612e-16 0)
(3 -1.0945e-15 0)
(3 -1.12355e-15 0)
(3 -9.73769e-16 0)
(3 -4.14354e-16 0)
(3 -2.76336e-16 0)
(3 -5.40955e-16 0)
(3 -7.52127e-16 0)
(3 -8.70552e-16 0)
(3 -1.19912e-15 0)
(3 -1.32237e-15 0)
(3 -1.96809e-15 0)
(1.69962 -1.16313 0)
(2.03974 -0.837465 0)
(3 -6.57894e-17 0)
(3 -2.00057e-17 0)
(3 -4.12082e-17 0)
(3 -1.18576e-16 0)
(3 -1.22273e-15 0)
(3 -1.46799e-15 0)
(3 -1.49085e-15 0)
(3 -1.28026e-15 0)
(3 -1.17543e-15 0)
(3 -8.29335e-16 0)
(3 -4.2496e-16 0)
(3 -3.5957e-16 0)
(3 -9.07967e-16 0)
(3 -3.51353e-16 0)
(3 -1.03923e-15 0)
(3 -1.81949e-15 0)
(3 -2.33277e-15 0)
(3 -3.38206e-15 0)
(1.69051 -1.19391 0)
(1.92565 -0.966533 0)
(2.99984 -4.18599e-05 0)
(3 -5.22829e-15 0)
(3 -2.53272e-16 0)
(3 -9.62847e-17 0)
(3 -6.95014e-16 0)
(3 -9.35729e-16 0)
(3 -1.29906e-15 0)
(3 -1.71536e-15 0)
(3 -1.73017e-15 0)
(3 -1.80205e-15 0)
(3 -1.75721e-15 0)
(3 -1.6635e-15 0)
(3 -1.87575e-15 0)
(3 -3.02009e-15 0)
(3 -3.80547e-15 0)
(3 -4.52178e-15 0)
(3 -4.5567e-15 0)
(3 -4.43501e-15 0)
(1.65791 -1.24111 0)
(1.80158 -1.10138 0)
(2.87267 -0.0895146 0)
(3 1.12614e-12 0)
(3 -3.63827e-16 0)
(3 -2.3111e-17 0)
(3 -9.39232e-17 0)
(3 -5.17257e-16 0)
(3 -3.58094e-16 0)
(3 -9.67568e-16 0)
(3 -8.32077e-16 0)
(3 -5.9869e-16 0)
(3 -5.51567e-16 0)
(3 -7.75258e-16 0)
(3 -2.88948e-15 0)
(3 -4.16188e-15 0)
(3 -4.20005e-15 0)
(3 -3.72936e-15 0)
(3 -3.25904e-15 0)
(3 -2.39493e-15 0)
(1.63628 -1.26543 0)
(1.64076 -1.2387 0)
(2.65495 -0.285077 0)
(3 -5.60034e-13 0)
(3 -1.48319e-14 0)
(3 3.51864e-17 0)
(3 -1.03364e-16 0)
(3 -7.51005e-16 0)
(3 -1.26087e-15 0)
(3 -1.43723e-15 0)
(3 -1.61761e-15 0)
(3 -1.55211e-15 0)
(3 -1.10462e-15 0)
(3 -1.93127e-15 0)
(3 -3.41224e-15 0)
(3 -3.9473e-15 0)
(3 -4.1191e-15 0)
(3 -3.26172e-15 0)
(3 -2.91581e-15 0)
(3 -1.49206e-15 0)
(1.62108 -1.28093 0)
(1.58493 -1.3038 0)
(2.43713 -0.516397 0)
(3 -5.78975e-13 0)
(3 7.54326e-12 0)
(3 -1.25184e-13 0)
(3 1.17703e-15 0)
(3 -8.36403e-16 0)
(3 -1.22535e-15 0)
(3 -1.93851e-15 0)
(3 -2.36067e-15 0)
(3 -2.73162e-15 0)
(3 -2.50417e-15 0)
(3 -2.26609e-15 0)
(3 -2.56936e-15 0)
(3 -2.89656e-15 0)
(3 -1.52177e-15 0)
(3 7.78854e-16 0)
(3 2.11003e-15 0)
(3 3.57342e-15 0)
(1.60529 -1.29755 0)
(1.48501 -1.39662 0)
(2.11118 -0.856714 0)
(3.01148 0.00960354 0)
(3 -9.72276e-09 0)
(3 1.9572e-11 0)
(3 -4.30545e-14 0)
(3 -9.88556e-16 0)
(3 -2.38826e-15 0)
(3 -2.95143e-15 0)
(3 -2.46438e-15 0)
(3 -2.72689e-15 0)
(3 -2.84666e-15 0)
(3 -1.80859e-15 0)
(3 -1.76863e-15 0)
(3 -1.96044e-15 0)
(3 1.42847e-15 0)
(3 2.91546e-15 0)
(3 3.61352e-15 0)
(3 3.47387e-15 0)
(1.58701 -1.30748 0)
(1.47072 -1.34124 0)
(1.9658 -1.04532 0)
(2.87083 -0.131647 0)
(3 1.9022e-09 0)
(3 -2.78289e-12 0)
(3 1.62477e-15 0)
(3 -1.57487e-16 0)
(3 -1.46244e-15 0)
(3 -2.5025e-15 0)
(3 -2.4574e-15 0)
(3 -2.36296e-15 0)
(3 -3.18461e-15 0)
(3 -2.94968e-15 0)
(3 -2.26657e-15 0)
(3 -3.25369e-16 0)
(3 2.34084e-15 0)
(3 2.50812e-15 0)
(3 3.26957e-15 0)
(3 3.00485e-15 0)
(1.57857 -1.32114 0)
(1.50384 -1.32173 0)
(1.76874 -1.1894 0)
(2.42713 -0.54926 0)
(3 9.58411e-07 0)
(3 -1.77713e-11 0)
(3 -1.99437e-13 0)
(3 2.51282e-14 0)
(3 -6.00132e-15 0)
(3 5.6095e-16 0)
(3 -1.81934e-15 0)
(3 -2.11109e-15 0)
(3 -2.52344e-15 0)
(3 -4.50539e-15 0)
(3 -1.15087e-15 0)
(3 1.21256e-15 0)
(3 1.54302e-15 0)
(3 2.19536e-15 0)
(3 2.71693e-15 0)
(3 2.59014e-15 0)
(1.5833 -1.29238 0)
(1.54806 -1.28236 0)
(1.65024 -1.24459 0)
(2.07212 -0.876147 0)
(3.01075 0.00581135 0)
(3 -5.49271e-12 0)
(3 1.12343e-11 0)
(3 -7.8215e-12 0)
(3 1.28611e-12 0)
(3 -2.15148e-14 0)
(3 5.04643e-18 0)
(3 -8.31138e-16 0)
(3 -1.83041e-15 0)
(3 -4.04258e-15 0)
(3 -6.08485e-16 0)
(3 -2.06161e-16 0)
(3 9.80637e-16 0)
(3 2.12155e-15 0)
(3 2.24568e-15 0)
(3 2.41331e-15 0)
(1.58595 -1.28282 0)
(1.58611 -1.27344 0)
(1.64526 -1.23655 0)
(1.88353 -1.07502 0)
(2.76613 -0.203019 0)
(3 5.83628e-10 0)
(3 -1.41263e-08 0)
(3 1.27647e-08 0)
(3 -5.5599e-10 0)
(3 -3.07446e-12 0)
(3 1.06762e-13 0)
(3 -7.39809e-16 0)
(3 -1.98608e-15 0)
(3 -3.7055e-15 0)
(3 -2.12971e-15 0)
(3 -8.57085e-16 0)
(3 1.28155e-15 0)
(3 2.36108e-15 0)
(3 2.81996e-15 0)
(3 2.31783e-15 0)
(1.58857 -1.26987 0)
(1.60859 -1.26456 0)
(1.63838 -1.25602 0)
(1.71634 -1.20835 0)
(2.33606 -0.638715 0)
(3.02198 0.0199647 0)
(2.99972 -0.000165687 0)
(3 4.36874e-06 0)
(3 -8.4855e-08 0)
(3 8.64262e-10 0)
(3 -8.6018e-13 0)
(3 -5.68728e-16 0)
(3 -2.4314e-15 0)
(3 -3.30643e-15 0)
(3 -1.72153e-15 0)
(3 -7.52675e-16 0)
(3 9.79557e-16 0)
(3 2.3609e-15 0)
(3 2.11113e-15 0)
(3 1.9679e-15 0)
(1.58666 -1.25787 0)
(1.6071 -1.26217 0)
(1.62472 -1.26823 0)
(1.58052 -1.32904 0)
(1.82853 -1.11429 0)
(2.70319 -0.2626 0)
(3.00535 0.00221002 0)
(2.99992 -7.56533e-05 0)
(3 8.21723e-07 0)
(3 -8.12719e-10 0)
(3 1.01164e-12 0)
(3 -1.93237e-15 0)
(3 -2.68683e-15 0)
(3 -2.5328e-15 0)
(3 -4.85617e-16 0)
(3 -6.47022e-16 0)
(3 1.10527e-15 0)
(3 1.8212e-15 0)
(3 1.6722e-15 0)
(3 2.60424e-15 0)
(1.58316 -1.2559 0)
(1.59873 -1.26065 0)
(1.59633 -1.2713 0)
(1.56434 -1.30133 0)
(1.73388 -1.20924 0)
(2.19707 -0.839906 0)
(2.98703 -0.00875709 0)
(3.00029 0.000635374 0)
(3 -6.66494e-07 0)
(3 -5.81389e-11 0)
(3 -1.17904e-13 0)
(3 5.38266e-16 0)
(3 -1.74644e-15 0)
(3 -2.27023e-15 0)
(3 -1.69194e-17 0)
(3 3.78571e-16 0)
(3 1.93363e-15 0)
(3 1.13709e-15 0)
(3 1.84005e-15 0)
(3 1.76153e-15 0)
(1.57501 -1.24804 0)
(1.5881 -1.25911 0)
(1.595 -1.26935 0)
(1.59549 -1.26548 0)
(1.6682 -1.24076 0)
(1.74753 -1.22204 0)
(2.31616 -0.709153 0)
(3.003 -0.00820968 0)
(3 -5.97769e-08 0)
(3 -1.10543e-11 0)
(3 -2.63385e-13 0)
(3 2.13933e-13 0)
(3 -2.90219e-15 0)
(3 -3.22867e-15 0)
(3 -6.79143e-16 0)
(3 5.70187e-18 0)
(3 9.95205e-16 0)
(3 1.51568e-15 0)
(3 2.04382e-15 0)
(3 1.12344e-15 0)
(1.57505 -1.25327 0)
(1.58088 -1.25959 0)
(1.59025 -1.26486 0)
(1.60368 -1.26364 0)
(1.62537 -1.25063 0)
(1.61814 -1.26204 0)
(1.89375 -1.15112 0)
(2.96984 -0.335894 0)
(3.33515 0.56105 0)
(3 -7.42916e-11 0)
(3 8.51151e-11 0)
(3 -8.79109e-11 0)
(3 -8.95236e-15 0)
(3 5.39805e-13 0)
(3 1.65834e-14 0)
(3 -1.69879e-14 0)
(3 8.0799e-15 0)
(3 1.02746e-15 0)
(3 1.65482e-15 0)
(3 3.68266e-15 0)
(1.15816 -0.770546 0)
(1.82729 -1.14411 0)
(1.83945 -1.14538 0)
(1.74333 -1.19266 0)
(1.71767 -1.20226 0)
(1.67267 -1.24489 0)
(1.66324 -1.21728 0)
(1.72713 -1.16531 0)
(1.75364 -1.22615 0)
(1.77759 -1.14111 0)
(2.25695 -0.750944 0)
(2.84826 -0.21957 0)
(3.09481 0.0242048 0)
(3.02061 0.0121979 0)
(3.00444 0.00535048 0)
(3.00185 0.00300333 0)
(3.00006 0.000600292 0)
(2.99998 2.4907e-05 0)
(2.99999 -1.42821e-05 0)
(3 -5.90426e-06 0)
(1.02647 -0.00392604 0)
(1.90297 -0.843054 0)
(2.09693 -0.835886 0)
(2.01525 -0.924166 0)
(1.96584 -0.988728 0)
(1.86606 -1.09988 0)
(1.79418 -1.14332 0)
(1.7606 -1.14675 0)
(1.75642 -1.16286 0)
(1.7308 -1.20479 0)
(1.70996 -1.19885 0)
(1.86315 -1.07462 0)
(2.10555 -0.887828 0)
(2.51128 -0.576393 0)
(2.99003 -0.134728 0)
(3.07364 0.0296671 0)
(3.00808 0.00768934 0)
(3.0029 0.00382671 0)
(3.00122 0.00218586 0)
(3.00008 0.000481728 0)
(1.13888 0.033506 0)
(1.92991 0.227785 0)
(2.24622 -0.237688 0)
(2.22647 -0.548433 0)
(2.20307 -0.604479 0)
(2.15494 -0.737578 0)
(2.04498 -0.894932 0)
(1.95763 -0.982586 0)
(1.89871 -1.04144 0)
(1.84368 -1.13216 0)
(1.78819 -1.16051 0)
(1.79267 -1.15148 0)
(1.81486 -1.12902 0)
(1.85413 -1.08591 0)
(2.04079 -0.950765 0)
(2.25766 -0.830335 0)
(2.66527 -0.504556 0)
(3.03634 -0.0919904 0)
(3.05453 0.0236149 0)
(3.00398 0.00461762 0)
(1.3269 0.571305 0)
(1.82733 1.04426 0)
(2.2147 -0.303053 0)
(2.36513 0.132897 0)
(2.36746 -0.10755 0)
(2.36677 -0.298124 0)
(2.27639 -0.525935 0)
(2.20926 -0.638143 0)
(2.13219 -0.747839 0)
(2.08492 -0.887253 0)
(1.97875 -0.997223 0)
(1.92646 -1.04909 0)
(1.89291 -1.07018 0)
(1.8722 -1.08658 0)
(1.86944 -1.05873 0)
(1.89367 -1.05157 0)
(1.96051 -1.02319 0)
(2.16587 -0.902636 0)
(2.38548 -0.787873 0)
(2.78109 -0.435568 0)
(1.02749 1.05286 0)
(1.69652 1.49582 0)
(2.25142 1.21649 0)
(2.37143 0.172234 0)
(2.44154 -0.210395 0)
(2.46174 0.104333 0)
(2.4637 -0.0464127 0)
(2.3973 -0.287662 0)
(2.33791 -0.413253 0)
(2.30776 -0.565392 0)
(2.2229 -0.723106 0)
(2.14375 -0.842188 0)
(2.0788 -0.915361 0)
(2.01545 -0.98234 0)
(1.97247 -0.993269 0)
(1.9482 -1.00241 0)
(1.95547 -1.01587 0)
(1.97189 -0.99137 0)
(1.99707 -0.990596 0)
(2.06976 -0.975711 0)
(0.993369 1.58085 0)
(1.64036 2.01288 0)
(1.91156 1.73564 0)
(2.09002 0.793792 0)
(2.40778 0.915977 0)
(2.44182 0.207576 0)
(2.53851 0.126967 0)
(2.52582 -0.117209 0)
(2.48769 -0.222177 0)
(2.45535 -0.37104 0)
(2.40253 -0.516883 0)
(2.33287 -0.643531 0)
(2.27458 -0.720039 0)
(2.21058 -0.792061 0)
(2.16488 -0.809738 0)
(2.12972 -0.8182 0)
(2.08829 -0.85335 0)
(2.0696 -0.875461 0)
(2.03306 -0.927256 0)
(2.05525 -0.9559 0)
(1.18673 1.62933 0)
(1.57484 2.2206 0)
(1.74284 1.95792 0)
(1.97127 1.5588 0)
(2.12187 1.58879 0)
(2.32709 0.928582 0)
(2.45431 0.751125 0)
(2.5406 0.521336 0)
(2.52101 0.184502 0)
(2.53865 0.0983285 0)
(2.5244 -0.0874547 0)
(2.49582 -0.22222 0)
(2.458 -0.331095 0)
(2.41292 -0.424346 0)
(2.35244 -0.520642 0)
(2.32927 -0.561128 0)
(2.25249 -0.659818 0)
(2.19577 -0.736145 0)
(2.15734 -0.787956 0)
(2.1384 -0.794009 0)
(1.24797 1.60528 0)
(1.73436 2.37057 0)
(1.86914 2.07851 0)
(1.86131 1.82981 0)
(2.01824 1.69588 0)
(2.20446 1.41325 0)
(2.32492 1.17067 0)
(2.41269 0.966292 0)
(2.45766 0.753862 0)
(2.49493 0.588408 0)
(2.55603 0.393617 0)
(2.5608 0.169238 0)
(2.57116 -0.00518951 0)
(2.53937 -0.1877 0)
(2.48234 -0.3666 0)
(2.45439 -0.445803 0)
(2.3833 -0.560806 0)
(2.35818 -0.533099 0)
(2.31688 -0.563348 0)
(2.32645 -0.516611 0)
(1.19834 1.42197 0)
(1.71009 2.22725 0)
(2.10961 2.30355 0)
(2.09803 2.03032 0)
(2.15212 1.82441 0)
(2.26387 1.60887 0)
(2.39702 1.31647 0)
(2.49088 1.09882 0)
(2.54223 1.0039 0)
(2.59264 0.699579 0)
(2.67305 0.518408 0)
(2.66299 0.242672 0)
(2.67379 0.0777209 0)
(2.63273 -0.106272 0)
(2.59546 -0.223289 0)
(2.56344 -0.258916 0)
(2.53523 -0.259819 0)
(2.53185 -0.195902 0)
(2.4534 -0.313007 0)
(2.47474 -0.281173 0)
(1.09547 1.17417 0)
(1.46963 1.90486 0)
(1.95706 2.27699 0)
(2.28824 2.38616 0)
(2.48443 1.967 0)
(2.48844 1.8734 0)
(2.65661 1.43707 0)
(2.76612 1.17768 0)
(2.82603 1.02724 0)
(2.78318 0.677982 0)
(2.78003 0.599754 0)
(2.75139 0.402563 0)
(2.73545 0.339875 0)
(2.71189 0.226966 0)
(2.6856 0.169973 0)
(2.65578 0.140371 0)
(2.64269 0.120527 0)
(2.61983 0.0308635 0)
(2.55601 -0.150953 0)
(2.56268 -0.15876 0)
(1.08674 1.10921 0)
(1.33162 1.73145 0)
(1.74448 2.09259 0)
(1.97309 2.30199 0)
(2.42552 2.0535 0)
(2.5004 2.01628 0)
(2.55297 1.57947 0)
(2.58742 1.3398 0)
(2.63277 1.24033 0)
(2.66798 1.18625 0)
(2.66695 1.10129 0)
(2.68024 0.914778 0)
(2.65762 0.782931 0)
(2.68408 0.69303 0)
(2.67764 0.536597 0)
(2.69827 0.437855 0)
(2.71295 0.29296 0)
(2.69011 0.0985286 0)
(2.64937 -0.0258456 0)
(2.614 -0.025706 0)
(1.1432 1.07983 0)
(1.25812 1.58511 0)
(1.56148 1.97095 0)
(1.73541 2.10672 0)
(1.90176 2.11973 0)
(2.06337 2.08187 0)
(2.20505 1.78466 0)
(2.3324 1.61125 0)
(2.37047 1.58904 0)
(2.39178 1.54166 0)
(2.47081 1.33772 0)
(2.55308 1.21741 0)
(2.5911 0.989557 0)
(2.70254 0.898861 0)
(2.71598 0.646872 0)
(2.76636 0.496878 0)
(2.76295 0.311683 0)
(2.74306 0.176528 0)
(2.69932 0.254927 0)
(2.66157 0.224946 0)
(1.25281 1.14734 0)
(1.31072 1.51615 0)
(1.42341 1.93878 0)
(1.59327 2.13549 0)
(1.66064 2.17243 0)
(1.79954 2.12109 0)
(1.99832 1.98791 0)
(2.12475 1.78284 0)
(2.18979 1.66975 0)
(2.31552 1.61608 0)
(2.43823 1.37549 0)
(2.60419 1.29069 0)
(2.65638 0.99743 0)
(2.75818 0.890657 0)
(2.77434 0.666989 0)
(2.77534 0.631372 0)
(2.7696 0.554693 0)
(2.74527 0.524038 0)
(2.72408 0.64514 0)
(2.69372 0.492928 0)
(1.39735 1.31214 0)
(1.42234 1.53099 0)
(1.46157 1.93128 0)
(1.54051 2.14279 0)
(1.59075 2.17701 0)
(1.75728 2.10445 0)
(1.91827 2.02406 0)
(2.0824 1.80787 0)
(2.21661 1.69316 0)