# Probe 0 (0 0 0)
#       Probe             0
#        Time
       0.0002             (-1.79769e+307 -1.79769e+307 -1.79769e+307)
       0.0004             (-1.79769e+307 -1.79769e+307 -1.79769e+307)
       0.0006             (-1.79769e+307 -1.79769e+307 -1.79769e+307)
       0.0008             (-1.79769e+307 -1.79769e+307 -1.79769e+307)
        0.001             (-1.79769e+307 -1.79769e+307 -1.79769e+307)
