/*--------------------------------*- C++ -*----------------------------------*\
  =========                 |
  \\      /  F ield         | OpenFOAM: The Open Source CFD Toolbox
   \\    /   O peration     | Website:  https://openfoam.org
    \\  /    A nd           | Version:  7
     \\/     M anipulation  |
\*---------------------------------------------------------------------------*/
FoamFile
{
    version     2.0;
    format      ascii;
    class       volScalarField;
    location    "2.9";
    object      p;
}
// * * * * * * * * * * * * * * * * * * * * * * * * * * * * * * * * * * * * * //

dimensions      [1 -1 -2 0 0 0 0];

internalField   nonuniform List<scalar> 
3700
(
0.115177
0.209115
0.251262
0.301358
0.33308
0.374973
0.409546
0.427017
0.438405
0.447891
0.462164
0.466873
0.460744
0.452987
0.469789
0.478063
0.486046
0.505499
0.515585
0.499699
0.0715506
0.0868889
0.110066
0.129529
0.125821
0.124329
0.127401
0.120426
0.115219
0.123059
0.141116
0.154437
0.163489
0.17045
0.181606
0.194641
0.208468
0.214071
0.205032
0.180108
0.0664623
0.0695733
0.0733967
0.0677919
0.0559503
0.0480955
0.0491677
0.0507605
0.0547023
0.0611813
0.0718503
0.0808695
0.0923375
0.104925
0.112161
0.115864
0.116702
0.116084
0.116084
0.121258
0.0660599
0.0690643
0.0661745
0.0589245
0.0506361
0.0496188
0.0530592
0.0551499
0.0585349
0.0667697
0.0760316
0.0857888
0.098697
0.117007
0.134619
0.151446
0.164031
0.168054
0.167815
0.170227
0.0637627
0.0641397
0.0616769
0.0586429
0.058402
0.0608323
0.0644639
0.0719538
0.0835483
0.101264
0.0942078
0.0976507
0.102422
0.117879
0.140291
0.164303
0.187652
0.207275
0.224739
0.233665
0.0661441
0.0622648
0.0585852
0.0573131
0.0592753
0.0706898
0.0727948
0.0843198
0.109804
0.132055
0.136858
0.146416
0.142267
0.147504
0.153992
0.172339
0.202534
0.240044
0.272805
0.318095
0.0701634
0.0584652
0.0535773
0.0529997
0.0548513
0.0710962
0.076246
0.092405
0.125736
0.149876
0.17435
0.19261
0.207605
0.224932
0.228759
0.239008
0.251079
0.277883
0.321472
0.405309
0.0715351
0.048738
0.0434908
0.0478079
0.0512585
0.0679031
0.0781209
0.0969066
0.130509
0.160273
0.196685
0.224665
0.263607
0.295118
0.324816
0.352141
0.375242
0.396946
0.427211
0.529079
0.0666616
0.0404752
0.0384723
0.0474582
0.0600366
0.0734965
0.0908707
0.11806
0.139304
0.165871
0.209829
0.248251
0.306119
0.354743
0.407347
0.461109
0.511232
0.559597
0.597424
0.725581
0.0617054
0.0375993
0.0393479
0.0594191
0.0847248
0.100476
0.130266
0.178137
0.2095
0.233101
0.26698
0.309258
0.367147
0.428516
0.496909
0.57988
0.668894
0.754139
0.834056
0.956882
0.0578201
0.0362724
0.0444489
0.0669271
0.0947746
0.121442
0.173759
0.232101
0.290627
0.364856
0.42449
0.485958
0.546669
0.608531
0.666049
0.746448
0.863816
0.982069
1.17324
1.14623
0.0505966
0.0327289
0.041862
0.0570259
0.0875883
0.123139
0.194925
0.250699
0.336448
0.46616
0.567539
0.672922
0.775357
0.868456
0.956423
1.05906
1.17969
1.31086
1.54845
1.52044
0.0386426
0.0242114
0.0270725
0.0423769
0.0724932
0.117422
0.192484
0.253729
0.376704
0.555889
0.72229
0.88288
1.04068
1.17705
1.3351
1.50161
1.66386
1.82698
2.08992
2.08358
0.0282089
0.0176139
0.0191673
0.0403817
0.0706074
0.154337
0.273989
0.446706
0.686364
0.899299
1.101
1.28086
1.46312
1.63637
1.8637
2.10553
2.34262
2.58216
2.78837
3.00647
0.0198224
0.0150156
0.0174412
0.0524703
0.126115
0.392225
0.647717
0.936213
1.255
1.54453
1.76809
1.97712
2.19307
2.41795
2.70995
2.99003
3.26186
3.49703
3.6461
3.77861
0.00900292
0.0165381
0.0296657
0.150608
0.398565
0.774611
1.14531
1.53741
1.95493
2.32459
2.59709
2.86719
3.14288
3.44031
3.7647
3.98011
4.10056
4.1356
4.04029
3.91098
0.00615574
0.0308062
0.14569
0.426865
0.953773
1.44734
1.95746
2.53321
3.14978
3.52058
3.74476
3.98482
4.19958
4.37103
4.46565
4.39194
4.17638
3.64302
2.78761
1.88808
0.0331849
0.169471
0.554381
1.19679
2.04844
2.88094
3.57656
4.26369
4.77826
4.84027
4.73834
4.74005
4.70042
4.53615
4.02753
3.06802
2.09034
1.33103
1.01798
0.992917
0.309258
0.859629
1.94561
3.21055
4.23648
4.88014
5.43341
5.9128
5.76904
5.30303
4.85657
4.32057
3.40693
2.33562
1.42922
1.03005
0.989418
0.994953
0.997336
0.999444
2.32764
3.66117
4.93331
5.74594
6.22619
6.49871
6.60505
6.26648
4.54984
3.20943
2.3797
1.57676
1.08563
0.987566
0.992999
0.996307
0.999155
0.999972
1.00002
1.00001
6.99495
6.93424
6.88405
6.92205
7.03025
6.88435
6.00423
2.2096
0.662275
1
1
1
1
1
1
1
1
1
1
1
6.92014
6.87765
6.76959
6.67778
6.85311
5.80109
2.55177
1.00709
1
1
1
1
1
1
1
1
1
1
1
1
6.7652
6.83025
6.75477
6.55271
6.32231
3.38742
1.05545
0.99907
1
1
1
1
1
1
1
1
1
1
1
1
6.63802
6.81774
6.81872
6.48661
4.79733
1.43473
0.993597
1.00011
0.999999
1
1
1
1
1
1
1
1
1
1
1
6.50618
6.82039
6.84499
6.17172
2.72081
0.97488
1.00037
0.999994
1
1
1
1
1
1
1
1
1
1
1
1
6.41396
6.76585
6.82889
4.97314
1.37217
1
1
1
1
1
1
1
1
1
1
1
1
1
1
1
6.37555
6.67054
6.59173
3.47206
0.977002
1
1
1
1
1
1
1
1
1
1
1
1
1
1
1
6.47684
6.65774
6.07829
2.04487
1
1
1
1
1
1
1
1
1
1
1
1
1
1
1
1
6.93206
6.70233
4.92719
1.17945
1
1
1
1
1
1
1
1
1
1
1
1
1
1
1
1
7.23438
6.36315
3.54027
0.987422
1
1
1
1
1
1
1
1
1
1
1
1
1
1
1
1
7.45908
6.05471
2.29556
1
1
1
1
1
1
1
1
1
1
1
1
1
1
1
1
1
7.52999
5.3833
1.59213
1
1
1
1
1
1
1
1
1
1
1
1
1
1
1
1
1
7.56977
4.70589
1.15395
1
1
1
1
1
1
1
1
1
1
1
1
1
1
1
1
1
7.37163
3.97774
1.00044
1
1
1
1
1
1
1
1
1
1
1
1
1
1
1
1
1
7.12759
3.26103
1
1
1
1
1
1
1
1
1
1
1
1
1
1
1
1
1
1
6.98276
2.53688
1
1
1
1
1
1
1
1
1
1
1
1
1
1
1
1
1
1
6.70643
1.85727
1
1
1
1
1
1
1
1
1
1
1
1
1
1
1
1
1
1
6.28472
1.34372
1
1
1
1
1
1
1
1
1
1
1
1
1
1
1
1
1
1
5.73533
1.00518
1
1
1
1
1
1
1
1
1
1
1
1
1
1
1
1
1
1
4.64475
1.0001
1
1
1
1
1
1
1
1
1
1
1
1
1
1
1
1
1
1
4.64346
1.0001
1
1
1
1
1
1
1
1
1
1
1
1
1
1
1
1
1
1
5.74237
1.00526
1
1
1
1
1
1
1
1
1
1
1
1
1
1
1
1
1
1
6.28314
1.3458
1
1
1
1
1
1
1
1
1
1
1
1
1
1
1
1
1
1
6.69889
1.85413
1
1
1
1
1
1
1
1
1
1
1
1
1
1
1
1
1
1
6.98431
2.52968
1
1
1
1
1
1
1
1
1
1
1
1
1
1
1
1
1
1
7.13186
3.25566
1
1
1
1
1
1
1
1
1
1
1
1
1
1
1
1
1
1
7.37368
3.97871
1.00073
1
1
1
1
1
1
1
1
1
1
1
1
1
1
1
1
1
7.56924
4.71067
1.15458
1
1
1
1
1
1
1
1
1
1
1
1
1
1
1
1
1
7.52885
5.38499
1.59522
1
1
1
1
1
1
1
1
1
1
1
1
1
1
1
1
1
7.4577
6.05452
2.29832
1
1
1
1
1
1
1
1
1
1
1
1
1
1
1
1
1
7.23387
6.36295
3.54041
0.987426
1
1
1
1
1
1
1
1
1
1
1
1
1
1
1
1
6.9345
6.70428
4.92978
1.17897
1
1
1
1
1
1
1
1
1
1
1
1
1
1
1
1
6.47932
6.6545
6.06933
2.04595
1
1
1
1
1
1
1
1
1
1
1
1
1
1
1
1
6.37821
6.6763
6.59976
3.47279
0.975799
1
1
1
1
1
1
1
1
1
1
1
1
1
1
1
6.41832
6.77349
6.82816
4.96494
1.37652
1
1
1
1
1
1
1
1
1
1
1
1
1
1
1
6.50616
6.81508
6.83936
6.17589
2.7215
0.974879
1.00036
0.999994
1
1
1
1
1
1
1
1
1
1
1
1
6.63546
6.81192
6.81161
6.48481
4.79307
1.43595
0.993616
1.00011
0.999999
1
1
1
1
1
1
1
1
1
1
1
6.76389
6.82992
6.75701
6.55222
6.31869
3.38252
1.05425
0.999089
1
1
1
1
1
1
1
1
1
1
1
1
6.92141
6.87854
6.77289
6.67852
6.85322
5.8026
2.55106
1.00718
1
1
1
1
1
1
1
1
1
1
1
1
6.99426
6.9328
6.88387
6.92469
7.03352
6.88286
6.00395
2.21327
0.661295
1
1
1
1
1
1
1
1
1
1
1
2.32729
3.65426
4.91994
5.74207
6.23325
6.50196
6.60581
6.26776
4.55074
3.20997
2.38056
1.5777
1.08609
0.98755
0.993018
0.996323
0.999157
0.999972
1.00002
1.00001
0.314723
0.880535
1.96736
3.20494
4.22399
4.87573
5.43602
5.91574
5.77108
5.3039
4.85707
4.32167
3.40861
2.33692
1.42995
1.03023
0.989423
0.994954
0.997338
0.999444
0.0254713
0.155605
0.551843
1.20596
2.05453
2.87721
3.57052
4.26158
4.77729
4.84048
4.73808
4.73881
4.69905
4.53501
4.02705
3.06787
2.09025
1.33098
1.01798
0.992918
0.00608159
0.0198513
0.153447
0.445821
0.956852
1.44502
1.95427
2.52847
3.1452
3.51777
3.74351
3.98435
4.19861
4.36929
4.4643
4.39079
4.17564
3.64267
2.78777
1.88841
0.00935367
0.013336
0.0316258
0.149467
0.416359
0.780283
1.14366
1.53493
1.95274
2.32203
2.59476
2.86477
3.14062
3.43821
3.7629
3.97909
4.10063
4.13654
4.04134
3.91196
0.0162786
0.0138611
0.0155762
0.0467637
0.129215
0.402429
0.654235
0.940152
1.25833
1.54746
1.76993
1.9783
2.19354
2.41757
2.70849
2.98862
3.26162
3.49774
3.64718
3.77942
0.0249647
0.0159294
0.0167854
0.0387028
0.0647365
0.155409
0.280011
0.454545
0.693352
0.906994
1.1083
1.28619
1.46597
1.63723
1.86344
2.10506
2.34242
2.58225
2.78847
3.00684
0.0396187
0.0216409
0.0211626
0.0410512
0.0663621
0.112574
0.187658
0.253187
0.379466
0.558206
0.724454
0.884514
1.04201
1.17827
1.33637
1.50265
1.66489
1.8282
2.09124
2.08481
0.0561812
0.0322948
0.0341595
0.0570137
0.0820204
0.118506
0.191137
0.24768
0.33518
0.466006
0.567342
0.673031
0.775511
0.868608
0.956542
1.05903
1.17923
1.31032
1.54802
1.51958
0.0640549
0.0383609
0.04183
0.0693748
0.0931544
0.117321
0.17155
0.229035
0.289005
0.36512
0.425162
0.486341
0.546886
0.608241
0.664859
0.74439
0.861674
0.980628
1.17236
1.14599
0.0654948
0.0380681
0.0373732
0.0625062
0.0850565
0.0972249
0.128984
0.176676
0.210052
0.23323
0.267262
0.308887
0.365289
0.426041
0.494538
0.578137
0.667871
0.753769
0.834126
0.957124
0.0670221
0.0384799
0.034944
0.0477192
0.0623332
0.0708978
0.088828
0.1172
0.140287
0.166141
0.208652
0.246695
0.304283
0.352912
0.405958
0.46023
0.510745
0.559315
0.597234
0.725578
0.0682734
0.0424863
0.0365608
0.0460776
0.0536424
0.0675978
0.078918
0.0983657
0.131133
0.160404
0.196395
0.224512
0.263694
0.295236
0.325256
0.352675
0.37601
0.397593
0.427697
0.528796
0.0679469
0.0521075
0.0451712
0.0501268
0.0566419
0.0711533
0.0786915
0.094894
0.125561
0.149942
0.175017
0.193818
0.209799
0.22766
0.231061
0.241038
0.252788
0.27805
0.320372
0.403696
0.0664801
0.0579552
0.0540084
0.0569182
0.0609083
0.0713294
0.0748758
0.0858782
0.109013
0.131753
0.139303
0.149548
0.144924
0.149732
0.154947
0.171834
0.201012
0.238292
0.271234
0.317346
0.0660216
0.0597074
0.0602796
0.058881
0.0600119
0.0617431
0.0628839
0.0705379
0.0834096
0.102896
0.0964595
0.0994035
0.103214
0.11778
0.13987
0.16339
0.186225
0.205859
0.223657
0.233794
0.0718838
0.0666545
0.0646881
0.0576749
0.0501569
0.0483109
0.0505309
0.0527785
0.057602
0.0675144
0.0766688
0.0862949
0.098905
0.117013
0.134534
0.150916
0.163121
0.167552
0.167562
0.170087
0.0695757
0.0678776
0.07112
0.0662689
0.055318
0.0480291
0.0486126
0.0502391
0.054428
0.0615652
0.0720979
0.0810819
0.0925421
0.105146
0.112441
0.115945
0.116332
0.115662
0.115855
0.120371
0.0712224
0.075415
0.0931481
0.110433
0.12514
0.130459
0.129878
0.134226
0.13807
0.136945
0.139583
0.15064
0.17358
0.202591
0.224391
0.21578
0.192627
0.188411
0.196593
0.214123
0.109985
0.187005
0.239585
0.287657
0.333528
0.380828
0.413681
0.433212
0.456127
0.458189
0.462699
0.472206
0.471923
0.471219
0.479063
0.478564
0.475677
0.498676
0.530329
0.545372
0.566646
0.637836
0.694163
0.821738
0.831277
0.844834
0.837679
0.84327
0.874418
0.925063
0.943771
0.936215
0.904587
0.874294
0.863383
0.863615
0.87072
0.865069
0.857803
0.830654
0.279479
0.430645
0.541537
0.689846
0.7694
0.838161
0.845078
0.846348
0.87289
0.919741
0.941636
0.936835
0.91714
0.887626
0.866746
0.858851
0.860663
0.857758
0.856148
0.84228
0.137844
0.167749
0.239287
0.326129
0.515229
0.696487
0.769822
0.845024
0.880157
0.903738
0.921059
0.9166
0.912139
0.906066
0.885867
0.860282
0.843829
0.838021
0.84147
0.8434
0.187741
0.214804
0.230846
0.241002
0.258802
0.336291
0.545012
0.746332
0.816908
0.872163
0.907066
0.904565
0.912721
0.916877
0.905283
0.875203
0.837477
0.823562
0.82962
0.839365
0.236526
0.257383
0.269983
0.284884
0.299302
0.301043
0.322772
0.4303
0.627587
0.788966
0.847398
0.88696
0.914283
0.927929
0.91677
0.888038
0.840093
0.818278
0.822603
0.835761
0.316253
0.320962
0.333295
0.328701
0.328416
0.334432
0.348837
0.344115
0.374315
0.493092
0.688833
0.819736
0.894104
0.917883
0.910882
0.889624
0.853403
0.819312
0.821483
0.836316
0.410515
0.405607
0.385312
0.36039
0.361335
0.369834
0.383194
0.390906
0.386929
0.375612
0.44842
0.648064
0.800027
0.883455
0.900895
0.885664
0.862461
0.834619
0.823347
0.825949
0.527822
0.505711
0.465463
0.413975
0.397317
0.400889
0.420334
0.427084
0.420041
0.406543
0.388635
0.442949
0.6137
0.77389
0.841242
0.868088
0.866885
0.852627
0.826848
0.81649
0.679676
0.621988
0.546554
0.482103
0.448102
0.450097
0.456996
0.46028
0.457767
0.443527
0.422345
0.407448
0.429798
0.560286
0.721168
0.839821
0.863494
0.852057
0.829846
0.809119
0.862192
0.767283
0.678
0.578979
0.514385
0.499464
0.493594
0.488834
0.491383
0.479505
0.459663
0.439347
0.427112
0.432592
0.519882
0.690552
0.819336
0.847691
0.829272
0.801139
1.24767
0.949984
0.832963
0.747759
0.64813
0.562541
0.534223
0.540184
0.54764
0.539215
0.520893
0.491007
0.464743
0.435717
0.439763
0.478484
0.599606
0.780197
0.805746
0.803421
2.04957
1.45987
1.12558
1.00512
0.920357
0.793622
0.660007
0.619718
0.607538
0.585797
0.571329
0.558075
0.531362
0.504037
0.472471
0.452959
0.461199
0.527061
0.655521
0.772588
2.50088
2.18157
1.71512
1.31167
1.10741
0.985698
0.842215
0.723869
0.678549
0.659923
0.659485
0.654981
0.626169
0.581754
0.543679
0.493691
0.463465
0.463268
0.484189
0.616719
2.36557
2.34907
2.24177
1.93147
1.5276
1.26608
1.10806
0.978438
0.871195
0.789194
0.756977
0.725314
0.676582
0.624924
0.596958
0.563653
0.513465
0.48028
0.470084
0.487714
1.68137
2.15415
2.22046
2.19078
2.05275
1.7676
1.49139
1.26109
1.09224
0.940436
0.848313
0.786939
0.732162
0.714549
0.701984
0.665008
0.607846
0.557293
0.500013
0.482946
1.10883
1.43941
1.84873
2.11323
2.11204
2.07378
1.93874
1.68389
1.43594
1.2443
1.08866
0.96544
0.897163
0.847635
0.79841
0.736323
0.669334
0.613138
0.560351
0.519572
1.00453
1.04438
1.20573
1.55058
1.86054
2.01922
2.01565
1.97153
1.8334
1.63318
1.40291
1.21209
1.08603
0.968209
0.857223
0.797755
0.762063
0.722921
0.668839
0.590537
1.00009
1.00112
1.01047
1.07885
1.26986
1.56875
1.82627
1.93338
1.92648
1.8872
1.76809
1.57875
1.39303
1.21879
1.04743
0.974239
0.898072
0.821892
0.776968
0.699631
1
1.00001
1.00015
1.00251
1.01909
1.0996
1.28911
1.55586
1.76345
1.85788
1.85327
1.81866
1.71246
1.54996
1.36547
1.20251
1.05719
0.904718
0.843941
0.776331
1
1
1
1.00003
1.00032
1.00394
1.02382
1.10868
1.2864
1.5184
1.70695
1.78943
1.78182
1.74755
1.65836
1.5038
1.34666
1.18704
1.04864
0.907649
1
1
1
1
1
1.00005
1.00047
1.00475
1.02668
1.10502
1.26358
1.47717
1.64303
1.71225
1.69847
1.65709
1.58727
1.46459
1.33226
1.14799
1
1
1
1
1
1
1
1.00006
1.00059
1.00474
1.02519
1.09512
1.2389
1.41924
1.55823
1.6115
1.58955
1.5473
1.4891
1.36907
1
1
1
1
1
1
1
1
1.00001
1.00006
1.0006
1.00423
1.02297
1.08019
1.19149
1.33018
1.43954
1.48252
1.4697
1.4035
1
1
1
1
1
1
1
1
1
1
1.00001
1.00006
1.00053
1.00336
1.01656
1.05312
1.12617
1.21808
1.29181
1.31535
1
1
1
1
1
1
1
1
1
1
1
1
1.00001
1.00004
1.00034
1.00191
1.00852
1.02625
1.06096
1.11544
1.62523
2.46679
2.58406
2.08528
1.31036
1.03715
1.00189
1.00005
1
1
1
1
1
1
1
2.34978
2.82161
2.52925
1.54158
1.04836
1.00081
1
1
1
1
1
1
1
1
1
2.93797
2.87585
1.98258
1.15182
1.00516
1.00005
1
1
1
1
1
1
1
1
1
3.25679
2.55631
1.36279
1.01913
1.00018
1
1
1
1
1
1
1
1
1
1
3.31997
1.68318
1.04721
1.00051
1
1
1
1
1
1
1
1
1
1
1
2.06497
1.07282
1.00047
0.999999
1
1
1
1
1
1
1
1
1
1
1
1.10159
1.00055
0.999997
1
1
1
1
1
1
1
1
1
1
1
1
0.998157
0.999866
0.999996
1
1
1
1
1
1
1
1
1
1
1
1
0.999967
1
1
1
1
1
1
1
1
1
1
1
1
1
1
1
1
1
1
1
1
1
1
1
1
1
1
1
1
1
1
1
1
1
1
1
1
1
1
1
1
1
1
1
1
1
1
1
1
1
1
1
1
1
1
1
1
1
1
1
1
1
1
1
1
1
1
1
1
1
1
1
1
1
1
1
1
1
1
1
1
1
1
1
1
1
1
1
1
1
1
1
1
1
1
1
1
1
1
1
1
1
1
1
1
1
1
1
1
1
1
1
1
1
1
1
1
1
1
1
1
1
1
1
1
1
1
1
1
1
1
1
1
1
1
1
1
1
1
1
1
1
1
1
1
1
1
1
1
1
1
1
1
1
1
1
1
1
1
1
1
1
1
1
1
1
1
1
1
1
1
1
1
1
1
1
1
1
1
1
1
1
1
1
1
1
1
1
1
1
1
1
1
1
1
1
1
1
1
1
1
1
1
1
1
1
1
1
1
1
1
1
1
1
1
1
1
1
1
1
1
1
1
1
1
1
1
1
1
1
1
1
1
1
1
1
1
1
1
1
1
1
1
1
1
1
1
1
1
1
1
1
1
1
1
1
1
1
1
1
1
1
1
1
1
1
1
1
1
1
1
1
1
1
1
1
1
1
1
1
1
1
1
1
1
1
1
1
1
1
1
1
1
1
1
1
1
1
1
1
1
1
1
1
1
1
1
1
1
1
1
1
1
1
1
1
1
1
1
1
1
1
1
1
1
1
1
1
1
1
1
1
1
1
1
1
1
1
1
1
1
1
1
1
1
1
1
1
1
1
1
1
1
1
1
1
1
1
1
1
1
1
1
1
1
1
1
1
1
1
1
1
1
1
1
1
1
1
1
1
1
1
1
1
1
1
1
1
1
1
1
1
1
1
1
1
1
1
1
1
1
1
1
1
1
1
1
1
1
1
1
1
1
1
1
1
1
1
1
1
1
1
1
1
1
1
1
1
1
1
1
1
1
1
1
1
1
1
1
1
1
1
1
1
1
1
1
1
1
1
1
1
1
1
1
1
1
1
1
1
1
1
1
1
1
1
1
1
1
1
1
1
1
1
1
1
1
1
1
1
1
1
1
1
1
1
1
1
1
1
1
1
1
1
1
1
1
1
1
1
1
1
1
1
1
1
1
1
1
1
1
1
1
1
1
1
1
1
1
1
1
1
1
1
1
1
1
1
1
1
1
1
1
1
1
1
1
1
1
1
1
1
1
1
1
1
1
1
1
1
1
1
1
1
1
1
1
1
1
1
1
1
1
1
1
1
1
1
1
1
1
1
1
1
1
1
1
1
1
1
1
1
1
1
1
1
1
1
1
1
1
1
1
1
1
1
1
1
1
1
1
1
1
1
1
1
1
1
1
1
1
1
1
1
1
1
1
1
1
1
1
1
1
1
1
1
1
1
1
1
1
1
1
1
1
1
1
1
1
1
1
1
1
1
1
1
1
1
1
1
1
1
1
1
1
1
1
1
1
1
1
1
1
1
1
1
1
1
1
1
1
1
1
1
1
1
1
1
1
1
1
1
1
1
1
1
1
1
1
1
1
1
1
1
1
1
1
1
1
1
1
1
1
1
1
1
1
1
1
1
1
1
1
1
1
1
1
1
1
1
1
1
1
1
1
1
1
1
1
1
1
1
1
1
1
1
1
1
1
1
1
1
1
1
1
1
1
1
1
1
1
1
1
1
1
1
1
1
1
1
1
1
1
1
1
1
1
1
1
1
1
1
1
1
1
1
1
1
1
1
1
1
1
1
1
1
1
1
1
1
1
1
1
1
1
1
1
1
1
1
1
1
1
1
1
1
1
1
1
1
1
1
1
1
1
1
1
1
1
1
1
1
1
1
1
1
1
1
1
1
1
1
1
1
1
1
1
1
1
1
1
1
1
1
1
0.999967
1
1
1
1
1
1
1
1
1
1
1
1
1
1
0.998158
0.999867
0.999996
1
1
1
1
1
1
1
1
1
1
1
1
1.10162
1.00055
0.999997
1
1
1
1
1
1
1
1
1
1
1
1
2.06501
1.07277
1.00047
0.999999
1
1
1
1
1
1
1
1
1
1
1
3.32027
1.68309
1.04718
1.00051
1
1
1
1
1
1
1
1
1
1
1
3.25691
2.55602
1.36269
1.01915
1.00019
1
1
1
1
1
1
1
1
1
1
2.93827
2.87581
1.98231
1.15174
1.00516
1.00005
1
1
1
1
1
1
1
1
1
2.34967
2.82171
2.52934
1.54148
1.04833
1.00081
1
1
1
1
1
1
1
1
1
1.6253
2.46679
2.5841
2.08532
1.31034
1.03716
1.0019
1.00005
1
1
1
1
1
1
1
1.24692
2.04991
2.5007
2.36553
1.68139
1.10886
1.00453
1.00009
1
1
1
1
1
1
1
0.949381
1.46144
2.1818
2.34912
2.15447
1.43949
1.04437
1.00112
1.00001
1
1
1
1
1
1
0.832634
1.12291
1.71537
2.24191
2.22057
1.84876
1.20571
1.01047
1.00015
1
1
1
1
1
1
0.747362
1.0026
1.31135
1.93189
2.19074
2.11321
1.55059
1.07886
1.00251
1.00003
1
1
1
1
1
0.648445
0.919847
1.1068
1.5281
2.05279
2.11201
1.86057
1.26987
1.01909
1.00032
1
1
1
1
1
0.563957
0.795882
0.98536
1.26537
1.76729
2.07371
2.01914
1.56877
1.09961
1.00394
1.00005
1
1
1
1
0.534579
0.662602
0.84295
1.10753
1.49106
1.93864
2.01557
1.82615
1.2891
1.02382
1.00047
1
1
1
1
0.539846
0.619569
0.723834
0.979126
1.26143
1.68376
1.97143
1.93336
1.55581
1.10867
1.00474
1.00006
1
1
1
0.547132
0.606754
0.678186
0.871536
1.09205
1.43619
1.83354
1.92651
1.76349
1.28636
1.02667
1.00059
1.00001
1
1
0.538726
0.58521
0.660226
0.789333
0.939816
1.24455
1.63335
1.88727
1.85794
1.51844
1.10502
1.00474
1.00006
1
1
0.520579
0.570812
0.659786
0.757078
0.848052
1.08865
1.40285
1.76818
1.85329
1.70697
1.26362
1.0252
1.0006
1.00001
1
0.491237
0.557546
0.654901
0.72517
0.78692
0.965756
1.21202
1.57865
1.81865
1.78943
1.4772
1.09515
1.00423
1.00006
1
0.465651
0.53093
0.62593
0.676226
0.731885
0.897177
1.08613
1.3929
1.71241
1.78183
1.64304
1.23892
1.02297
1.00053
1.00001
0.4362
0.50405
0.582188
0.624766
0.713775
0.847511
0.968461
1.21878
1.54992
1.74756
1.71229
1.41926
1.08019
1.00336
1.00004
0.439989
0.472286
0.544283
0.597255
0.701718
0.798265
0.857462
1.04773
1.3654
1.65848
1.69853
1.55828
1.19149
1.01656
1.00034
0.478103
0.452605
0.494154
0.564386
0.665341
0.736271
0.797317
0.974521
1.20256
1.50384
1.65716
1.61156
1.3302
1.05312
1.00191
0.597548
0.460513
0.462702
0.51404
0.608497
0.669381
0.761483
0.89816
1.05793
1.34676
1.58734
1.5896
1.43957
1.12618
1.00852
0.778468
0.526367
0.46274
0.479809
0.557571
0.613519
0.722628
0.821399
0.904994
1.18735
1.46473
1.54733
1.48254
1.21808
1.02625
0.807272
0.657151
0.484243
0.469687
0.499329
0.560093
0.669838
0.776605
0.843069
1.04908
1.33224
1.48911
1.4697
1.29181
1.06096
0.80483
0.774238
0.617514
0.487456
0.482691
0.518923
0.591297
0.700168
0.77583
0.907691
1.14794
1.36903
1.40348
1.31534
1.11544
0.862094
0.76654
0.678276
0.582382
0.517501
0.500894
0.494356
0.48865
0.490688
0.478983
0.459634
0.439968
0.427516
0.432855
0.519781
0.689215
0.821043
0.84774
0.828611
0.801151
0.679407
0.622213
0.546059
0.482117
0.446759
0.449427
0.456932
0.459793
0.45766
0.443546
0.422657
0.407688
0.42928
0.558593
0.72152
0.838505
0.863832
0.85216
0.826706
0.806973
0.527228
0.505301
0.465435
0.414373
0.398717
0.401023
0.418941
0.426519
0.420021
0.407163
0.389082
0.44243
0.611766
0.772229
0.841547
0.869422
0.867313
0.851836
0.823531
0.813846
0.410221
0.404988
0.38676
0.362186
0.362527
0.371019
0.383819
0.391177
0.387588
0.376476
0.449417
0.647986
0.797825
0.88112
0.900703
0.886642
0.863496
0.834324
0.820559
0.823572
0.315762
0.321874
0.332132
0.32779
0.325281
0.331428
0.34784
0.34399
0.374703
0.495097
0.690029
0.819949
0.893144
0.917705
0.910822
0.890431
0.855475
0.819116
0.819888
0.835099
0.236959
0.256725
0.276561
0.288413
0.300154
0.301213
0.322182
0.426828
0.625831
0.7903
0.848617
0.887266
0.913581
0.927411
0.916605
0.888371
0.841474
0.818551
0.822658
0.836391
0.18773
0.215499
0.223628
0.234714
0.257623
0.338898
0.545492
0.743615
0.816394
0.873157
0.907357
0.905518
0.913212
0.916478
0.904545
0.874435
0.836708
0.823282
0.830343
0.841199
0.138118
0.157472
0.231603
0.331757
0.522942
0.703046
0.772693
0.843232
0.879243
0.902809
0.921038
0.918383
0.915057
0.907022
0.886316
0.861653
0.844549
0.837639
0.841456
0.845071
0.298285
0.402722
0.540437
0.679059
0.77678
0.84361
0.848225
0.845309
0.865759
0.914084
0.939381
0.936006
0.918981
0.888793
0.863688
0.853268
0.856126
0.856124
0.855968
0.845004
0.563599
0.623377
0.6978
0.816961
0.837178
0.863319
0.845159
0.844574
0.871773
0.929696
0.957276
0.950835
0.918124
0.876142
0.860998
0.860788
0.871543
0.870041
0.864486
0.83568
)
;

boundaryField
{
    inlet
    {
        type            fixedValue;
        value           uniform 1;
    }
    outlet
    {
        type            zeroGradient;
    }
    airfoil
    {
        type            zeroGradient;
    }
    top
    {
        type            symmetryPlane;
    }
    bottom
    {
        type            symmetryPlane;
    }
    defaultFaces
    {
        type            empty;
    }
}


// ************************************************************************* //
