/*--------------------------------*- C++ -*----------------------------------*\
  =========                 |
  \\      /  F ield         | OpenFOAM: The Open Source CFD Toolbox
   \\    /   O peration     | Website:  https://openfoam.org
    \\  /    A nd           | Version:  7
     \\/     M anipulation  |
\*---------------------------------------------------------------------------*/
FoamFile
{
    version     2.0;
    format      ascii;
    class       volVectorField;
    location    "2.9";
    object      U;
}
// * * * * * * * * * * * * * * * * * * * * * * * * * * * * * * * * * * * * * //

dimensions      [0 1 -1 0 0 0 0];

internalField   nonuniform List<vector> 
3700
(
(1.49251 -0.370661 0)
(1.37889 -0.511878 0)
(1.36251 -0.259475 0)
(1.42497 -0.250103 0)
(1.55212 -0.270625 0)
(1.60856 -0.210437 0)
(1.62409 -0.181687 0)
(1.57895 -0.203669 0)
(1.57766 -0.265881 0)
(1.55076 -0.261692 0)
(1.53415 -0.213707 0)
(1.60726 -0.190662 0)
(1.65329 -0.220627 0)
(1.69664 -0.287223 0)
(1.72165 -0.288383 0)
(1.70915 -0.229607 0)
(1.72279 -0.130477 0)
(1.7755 -0.0646401 0)
(1.84379 -0.0869434 0)
(1.92254 -0.245276 0)
(1.92174 -1.40272 0)
(1.76288 -1.34289 0)
(1.74627 -1.14433 0)
(1.89605 -1.13231 0)
(1.96253 -1.34375 0)
(1.89401 -1.3711 0)
(1.82738 -1.36618 0)
(1.81818 -1.46193 0)
(1.84216 -1.61653 0)
(1.82284 -1.52359 0)
(1.80948 -1.50124 0)
(1.91022 -1.39225 0)
(2.02449 -1.39691 0)
(2.11816 -1.41218 0)
(2.1702 -1.34598 0)
(2.17816 -1.19985 0)
(2.21299 -1.06554 0)
(2.25677 -0.961608 0)
(2.33145 -0.972351 0)
(2.4721 -1.21645 0)
(1.73496 -1.39564 0)
(1.80603 -1.41952 0)
(1.85931 -1.59075 0)
(1.90752 -1.86405 0)
(1.87783 -2.13829 0)
(1.89551 -2.31223 0)
(1.9414 -2.32254 0)
(2.00239 -2.24769 0)
(2.00314 -2.23542 0)
(2.08398 -2.11527 0)
(2.08284 -2.14704 0)
(2.17557 -2.01375 0)
(2.23368 -1.93802 0)
(2.29905 -1.88927 0)
(2.38148 -1.81108 0)
(2.49717 -1.76074 0)
(2.5835 -1.68039 0)
(2.66748 -1.61069 0)
(2.71764 -1.54762 0)
(2.71744 -1.53976 0)
(1.54041 -1.39044 0)
(1.6531 -1.56898 0)
(1.74303 -1.90378 0)
(1.72974 -2.19724 0)
(1.72068 -2.2984 0)
(1.77217 -2.27178 0)
(1.94715 -2.23696 0)
(2.09065 -1.98546 0)
(2.13672 -1.99737 0)
(2.3368 -1.93223 0)
(2.35168 -1.9648 0)
(2.39132 -1.88519 0)
(2.40355 -1.83517 0)
(2.3812 -1.82273 0)
(2.42315 -1.72361 0)
(2.50443 -1.64461 0)
(2.55365 -1.50988 0)
(2.6474 -1.42068 0)
(2.73 -1.27651 0)
(2.83781 -1.16146 0)
(1.40038 -1.34467 0)
(1.57633 -1.64395 0)
(1.69934 -2.04357 0)
(1.6758 -2.30436 0)
(1.64202 -2.36366 0)
(1.81682 -2.25272 0)
(1.9398 -2.15916 0)
(2.0603 -1.89993 0)
(2.11171 -1.86336 0)
(2.2943 -1.86113 0)
(2.46069 -1.67506 0)
(2.54438 -1.63218 0)
(2.59209 -1.53994 0)
(2.55535 -1.56498 0)
(2.57351 -1.51054 0)
(2.57121 -1.52375 0)
(2.5782 -1.39516 0)
(2.6064 -1.31398 0)
(2.67528 -1.28774 0)
(2.76279 -1.05419 0)
(1.32604 -1.35716 0)
(1.54432 -1.80649 0)
(1.74407 -2.15762 0)
(1.80166 -2.37239 0)
(1.90433 -2.37382 0)
(2.03001 -2.25674 0)
(2.03407 -2.08691 0)
(2.04787 -1.89989 0)
(2.03787 -1.86058 0)
(2.23923 -1.77541 0)
(2.3847 -1.59834 0)
(2.56 -1.55973 0)
(2.64007 -1.36728 0)
(2.71272 -1.27829 0)
(2.72068 -1.14232 0)
(2.7011 -1.12656 0)
(2.69581 -1.11556 0)
(2.70008 -1.02986 0)
(2.67276 -1.12722 0)
(2.69454 -0.978587 0)
(1.32728 -1.44194 0)
(1.64308 -1.94811 0)
(1.95543 -2.29233 0)
(2.03326 -2.42902 0)
(2.21679 -2.28252 0)
(2.2885 -2.20403 0)
(2.27451 -1.96091 0)
(2.15965 -1.87741 0)
(2.13264 -1.84643 0)
(2.24718 -1.77683 0)
(2.37475 -1.5739 0)
(2.50734 -1.51086 0)
(2.56147 -1.29311 0)
(2.69074 -1.21237 0)
(2.71505 -0.991601 0)
(2.77417 -0.838815 0)
(2.77475 -0.726956 0)
(2.78056 -0.595511 0)
(2.7273 -0.70763 0)
(2.71096 -0.683441 0)
(1.45706 -1.59136 0)
(1.81642 -2.10069 0)
(2.16358 -2.38902 0)
(2.11691 -2.46095 0)
(2.31609 -2.20629 0)
(2.43416 -2.10923 0)
(2.50873 -1.74272 0)
(2.46237 -1.68139 0)
(2.43719 -1.69737 0)
(2.48837 -1.62296 0)
(2.51203 -1.51161 0)
(2.56577 -1.38568 0)
(2.57749 -1.21609 0)
(2.639 -1.14073 0)
(2.66974 -0.953001 0)
(2.727 -0.827149 0)
(2.77516 -0.680228 0)
(2.79457 -0.446374 0)
(2.76842 -0.383556 0)
(2.71426 -0.330522 0)
(1.61486 -1.70434 0)
(1.8605 -2.08904 0)
(2.1019 -2.39622 0)
(2.07545 -2.4632 0)
(2.29364 -2.11999 0)
(2.36419 -1.94443 0)
(2.52413 -1.59146 0)
(2.60818 -1.5136 0)
(2.75371 -1.42819 0)
(2.76119 -1.19531 0)
(2.73491 -1.22137 0)
(2.74813 -1.02083 0)
(2.70507 -0.972534 0)
(2.7087 -0.874797 0)
(2.70088 -0.763545 0)
(2.69832 -0.662105 0)
(2.7218 -0.586636 0)
(2.73629 -0.435974 0)
(2.71989 -0.243282 0)
(2.67363 -0.104784 0)
(1.73294 -1.80467 0)
(1.82081 -2.08723 0)
(1.94237 -2.37342 0)
(1.88152 -2.27577 0)
(2.05113 -2.01269 0)
(2.14394 -1.73894 0)
(2.30775 -1.53295 0)
(2.37354 -1.47749 0)
(2.54604 -1.38299 0)
(2.63471 -0.986567 0)
(2.71981 -0.839812 0)
(2.73778 -0.581388 0)
(2.75072 -0.51768 0)
(2.75266 -0.398534 0)
(2.74528 -0.342893 0)
(2.71702 -0.308445 0)
(2.69169 -0.292012 0)
(2.69022 -0.297216 0)
(2.64644 -0.153781 0)
(2.60913 0.0115988 0)
(1.73077 -1.85957 0)
(1.75432 -2.10835 0)
(1.70483 -2.24782 0)
(1.81298 -2.13245 0)
(1.9915 -1.93434 0)
(2.13793 -1.54211 0)
(2.17165 -1.4985 0)
(2.27636 -1.36069 0)
(2.35758 -1.23933 0)
(2.44865 -1.05468 0)
(2.57281 -0.874224 0)
(2.62899 -0.604174 0)
(2.6776 -0.393948 0)
(2.70232 -0.204703 0)
(2.67167 -0.00569106 0)
(2.65257 0.0603617 0)
(2.62706 0.126428 0)
(2.61587 0.0256604 0)
(2.55592 0.102475 0)
(2.58252 0.0567543 0)
(1.53994 -1.85078 0)
(1.6252 -2.10918 0)
(1.68963 -2.12141 0)
(1.95691 -1.76268 0)
(2.13349 -1.77279 0)
(2.28204 -1.26192 0)
(2.21244 -1.4028 0)
(2.35755 -1.23954 0)
(2.4572 -0.960656 0)
(2.46817 -0.894945 0)
(2.53561 -0.686378 0)
(2.56979 -0.490666 0)
(2.59363 -0.308803 0)
(2.62494 -0.161716 0)
(2.58398 0.0574318 0)
(2.5842 0.166474 0)
(2.52481 0.345637 0)
(2.48564 0.351316 0)
(2.43593 0.376767 0)
(2.47024 0.293 0)
(1.29174 -1.70576 0)
(1.60628 -1.88112 0)
(1.88595 -1.78902 0)
(2.13664 -1.42742 0)
(2.23048 -1.47749 0)
(2.32377 -1.03361 0)
(2.43566 -0.981445 0)
(2.60969 -0.672187 0)
(2.61125 -0.352286 0)
(2.60616 -0.331198 0)
(2.60493 -0.157085 0)
(2.59407 -0.0358078 0)
(2.56609 0.0763562 0)
(2.54274 0.158505 0)
(2.48977 0.26448 0)
(2.47907 0.29589 0)
(2.42305 0.402045 0)
(2.36241 0.516286 0)
(2.29703 0.601012 0)
(2.30076 0.56278 0)
(1.14962 -1.53399 0)
(1.64261 -1.61962 0)
(2.0051 -1.2743 0)
(2.13815 -1.40108 0)
(2.30245 -1.23059 0)
(2.53034 -0.813041 0)
(2.66889 -0.497314 0)
(2.64314 -0.131281 0)
(2.62926 -0.144872 0)
(2.58218 0.0884496 0)
(2.55574 0.23386 0)
(2.49527 0.389165 0)
(2.44995 0.484293 0)
(2.38623 0.580472 0)
(2.33891 0.615787 0)
(2.30661 0.614411 0)
(2.26899 0.632391 0)
(2.24131 0.660629 0)
(2.17214 0.749688 0)
(2.13084 0.793183 0)
(1.17728 -1.40608 0)
(1.65177 -1.56425 0)
(2.11265 -0.907893 0)
(2.47642 -1.3907 0)
(2.62904 -0.3245 0)
(2.47654 -0.711975 0)
(2.51166 -0.468231 0)
(2.50074 -0.141507 0)
(2.47275 0.00590093 0)
(2.4601 0.178453 0)
(2.42166 0.366292 0)
(2.35028 0.544033 0)
(2.29688 0.660576 0)
(2.21222 0.781724 0)
(2.15433 0.836445 0)
(2.10875 0.859621 0)
(2.06527 0.903566 0)
(2.0651 0.896234 0)
(2.04303 0.9228 0)
(2.06184 0.949801 0)
(1.47337 -1.14256 0)
(1.52564 -1.48887 0)
(2.53822 -0.142919 0)
(2.33982 -0.931649 0)
(2.43352 -0.346952 0)
(2.45288 -0.268088 0)
(2.42523 0.0399036 0)
(2.39032 0.217281 0)
(2.32416 0.40813 0)
(2.30259 0.551534 0)
(2.21387 0.709592 0)
(2.14303 0.817549 0)
(2.08854 0.88181 0)
(2.02919 0.945887 0)
(1.98777 0.965154 0)
(1.95224 0.991619 0)
(1.95363 1.01914 0)
(1.9692 0.998326 0)
(1.99501 0.997115 0)
(2.07219 0.97846 0)
(1.33484 -0.512989 0)
(1.81965 -0.721333 0)
(2.30148 -0.591836 0)
(2.32217 -0.0260469 0)
(2.33479 -0.0468166 0)
(2.35138 0.286329 0)
(2.28572 0.557178 0)
(2.18323 0.73366 0)
(2.13268 0.794668 0)
(2.06883 0.920252 0)
(1.9633 1.02171 0)
(1.9104 1.06836 0)
(1.8821 1.08194 0)
(1.86811 1.08852 0)
(1.87198 1.05543 0)
(1.89698 1.04774 0)
(1.96231 1.02069 0)
(2.16334 0.903576 0)
(2.37968 0.793539 0)
(2.77802 0.441784 0)
(1.05615 -0.0631195 0)
(1.82858 -0.0852151 0)
(2.24297 0.0798579 0)
(2.22943 0.490969 0)
(2.18923 0.690431 0)
(2.13524 0.795846 0)
(2.05499 0.89202 0)
(1.96841 0.962834 0)
(1.90712 1.03441 0)
(1.84325 1.12648 0)
(1.78436 1.15819 0)
(1.78861 1.15176 0)
(1.81048 1.13063 0)
(1.85066 1.08742 0)
(2.03839 0.952183 0)
(2.25644 0.830246 0)
(2.66383 0.504318 0)
(3.03751 0.0908173 0)
(3.05559 -0.024175 0)
(3.00401 -0.00466632 0)
(1.01855 0.0326674 0)
(1.94083 0.746269 0)
(2.08226 0.898191 0)
(1.99793 0.970946 0)
(1.96451 0.980153 0)
(1.88682 1.07437 0)
(1.79221 1.14177 0)
(1.75678 1.14683 0)
(1.75269 1.16271 0)
(1.72801 1.20505 0)
(1.70867 1.19888 0)
(1.86413 1.07231 0)
(2.10223 0.886322 0)
(2.50342 0.579191 0)
(2.98628 0.137285 0)
(3.07377 -0.0293514 0)
(3.00815 -0.0077007 0)
(3.00292 -0.00383346 0)
(3.00122 -0.00218945 0)
(3.00008 -0.000483324 0)
(1.17547 0.737427 0)
(1.81249 1.16708 0)
(1.8408 1.14255 0)
(1.74546 1.18913 0)
(1.71694 1.20084 0)
(1.67564 1.24134 0)
(1.66066 1.21677 0)
(1.72631 1.16507 0)
(1.75429 1.22876 0)
(1.77802 1.14469 0)
(2.25684 0.752809 0)
(2.84569 0.221099 0)
(3.09547 -0.0247703 0)
(3.02114 -0.012528 0)
(3.00449 -0.00533993 0)
(3.00186 -0.00299616 0)
(3.00006 -0.000594619 0)
(2.99998 -2.41184e-05 0)
(2.99999 1.4281e-05 0)
(3 5.8841e-06 0)
(1.57447 1.25365 0)
(1.58069 1.26054 0)
(1.58947 1.26961 0)
(1.60539 1.26921 0)
(1.62251 1.25704 0)
(1.61847 1.26195 0)
(1.89618 1.16043 0)
(3.00034 0.330872 0)
(3.32025 -0.560893 0)
(3 3.53602e-11 0)
(3 2.33364e-11 0)
(3 -9.1913e-14 0)
(3 9.35951e-12 0)
(3 -8.70352e-12 0)
(3 1.68976e-14 0)
(3 1.52332e-14 0)
(3 6.80736e-15 0)
(3 3.8314e-15 0)
(3 3.23982e-15 0)
(3 2.06735e-15 0)
(1.57428 1.24806 0)
(1.58747 1.26007 0)
(1.59734 1.27675 0)
(1.60306 1.28456 0)
(1.67378 1.26431 0)
(1.78171 1.20287 0)
(2.31889 0.707564 0)
(3.00461 0.00595888 0)
(3 8.04287e-08 0)
(3 5.05165e-11 0)
(3 -5.72026e-16 0)
(3 3.07794e-15 0)
(3 -1.02968e-15 0)
(3 7.31185e-15 0)
(3 2.17555e-15 0)
(3 2.63662e-15 0)
(3 3.56243e-15 0)
(3 3.48413e-15 0)
(3 1.11983e-15 0)
(3 -1.66487e-16 0)
(1.58307 1.25693 0)
(1.59909 1.26175 0)
(1.59998 1.27351 0)
(1.58012 1.30242 0)
(1.7093 1.21697 0)
(2.14745 0.837198 0)
(2.98351 0.00892866 0)
(3.00026 -0.000587391 0)
(3 4.25219e-07 0)
(3 5.88497e-11 0)
(3 -7.06744e-14 0)
(3 4.88163e-15 0)
(3 4.5261e-15 0)
(3 3.75634e-15 0)
(3 3.31085e-15 0)
(3 3.86988e-15 0)
(3 4.53127e-15 0)
(3 3.82312e-15 0)
(3 1.00768e-15 0)
(3 -4.37328e-16 0)
(1.58869 1.26214 0)
(1.60535 1.26578 0)
(1.62177 1.26717 0)
(1.57938 1.31155 0)
(1.89739 1.06213 0)
(2.7537 0.225476 0)
(3.00461 -0.00205466 0)
(2.99993 6.43122e-05 0)
(3 -6.76134e-07 0)
(3 8.37167e-10 0)
(3 -3.40351e-15 0)
(3 3.50979e-15 0)
(3 4.32548e-15 0)
(3 3.95757e-15 0)
(3 4.37801e-15 0)
(3 3.79631e-15 0)
(3 4.51461e-15 0)
(3 2.78737e-15 0)
(3 5.19333e-16 0)
(3 -6.36365e-16 0)
(1.59286 1.27251 0)
(1.60881 1.26843 0)
(1.6355 1.25349 0)
(1.67982 1.2263 0)
(2.29535 0.656941 0)
(3.02248 -0.0186642 0)
(2.99972 0.00016026 0)
(3 -3.89608e-06 0)
(3 7.83477e-08 0)
(3 -8.54212e-10 0)
(3 6.89237e-14 0)
(3 2.25211e-15 0)
(3 4.18048e-15 0)
(3 3.61825e-15 0)
(3 4.68779e-15 0)
(3 4.12698e-15 0)
(3 3.68895e-15 0)
(3 2.10466e-15 0)
(3 9.71551e-16 0)
(3 1.73873e-16 0)
(1.58918 1.2834 0)
(1.59177 1.27398 0)
(1.64728 1.24236 0)
(1.86631 1.08034 0)
(2.75346 0.203901 0)
(3 -5.64457e-10 0)
(3 1.34625e-08 0)
(3 -1.2123e-08 0)
(3 5.15944e-10 0)
(3 1.9423e-12 0)
(3 -4.84344e-14 0)
(3 1.40353e-15 0)
(3 3.06042e-15 0)
(3 3.97727e-15 0)
(3 4.1904e-15 0)
(3 3.60381e-15 0)
(3 2.916e-15 0)
(3 1.83479e-15 0)
(3 1.32235e-15 0)
(3 9.52683e-16 0)
(1.58656 1.29347 0)
(1.55286 1.28348 0)
(1.66592 1.23073 0)
(2.10835 0.844773 0)
(3.0219 -0.0167357 0)
(3 -1.19123e-12 0)
(3 -1.90645e-11 0)
(3 2.44826e-11 0)
(3 -3.44611e-12 0)
(3 5.23704e-15 0)
(3 1.24164e-15 0)
(3 3.89985e-16 0)
(3 1.10506e-15 0)
(3 2.8585e-15 0)
(3 3.45391e-15 0)
(3 2.57823e-15 0)
(3 3.14547e-15 0)
(3 1.9487e-15 0)
(3 1.28048e-15 0)
(3 1.38213e-15 0)
(1.58057 1.31982 0)
(1.50359 1.31876 0)
(1.75961 1.18808 0)
(2.42474 0.545034 0)
(3 -1.22371e-09 0)
(3 3.13176e-14 0)
(3 -1.80987e-14 0)
(3 -1.25302e-14 0)
(3 3.47335e-15 0)
(3 -1.91709e-15 0)
(3 -1.13692e-15 0)
(3 -4.98957e-16 0)
(3 -5.81812e-17 0)
(3 3.87036e-16 0)
(3 1.29394e-15 0)
(3 9.49758e-16 0)
(3 2.25614e-15 0)
(3 2.48676e-15 0)
(3 2.18107e-15 0)
(3 1.54912e-15 0)
(1.58556 1.30549 0)
(1.47447 1.33986 0)
(1.98807 1.04397 0)
(2.88233 0.12563 0)
(3 -1.07559e-09 0)
(3 -8.63483e-16 0)
(3 -2.49971e-16 0)
(3 -9.51264e-16 0)
(3 -1.78161e-15 0)
(3 -1.96684e-15 0)
(3 -1.39973e-15 0)
(3 -1.11806e-15 0)
(3 -1.45953e-15 0)
(3 -1.04996e-15 0)
(3 -7.48339e-16 0)
(3 -4.73959e-16 0)
(3 -1.31255e-15 0)
(3 2.61755e-16 0)
(3 2.6224e-15 0)
(3 1.85211e-15 0)
(1.60328 1.29832 0)
(1.48395 1.39932 0)
(2.10516 0.866194 0)
(3.01137 -0.00957698 0)
(3 7.11847e-09 0)
(3 -7.1507e-16 0)
(3 -3.51624e-16 0)
(3 -7.30432e-16 0)
(3 -7.96598e-16 0)
(3 -8.42893e-16 0)
(3 -1.16613e-15 0)
(3 -1.1589e-15 0)
(3 -1.74384e-15 0)
(3 -1.63809e-15 0)
(3 -1.43348e-15 0)
(3 -1.86192e-15 0)
(3 -1.70117e-15 0)
(3 -6.33966e-16 0)
(3 -1.89266e-15 0)
(3 -3.9802e-16 0)
(1.62105 1.28249 0)
(1.57485 1.30569 0)
(2.42566 0.524341 0)
(3 4.9385e-13 0)
(3 -5.40322e-12 0)
(3 4.83858e-15 0)
(3 9.92346e-17 0)
(3 -1.67093e-16 0)
(3 7.18042e-17 0)
(3 -6.89309e-17 0)
(3 -5.29506e-16 0)
(3 -9.53013e-16 0)
(3 -1.15442e-15 0)
(3 -1.80536e-15 0)
(3 -2.06886e-15 0)
(3 -2.40463e-15 0)
(3 -2.34405e-15 0)
(3 -2.09004e-15 0)
(3 -2.91292e-15 0)
(3 -3.09601e-15 0)
(1.64018 1.26562 0)
(1.63847 1.23794 0)
(2.65031 0.284617 0)
(3 4.23838e-13 0)
(3 1.20062e-14 0)
(3 8.2701e-16 0)
(3 4.02355e-16 0)
(3 5.62976e-16 0)
(3 1.04918e-15 0)
(3 1.43486e-15 0)
(3 6.68646e-16 0)
(3 5.25345e-16 0)
(3 1.28347e-16 0)
(3 -6.66236e-16 0)
(3 -9.12835e-16 0)
(3 -1.17384e-15 0)
(3 -1.99882e-15 0)
(3 -1.98864e-15 0)
(3 -2.34704e-15 0)
(3 -2.47598e-15 0)
(1.66061 1.23993 0)
(1.82124 1.09717 0)
(2.88075 0.0856474 0)
(3 -8.97169e-13 0)
(3 1.4632e-15 0)
(3 1.00942e-15 0)
(3 4.65039e-16 0)
(3 4.54219e-16 0)
(3 6.82757e-16 0)
(3 8.72236e-16 0)
(3 1.38094e-15 0)
(3 9.70342e-16 0)
(3 8.58589e-16 0)
(3 2.56151e-16 0)
(3 1.94482e-16 0)
(3 -2.96552e-16 0)
(3 -5.88664e-16 0)
(3 -1.26773e-15 0)
(3 -1.54602e-15 0)
(3 -1.60346e-15 0)
(1.6798 1.1938 0)
(1.90268 0.977878 0)
(2.99951 0.000410609 0)
(3 3.62312e-15 0)
(3 2.07214e-16 0)
(3 1.32711e-16 0)
(3 -3.79121e-16 0)
(3 -2.93053e-16 0)
(3 1.84167e-16 0)
(3 3.67172e-16 0)
(3 4.23995e-16 0)
(3 3.64823e-16 0)
(3 7.13674e-16 0)
(3 1.00715e-15 0)
(3 8.89542e-16 0)
(3 7.10606e-16 0)
(3 3.10594e-16 0)
(3 -5.97948e-16 0)
(3 -8.63925e-16 0)
(3 -1.19651e-15 0)
(1.69086 1.16958 0)
(2.0451 0.8274 0)
(3 -4.5325e-16 0)
(3 -5.98658e-16 0)
(3 -5.54503e-16 0)
(3 -8.69345e-16 0)
(3 -9.47695e-16 0)
(3 -7.17423e-16 0)
(3 -6.601e-16 0)
(3 -3.07898e-16 0)
(3 1.85931e-16 0)
(3 2.74616e-16 0)
(3 3.48153e-16 0)
(3 4.62526e-16 0)
(3 7.31497e-16 0)
(3 8.42436e-16 0)
(3 6.9401e-16 0)
(3 5.94234e-16 0)
(3 4.93825e-16 0)
(3 1.82811e-16 0)
(1.75238 1.10175 0)
(2.21658 0.653624 0)
(3 -6.61906e-16 0)
(3 -1.71713e-16 0)
(3 -1.07933e-16 0)
(3 -2.8955e-16 0)
(3 -4.65178e-16 0)
(3 -3.48611e-16 0)
(3 -1.27301e-16 0)
(3 -3.34534e-16 0)
(3 -2.99255e-17 0)
(3 5.9624e-16 0)
(3 9.3348e-16 0)
(3 1.05667e-15 0)
(3 1.22439e-15 0)
(3 8.6282e-16 0)
(3 5.78787e-16 0)
(3 -2.07001e-16 0)
(3 -4.06933e-16 0)
(3 -2.77903e-16 0)
(1.84983 1.01296 0)
(2.46159 0.440109 0)
(3 -6.32078e-16 0)
(3 -3.5329e-17 0)
(3 -3.79871e-16 0)
(3 -9.42087e-16 0)
(3 -8.57743e-16 0)
(3 -8.76014e-16 0)
(3 -9.51504e-16 0)
(3 -9.91759e-16 0)
(3 -7.53369e-16 0)
(3 -2.46033e-16 0)
(3 1.00659e-16 0)
(3 3.66822e-16 0)
(3 6.03266e-16 0)
(3 6.44248e-16 0)
(3 7.17105e-16 0)
(3 7.06753e-16 0)
(3 6.03106e-16 0)
(3 4.05706e-16 0)
(1.93648 0.862531 0)
(2.72421 0.196991 0)
(3 1.36247e-15 0)
(3 1.08913e-15 0)
(3 1.12676e-15 0)
(3 -7.74009e-17 0)
(3 -2.00318e-16 0)
(3 -4.79794e-16 0)
(3 -1.5668e-15 0)
(3 -1.95779e-15 0)
(3 -2.15942e-15 0)
(3 -2.24342e-15 0)
(3 -2.10217e-15 0)
(3 -1.73856e-15 0)
(3 -1.27693e-15 0)
(3 -6.32502e-16 0)
(3 1.87432e-16 0)
(3 1.75815e-16 0)
(3 4.66827e-16 0)
(3 1.04601e-15 0)
(2.10345 0.661444 0)
(2.99188 1.72474e-05 0)
(3 8.29258e-17 0)
(3 6.88617e-16 0)
(3 1.15096e-15 0)
(3 7.34067e-16 0)
(3 -3.23729e-16 0)
(3 -1.40275e-15 0)
(3 -1.8775e-15 0)
(3 -2.36952e-15 0)
(3 -2.55862e-15 0)
(3 -3.30779e-15 0)
(3 -3.35976e-15 0)
(3 -3.092e-15 0)
(3 -2.8305e-15 0)
(3 -2.67434e-15 0)
(3 -2.26595e-15 0)
(3 -1.93253e-15 0)
(3 -1.69752e-15 0)
(3 -1.38219e-15 0)
(1.99203 0.375109 0)
(2.99988 -2.09359e-05 0)
(3 1.01026e-16 0)
(3 -6.27421e-16 0)
(3 1.62156e-16 0)
(3 2.92816e-16 0)
(3 2.93336e-16 0)
(3 1.20988e-16 0)
(3 -2.62446e-16 0)
(3 -4.94619e-16 0)
(3 -8.82292e-17 0)
(3 -1.74976e-16 0)
(3 -2.71698e-16 0)
(3 -2.20191e-17 0)
(3 -2.96042e-17 0)
(3 5.05951e-17 0)
(3 1.95094e-16 0)
(3 5.91944e-16 0)
(3 6.45983e-16 0)
(3 7.37753e-16 0)
(1.99203 -0.374469 0)
(2.99988 2.07805e-05 0)
(3 1.4654e-16 0)
(3 -4.76218e-16 0)
(3 -1.55416e-15 0)
(3 -1.63988e-15 0)
(3 -1.27136e-15 0)
(3 -5.32056e-16 0)
(3 3.44102e-17 0)
(3 7.67614e-16 0)
(3 8.65746e-16 0)
(3 9.53769e-16 0)
(3 1.36618e-15 0)
(3 7.36212e-16 0)
(3 7.04865e-16 0)
(3 9.28286e-16 0)
(3 9.84483e-16 0)
(3 1.10229e-15 0)
(3 1.09024e-15 0)
(3 8.39292e-16 0)
(2.10141 -0.662505 0)
(2.99174 -7.22587e-06 0)
(3 -5.01759e-16 0)
(3 -1.54196e-15 0)
(3 -1.72907e-15 0)
(3 -1.87654e-15 0)
(3 -8.05333e-16 0)
(3 3.67965e-16 0)
(3 9.69459e-16 0)
(3 1.3813e-15 0)
(3 1.45178e-15 0)
(3 1.49613e-15 0)
(3 1.49422e-15 0)
(3 1.07207e-15 0)
(3 5.93492e-16 0)
(3 3.19105e-16 0)
(3 -7.62547e-17 0)
(3 -2.34896e-16 0)
(3 -8.16105e-16 0)
(3 -9.25904e-16 0)
(1.93374 -0.862587 0)
(2.72236 -0.198132 0)
(3 1.86682e-16 0)
(3 5.79223e-16 0)
(3 5.81092e-16 0)
(3 6.57703e-16 0)
(3 8.66986e-16 0)
(3 8.59761e-16 0)
(3 1.00036e-15 0)
(3 1.30837e-15 0)
(3 1.14304e-15 0)
(3 5.14267e-16 0)
(3 8.04699e-17 0)
(3 -3.0523e-16 0)
(3 -2.85721e-16 0)
(3 1.96825e-17 0)
(3 -1.9764e-16 0)
(3 -4.86169e-16 0)
(3 -5.55081e-16 0)
(3 -1.55919e-16 0)
(1.85074 -1.01236 0)
(2.46358 -0.439218 0)
(3 -1.18213e-15 0)
(3 -7.02666e-16 0)
(3 -5.52425e-16 0)
(3 -2.67289e-16 0)
(3 7.54951e-18 0)
(3 1.47469e-15 0)
(3 2.48907e-15 0)
(3 2.27492e-15 0)
(3 1.19518e-15 0)
(3 2.39116e-16 0)
(3 -4.66617e-16 0)
(3 -2.07978e-16 0)
(3 1.14553e-15 0)
(3 1.77046e-15 0)
(3 2.09026e-15 0)
(3 2.48674e-15 0)
(3 2.85541e-15 0)
(3 3.09227e-15 0)
(1.75465 -1.10175 0)
(2.21925 -0.652336 0)
(3 1.31471e-15 0)
(3 1.68949e-15 0)
(3 7.34078e-16 0)
(3 -3.94535e-16 0)
(3 -7.91694e-16 0)
(3 -9.25832e-17 0)
(3 3.20211e-16 0)
(3 5.33353e-17 0)
(3 4.81613e-16 0)
(3 8.96697e-16 0)
(3 1.62908e-15 0)
(3 2.26752e-15 0)
(3 1.99424e-15 0)
(3 2.03283e-15 0)
(3 2.1644e-15 0)
(3 2.35059e-15 0)
(3 2.74343e-15 0)
(3 3.03736e-15 0)
(1.69195 -1.16955 0)
(2.04667 -0.826154 0)
(3 2.46151e-15 0)
(3 2.68211e-15 0)
(3 1.5877e-15 0)
(3 1.20568e-15 0)
(3 8.08028e-16 0)
(3 7.20725e-16 0)
(3 9.44128e-16 0)
(3 1.15795e-15 0)
(3 1.36816e-15 0)
(3 1.49417e-15 0)
(3 1.23883e-15 0)
(3 1.17572e-15 0)
(3 1.85716e-15 0)
(3 3.02826e-15 0)
(3 3.38067e-15 0)
(3 3.9638e-15 0)
(3 3.53981e-15 0)
(3 3.08337e-15 0)
(1.67959 -1.19429 0)
(1.90132 -0.978256 0)
(2.99918 -0.000699166 0)
(3 -1.52737e-15 0)
(3 1.36976e-15 0)
(3 1.97003e-15 0)
(3 1.77381e-15 0)
(3 1.68816e-15 0)
(3 1.21845e-15 0)
(3 9.06705e-16 0)
(3 4.83768e-16 0)
(3 -3.37778e-16 0)
(3 -1.42339e-15 0)
(3 -7.21753e-16 0)
(3 1.62526e-15 0)
(3 2.69047e-15 0)
(3 2.24085e-15 0)
(3 1.56382e-15 0)
(3 4.15981e-16 0)
(3 2.84638e-16 0)
(1.66028 -1.2406 0)
(1.82205 -1.09753 0)
(2.88032 -0.0861287 0)
(3 8.81423e-13 0)
(3 1.28074e-15 0)
(3 6.82056e-16 0)
(3 8.36776e-16 0)
(3 7.49443e-16 0)
(3 1.15891e-15 0)
(3 9.11407e-16 0)
(3 5.37199e-16 0)
(3 -5.43492e-16 0)
(3 -7.75838e-16 0)
(3 1.81103e-15 0)
(3 1.47057e-15 0)
(3 1.28791e-15 0)
(3 9.46685e-16 0)
(3 9.31983e-16 0)
(3 -1.67294e-16 0)
(3 -1.80705e-16 0)
(1.64005 -1.26558 0)
(1.63687 -1.23918 0)
(2.64877 -0.286249 0)
(3 -4.14776e-13 0)
(3 -8.40833e-15 0)
(3 1.98807e-15 0)
(3 1.35243e-15 0)
(3 1.15519e-15 0)
(3 1.27219e-15 0)
(3 6.9481e-16 0)
(3 2.6685e-16 0)
(3 -1.11312e-16 0)
(3 1.08416e-15 0)
(3 2.14295e-15 0)
(3 1.95346e-15 0)
(3 1.79708e-15 0)
(3 1.69301e-15 0)
(3 1.00804e-15 0)
(3 1.9987e-16 0)
(3 -9.02093e-17 0)
(1.62106 -1.2825 0)
(1.57444 -1.30606 0)
(2.42515 -0.525315 0)
(3 -4.67102e-13 0)
(3 5.10271e-12 0)
(3 -5.15117e-15 0)
(3 1.29818e-15 0)
(3 9.03637e-16 0)
(3 5.95358e-16 0)
(3 1.44546e-16 0)
(3 2.99462e-16 0)
(3 7.83707e-16 0)
(3 1.84777e-16 0)
(3 8.7598e-16 0)
(3 1.17107e-15 0)
(3 1.23486e-15 0)
(3 1.15409e-15 0)
(3 4.42741e-16 0)
(3 -4.62095e-16 0)
(3 -7.68919e-16 0)
(1.60335 -1.29838 0)
(1.48392 -1.39932 0)
(2.10521 -0.866346 0)
(3.01136 0.00956468 0)
(3 -6.69059e-09 0)
(3 2.164e-15 0)
(3 1.3463e-15 0)
(3 9.85317e-16 0)
(3 3.43469e-16 0)
(3 -6.03029e-16 0)
(3 -3.32189e-17 0)
(3 9.30844e-17 0)
(3 -4.58584e-16 0)
(3 -1.72735e-16 0)
(3 1.28706e-16 0)
(3 -6.62818e-17 0)
(3 -3.13649e-16 0)
(3 -4.38849e-16 0)
(3 -6.03476e-16 0)
(3 -1.77206e-15 0)
(1.58574 -1.30546 0)
(1.47515 -1.33957 0)
(1.9904 -1.04376 0)
(2.88309 -0.125163 0)
(3 1.01292e-09 0)
(3 2.16079e-15 0)
(3 6.99751e-17 0)
(3 -6.67173e-16 0)
(3 1.15059e-15 0)
(3 -1.37938e-15 0)
(3 -1.45464e-15 0)
(3 -8.4856e-16 0)
(3 -8.48371e-16 0)
(3 -1.37525e-15 0)
(3 -1.04433e-15 0)
(3 -5.53209e-16 0)
(3 -1.62682e-16 0)
(3 -2.78265e-16 0)
(3 -1.20358e-15 0)
(3 -2.73728e-15 0)
(1.58082 -1.3202 0)
(1.50314 -1.31893 0)
(1.7553 -1.18955 0)
(2.42192 -0.546343 0)
(3 1.13222e-09 0)
(3 -2.39526e-14 0)
(3 1.33318e-14 0)
(3 1.16785e-14 0)
(3 -6.3272e-15 0)
(3 -8.63673e-16 0)
(3 -1.50888e-15 0)
(3 -9.24895e-16 0)
(3 -7.27601e-16 0)
(3 -1.5363e-15 0)
(3 -1.10983e-15 0)
(3 -4.17956e-16 0)
(3 3.01134e-17 0)
(3 -1.4545e-16 0)
(3 -2.33975e-15 0)
(3 -2.76912e-15 0)
(1.58651 -1.29342 0)
(1.55382 -1.28488 0)
(1.66946 -1.22974 0)
(2.11543 -0.841699 0)
(3.02289 0.0179643 0)
(3 1.26682e-12 0)
(3 1.88494e-11 0)
(3 -2.4566e-11 0)
(3 3.41634e-12 0)
(3 -7.54223e-15 0)
(3 -2.57526e-15 0)
(3 -3.65452e-16 0)
(3 -6.36407e-16 0)
(3 -1.9399e-15 0)
(3 -1.34125e-15 0)
(3 2.06232e-16 0)
(3 2.50001e-16 0)
(3 -6.32805e-16 0)
(3 -2.19473e-15 0)
(3 -1.09489e-15 0)
(1.58907 -1.28296 0)
(1.59236 -1.27375 0)
(1.6472 -1.24264 0)
(1.85771 -1.08426 0)
(2.74952 -0.205847 0)
(3 5.62213e-10 0)
(3 -1.33942e-08 0)
(3 1.20581e-08 0)
(3 -5.12589e-10 0)
(3 -1.88653e-12 0)
(3 2.18565e-14 0)
(3 2.09722e-16 0)
(3 -8.63518e-16 0)
(3 -1.52582e-15 0)
(3 -1.59567e-15 0)
(3 -3.31125e-18 0)
(3 4.639e-16 0)
(3 -4.69752e-16 0)
(3 -1.50953e-15 0)
(3 4.7037e-16 0)
(1.59293 -1.27243 0)
(1.60837 -1.26884 0)
(1.63436 -1.2527 0)
(1.68271 -1.22409 0)
(2.29833 -0.655409 0)
(3.02239 0.0187116 0)
(2.99972 -0.000156932 0)
(3 3.87915e-06 0)
(3 -7.78217e-08 0)
(3 8.4961e-10 0)
(3 -3.54526e-14 0)
(3 7.79773e-17 0)
(3 -4.05434e-16 0)
(3 -6.70622e-16 0)
(3 -1.47429e-15 0)
(3 -2.66854e-16 0)
(3 9.80225e-16 0)
(3 -3.05196e-18 0)
(3 -5.37399e-16 0)
(3 6.87387e-16 0)
(1.58878 -1.26233 0)
(1.60476 -1.26577 0)
(1.62095 -1.26752 0)
(1.58059 -1.31081 0)
(1.89463 -1.06363 0)
(2.75226 -0.226062 0)
(3.00461 0.00199403 0)
(2.99993 -6.36512e-05 0)
(3 6.62143e-07 0)
(3 -8.32235e-10 0)
(3 9.50158e-15 0)
(3 6.81062e-16 0)
(3 9.03842e-16 0)
(3 -6.68739e-16 0)
(3 -9.47562e-16 0)
(3 3.50078e-16 0)
(3 7.06358e-16 0)
(3 1.40283e-15 0)
(3 2.17148e-16 0)
(3 7.23781e-16 0)
(1.583 -1.25698 0)
(1.59912 -1.26182 0)
(1.60006 -1.27309 0)
(1.58071 -1.30245 0)
(1.7095 -1.21677 0)
(2.14934 -0.835118 0)
(2.98418 -0.00831422 0)
(3.00025 0.000568464 0)
(3 -4.04478e-07 0)
(3 -5.92177e-11 0)
(3 7.38817e-14 0)
(3 4.30011e-16 0)
(3 1.66005e-15 0)
(3 -5.77769e-16 0)
(3 -5.77469e-16 0)
(3 4.17195e-16 0)
(3 4.79919e-16 0)
(3 1.17817e-15 0)
(3 1.67051e-15 0)
(3 1.02458e-15 0)
(1.57394 -1.24765 0)
(1.5871 -1.25965 0)
(1.59734 -1.27658 0)
(1.60333 -1.28475 0)
(1.67451 -1.26474 0)
(1.78342 -1.20236 0)
(2.31862 -0.707813 0)
(3.00461 -0.00586628 0)
(3 -8.19146e-08 0)
(3 -4.86722e-11 0)
(3 -1.84975e-15 0)
(3 1.88858e-15 0)
(3 5.8365e-15 0)
(3 -4.3992e-15 0)
(3 -5.80063e-17 0)
(3 1.1057e-15 0)
(3 9.54095e-16 0)
(3 6.88465e-16 0)
(3 2.48608e-15 0)
(3 1.0585e-15 0)
(1.5745 -1.25369 0)
(1.5807 -1.26055 0)
(1.5896 -1.26965 0)
(1.60549 -1.2689 0)
(1.62218 -1.25665 0)
(1.61732 -1.26208 0)
(1.89617 -1.16093 0)
(3.00082 -0.332525 0)
(3.32111 0.563512 0)
(3 -3.40633e-11 0)
(3 -2.51247e-11 0)
(3 -1.80306e-14 0)
(3 -4.48368e-12 0)
(3 4.26768e-12 0)
(3 -8.46759e-15 0)
(3 -5.57884e-15 0)
(3 -1.11018e-15 0)
(3 2.20554e-15 0)
(3 2.94052e-15 0)
(3 2.20293e-15 0)
(1.17618 -0.739853 0)
(1.81533 -1.16481 0)
(1.83996 -1.1468 0)
(1.74348 -1.19316 0)
(1.7179 -1.20093 0)
(1.67477 -1.24105 0)
(1.66027 -1.21683 0)
(1.72609 -1.16514 0)
(1.75404 -1.22911 0)
(1.77806 -1.14502 0)
(2.25642 -0.753093 0)
(2.84521 -0.221366 0)
(3.09558 0.024817 0)
(3.02124 0.0125863 0)
(3.00445 0.00532779 0)
(3.00185 0.00298228 0)
(3.00006 0.000592223 0)
(2.99998 2.41575e-05 0)
(2.99999 -1.42672e-05 0)
(3 -5.87861e-06 0)
(1.00272 -0.0496424 0)
(1.93872 -0.719475 0)
(2.08706 -0.868948 0)
(2.00051 -0.9629 0)
(1.96361 -0.983437 0)
(1.88589 -1.07699 0)
(1.79162 -1.143 0)
(1.75637 -1.1473 0)
(1.75243 -1.16305 0)
(1.72809 -1.20519 0)
(1.70884 -1.199 0)
(1.86349 -1.07252 0)
(2.1013 -0.886666 0)
(2.50249 -0.579979 0)
(2.98599 -0.137798 0)
(3.07385 0.0292989 0)
(3.00817 0.00770226 0)
(3.00292 0.00383301 0)
(3.00122 0.00218874 0)
(3.00008 0.000483155 0)
(1.08226 0.0714693 0)
(1.87473 -0.0227083 0)
(2.24959 -0.121205 0)
(2.22906 -0.497533 0)
(2.18736 -0.687435 0)
(2.13496 -0.794127 0)
(2.05451 -0.892526 0)
(1.96879 -0.962454 0)
(1.90771 -1.03424 0)
(1.84359 -1.12621 0)
(1.78462 -1.15803 0)
(1.78857 -1.15177 0)
(1.81026 -1.13074 0)
(1.85059 -1.08751 0)
(2.03848 -0.952197 0)
(2.25648 -0.830317 0)
(2.66375 -0.504342 0)
(3.03752 -0.0907494 0)
(3.05562 0.0241902 0)
(3.00401 0.00466781 0)
(1.08216 0.540026 0)
(1.88651 0.00334465 0)
(2.25134 0.716597 0)
(2.30262 0.133688 0)
(2.33585 0.0547277 0)
(2.34778 -0.291413 0)
(2.28517 -0.557046 0)
(2.1821 -0.735261 0)
(2.13306 -0.795405 0)
(2.06851 -0.921162 0)
(1.96309 -1.02252 0)
(1.90999 -1.069 0)
(1.88179 -1.08227 0)
(1.86805 -1.08842 0)
(1.87211 -1.05519 0)
(1.89713 -1.04751 0)
(1.9624 -1.02052 0)
(2.16315 -0.903603 0)
(2.37936 -0.793733 0)
(2.77788 -0.442067 0)
(0.9694 0.769306 0)
(1.32424 1.21866 0)
(2.49145 0.309585 0)
(2.40063 0.77863 0)
(2.43863 0.41025 0)
(2.46017 0.278129 0)
(2.42562 -0.0466959 0)
(2.38998 -0.221142 0)
(2.32321 -0.411037 0)
(2.30244 -0.552738 0)
(2.2138 -0.710018 0)
(2.14222 -0.81838 0)
(2.08835 -0.881766 0)
(2.02922 -0.945239 0)
(1.98789 -0.964399 0)
(1.95232 -0.991069 0)
(1.95345 -1.01908 0)
(1.9692 -0.998469 0)
(1.99496 -0.997325 0)
(2.07219 -0.978684 0)
(0.977158 1.04854 0)
(1.33163 1.15172 0)
(1.96878 0.858127 0)
(2.44648 1.36681 0)
(2.64416 0.350802 0)
(2.4858 0.740122 0)
(2.51221 0.476628 0)
(2.49886 0.148307 0)
(2.47009 -0.00319381 0)
(2.4598 -0.174578 0)
(2.42034 -0.365132 0)
(2.34937 -0.542837 0)
(2.29647 -0.659487 0)
(2.21192 -0.780886 0)
(2.15406 -0.836033 0)
(2.10809 -0.859947 0)
(2.06461 -0.904247 0)
(2.06493 -0.896702 0)
(2.04311 -0.923038 0)
(2.06191 -0.94994 0)
(1.14797 1.22647 0)
(1.39245 1.25514 0)
(1.83919 1.06739 0)
(1.94859 1.59745 0)
(2.29002 1.25771 0)
(2.55837 0.866171 0)
(2.6839 0.524118 0)
(2.64804 0.141565 0)
(2.63064 0.145414 0)
(2.58325 -0.0882536 0)
(2.55659 -0.231515 0)
(2.49494 -0.388207 0)
(2.44921 -0.484671 0)
(2.38552 -0.581308 0)
(2.3384 -0.61649 0)
(2.30607 -0.6151 0)
(2.26906 -0.632362 0)
(2.24197 -0.660189 0)
(2.17232 -0.749652 0)
(2.13085 -0.793042 0)
(1.33799 1.47704 0)
(1.46476 1.5693 0)
(1.7689 1.4 0)
(1.94479 1.64117 0)
(2.18733 1.49602 0)
(2.30447 1.08418 0)
(2.45573 0.986019 0)
(2.62888 0.665109 0)
(2.62525 0.346338 0)
(2.61446 0.321432 0)
(2.60724 0.148347 0)
(2.5939 0.028879 0)
(2.56604 -0.0801529 0)
(2.54308 -0.159697 0)
(2.49008 -0.264087 0)
(2.47932 -0.294442 0)
(2.42377 -0.399809 0)
(2.36323 -0.514535 0)
(2.29738 -0.600424 0)
(2.30081 -0.562495 0)
(1.55478 1.73116 0)
(1.57876 1.92002 0)
(1.68334 1.8919 0)
(1.85177 1.87928 0)
(2.10739 1.76697 0)
(2.26232 1.27918 0)
(2.21432 1.4294 0)
(2.36637 1.2456 0)
(2.46594 0.956286 0)
(2.47434 0.891701 0)
(2.53804 0.680382 0)
(2.57036 0.488107 0)
(2.59429 0.309827 0)
(2.62577 0.16413 0)
(2.5848 -0.054797 0)
(2.58562 -0.16396 0)
(2.52581 -0.344836 0)
(2.48588 -0.352705 0)
(2.43564 -0.378215 0)
(2.46986 -0.294706 0)
(1.68232 1.84611 0)
(1.71764 2.10662 0)
(1.76488 2.18534 0)
(1.80492 2.15044 0)
(1.97235 1.96592 0)
(2.13539 1.52764 0)
(2.15879 1.5285 0)
(2.27971 1.36887 0)
(2.35804 1.24284 0)
(2.44668 1.05763 0)
(2.56981 0.881063 0)
(2.62696 0.611717 0)
(2.67866 0.40278 0)
(2.70429 0.209816 0)
(2.67297 0.00711645 0)
(2.6535 -0.0609812 0)
(2.62744 -0.129039 0)
(2.61603 -0.0271071 0)
(2.55595 -0.103109 0)
(2.58246 -0.0560179 0)
(1.65942 1.80732 0)
(1.84949 2.12438 0)
(1.91398 2.29096 0)
(1.89496 2.25599 0)
(2.02888 2.04578 0)
(2.15203 1.69412 0)
(2.28442 1.57656 0)
(2.36548 1.48942 0)
(2.53427 1.39371 0)
(2.62646 0.99074 0)
(2.72127 0.846594 0)
(2.7393 0.583222 0)
(2.75124 0.511867 0)
(2.7521 0.391075 0)
(2.7453 0.338039 0)
(2.7179 0.305227 0)
(2.69255 0.290041 0)
(2.6902 0.297109 0)
(2.64649 0.156138 0)
(2.6086 -0.00962492 0)
(1.58068 1.72558 0)
(1.92268 2.1432 0)
(2.08637 2.39953 0)
(2.07634 2.46129 0)
(2.2415 2.20959 0)
(2.34709 1.97446 0)
(2.50586 1.6273 0)
(2.60736 1.51175 0)
(2.76782 1.4333 0)
(2.77267 1.19185 0)
(2.74109 1.20853 0)
(2.7509 1.01146 0)
(2.70732 0.966097 0)
(2.71072 0.869941 0)
(2.70255 0.761773 0)
(2.69922 0.660643 0)
(2.72208 0.588421 0)
(2.73567 0.439425 0)
(2.71938 0.247272 0)
(2.67308 0.10631 0)
(1.44158 1.59011 0)
(1.87672 2.117 0)
(2.14654 2.40055 0)
(2.11184 2.5135 0)
(2.25521 2.33445 0)
(2.40548 2.09824 0)
(2.50787 1.75157 0)
(2.48404 1.69044 0)
(2.46322 1.69559 0)
(2.49846 1.61755 0)
(2.51261 1.50445 0)
(2.56388 1.38214 0)
(2.57483 1.21635 0)
(2.63655 1.14303 0)
(2.6679 0.95737 0)
(2.72489 0.834313 0)
(2.77455 0.689694 0)
(2.79441 0.45402 0)
(2.77061 0.386932 0)
(2.71498 0.328909 0)
(1.37781 1.42806 0)
(1.70144 1.97448 0)
(2.03595 2.3691 0)
(2.06516 2.49987 0)
(2.17367 2.37818 0)
(2.28928 2.18201 0)
(2.3007 1.95003 0)
(2.16899 1.89809 0)
(2.13668 1.85669 0)
(2.23561 1.78115 0)
(2.36253 1.57365 0)
(2.4971 1.50895 0)
(2.55525 1.29318 0)