/*--------------------------------*- C++ -*----------------------------------*\
  =========                 |
  \\      /  F ield         | OpenFOAM: The Open Source CFD Toolbox
   \\    /   O peration     | Website:  https://openfoam.org
    \\  /    A nd           | Version:  7
     \\/     M anipulation  |
\*---------------------------------------------------------------------------*/
FoamFile
{
    version     2.0;
    format      ascii;
    class       volVectorField;
    location    "5.4";
    object      U;
}
// * * * * * * * * * * * * * * * * * * * * * * * * * * * * * * * * * * * * * //

dimensions      [0 1 -1 0 0 0 0];

internalField   nonuniform List<vector> 
3700
(
(1.37253 -0.486008 0)
(1.2839 -0.537815 0)
(1.20327 -0.40547 0)
(1.187 -0.281815 0)
(1.27528 -0.247178 0)
(1.47631 -0.408249 0)
(1.53814 -0.398968 0)
(1.44401 -0.247929 0)
(1.44039 -0.0493387 0)
(1.54144 -0.0245625 0)
(1.5981 -0.131682 0)
(1.61095 -0.252737 0)
(1.58669 -0.247441 0)
(1.56938 -0.164816 0)
(1.64163 -0.107142 0)
(1.70501 -0.157181 0)
(1.79185 -0.23953 0)
(1.82987 -0.240113 0)
(1.84459 -0.160666 0)
(1.89332 -0.112103 0)
(1.48297 -1.49883 0)
(1.52454 -1.51396 0)
(1.54795 -1.6244 0)
(1.63016 -1.51823 0)
(1.73576 -1.49761 0)
(1.85162 -1.72879 0)
(1.79898 -1.64173 0)
(1.64187 -1.28201 0)
(1.60019 -0.925755 0)
(1.78036 -0.88435 0)
(1.93635 -1.01945 0)
(1.99543 -1.32005 0)
(1.95274 -1.30579 0)
(1.90221 -1.20021 0)
(1.95283 -1.11111 0)
(2.07106 -1.19588 0)
(2.16867 -1.25136 0)
(2.2412 -1.23455 0)
(2.29885 -1.0602 0)
(2.37012 -0.985699 0)
(1.44122 -1.47545 0)
(1.62895 -1.59522 0)
(1.78493 -1.90756 0)
(1.85158 -2.12999 0)
(1.91741 -2.23589 0)
(1.94431 -2.25029 0)
(1.98904 -2.20317 0)
(1.97995 -2.16677 0)
(1.98455 -2.1423 0)
(2.10435 -2.10053 0)
(2.25458 -2.03324 0)
(2.32182 -2.01259 0)
(2.40654 -1.94854 0)
(2.40067 -1.94622 0)
(2.39755 -1.8784 0)
(2.39431 -1.82562 0)
(2.41552 -1.78739 0)
(2.46117 -1.67073 0)
(2.5394 -1.64576 0)
(2.65991 -1.52371 0)
(1.52613 -1.50211 0)
(1.7676 -1.54022 0)
(1.91388 -1.98064 0)
(2.00232 -2.15675 0)
(2.06666 -2.25014 0)
(2.04882 -2.32812 0)
(2.09991 -2.18003 0)
(2.03767 -2.14593 0)
(2.02807 -2.10766 0)
(2.13852 -1.97225 0)
(2.27405 -1.84339 0)
(2.43977 -1.78106 0)
(2.575 -1.62203 0)
(2.66664 -1.58788 0)
(2.70071 -1.56743 0)
(2.67141 -1.58115 0)
(2.59418 -1.63466 0)
(2.57707 -1.51267 0)
(2.56381 -1.5224 0)
(2.62398 -1.33915 0)
(1.60911 -1.53685 0)
(1.93541 -1.56716 0)
(2.04519 -2.01645 0)
(2.11544 -2.16062 0)
(2.24153 -2.17256 0)
(2.25016 -2.26933 0)
(2.30303 -2.0627 0)
(2.17281 -2.07393 0)
(2.14584 -2.08851 0)
(2.18759 -1.95741 0)
(2.24132 -1.88544 0)
(2.3861 -1.75604 0)
(2.47424 -1.64842 0)
(2.61885 -1.53568 0)
(2.72696 -1.34714 0)
(2.79416 -1.16665 0)
(2.78868 -1.15773 0)
(2.7859 -1.11199 0)
(2.69977 -1.21806 0)
(2.64539 -1.19635 0)
(1.71405 -1.59729 0)
(2.08646 -1.58125 0)
(2.03303 -2.05192 0)
(2.0141 -2.16413 0)
(2.1552 -2.15225 0)
(2.23243 -2.22117 0)
(2.32815 -1.98937 0)
(2.30259 -1.92186 0)
(2.34825 -1.91299 0)
(2.42738 -1.82943 0)
(2.39457 -1.81739 0)
(2.4639 -1.67062 0)
(2.50442 -1.55236 0)
(2.56742 -1.47321 0)
(2.64311 -1.3581 0)
(2.69216 -1.19512 0)
(2.79484 -1.04524 0)
(2.8687 -0.85006 0)
(2.85007 -0.74935 0)
(2.7424 -0.774148 0)
(1.87131 -1.65259 0)
(2.03146 -1.62559 0)
(1.82513 -2.10878 0)
(1.86395 -2.16379 0)
(2.00628 -2.11146 0)
(2.10941 -2.07578 0)
(2.26037 -1.90552 0)
(2.37719 -1.79299 0)
(2.46182 -1.76652 0)
(2.59045 -1.56763 0)
(2.5814 -1.63262 0)
(2.64122 -1.46873 0)
(2.6213 -1.40486 0)
(2.62998 -1.31471 0)
(2.65039 -1.20509 0)
(2.6664 -1.08256 0)
(2.71072 -0.995204 0)
(2.80356 -0.882311 0)
(2.81036 -0.635069 0)
(2.80039 -0.478573 0)
(1.81439 -1.62161 0)
(1.7477 -1.75121 0)
(1.56395 -2.12708 0)
(1.70884 -2.10455 0)
(1.78588 -2.02404 0)
(1.95454 -1.88454 0)
(2.08474 -1.84784 0)
(2.26774 -1.67849 0)
(2.45351 -1.56683 0)
(2.59863 -1.3491 0)
(2.66391 -1.29034 0)
(2.73089 -1.10152 0)
(2.73143 -1.08184 0)
(2.7416 -1.01538 0)
(2.74314 -0.91867 0)
(2.72268 -0.8476 0)
(2.70869 -0.762376 0)
(2.75099 -0.764228 0)
(2.7403 -0.600283 0)
(2.74235 -0.38732 0)
(1.60161 -1.55426 0)
(1.49696 -1.71462 0)
(1.41409 -1.98583 0)
(1.60878 -1.97079 0)
(1.76081 -1.95013 0)
(1.87802 -1.84467 0)
(2.00666 -1.80592 0)
(2.16765 -1.6478 0)
(2.2832 -1.51155 0)
(2.42745 -1.40208 0)
(2.5545 -1.13294 0)
(2.66225 -0.939663 0)
(2.69971 -0.71786 0)
(2.75089 -0.614943 0)
(2.76458 -0.478691 0)
(2.75925 -0.461374 0)
(2.74326 -0.373979 0)
(2.72155 -0.443791 0)
(2.70943 -0.429401 0)
(2.67179 -0.240297 0)
(1.42206 -1.37526 0)
(1.39543 -1.47497 0)
(1.38223 -1.78701 0)
(1.58761 -1.8789 0)
(1.76917 -1.79199 0)
(1.92205 -1.7758 0)
(2.08621 -1.73575 0)
(2.2492 -1.57389 0)
(2.32021 -1.41861 0)
(2.38181 -1.34156 0)
(2.48091 -1.12882 0)
(2.57311 -0.971316 0)
(2.62515 -0.728123 0)
(2.7331 -0.603671 0)
(2.70891 -0.320305 0)
(2.71916 -0.201058 0)
(2.6994 -0.0419332 0)
(2.66665 -0.0509552 0)
(2.64538 -0.119012 0)
(2.62086 -0.0580394 0)
(1.34053 -1.1517 0)
(1.36021 -1.22631 0)
(1.44243 -1.63129 0)
(1.58809 -1.86662 0)
(1.81479 -1.71947 0)
(1.99608 -1.7365 0)
(2.24057 -1.55456 0)
(2.4364 -1.25731 0)
(2.55357 -1.10735 0)
(2.56295 -1.08705 0)
(2.59086 -0.892126 0)
(2.61611 -0.733059 0)
(2.61683 -0.565083 0)
(2.6665 -0.475461 0)
(2.64307 -0.27362 0)
(2.66328 -0.162404 0)
(2.63274 0.0391209 0)
(2.59621 0.164695 0)
(2.5339 0.227332 0)
(2.57574 0.107692 0)
(1.22521 -1.0067 0)
(1.3018 -1.08841 0)
(1.52894 -1.55892 0)
(1.64638 -1.93088 0)
(2.10833 -1.59407 0)
(2.46863 -1.68194 0)
(2.71629 -1.34733 0)
(2.7701 -0.852614 0)
(2.78647 -0.61525 0)
(2.73452 -0.462418 0)
(2.72063 -0.341311 0)
(2.69008 -0.197458 0)
(2.66353 -0.119947 0)
(2.64608 -0.0476292 0)
(2.60579 0.0305564 0)
(2.57973 0.0585222 0)
(2.55237 0.120422 0)
(2.50882 0.242082 0)
(2.43955 0.387821 0)
(2.44598 0.365479 0)
(1.07937 -0.905769 0)
(1.23123 -1.00347 0)
(1.61936 -1.50136 0)
(1.86749 -1.97657 0)
(2.59484 -1.40693 0)
(2.52149 -1.48715 0)
(2.62778 -1.11911 0)
(2.66246 -0.726577 0)
(2.64989 -0.62861 0)
(2.64143 -0.327531 0)
(2.66661 -0.140602 0)
(2.60567 0.106043 0)
(2.58321 0.229711 0)
(2.52954 0.362169 0)
(2.48995 0.422743 0)
(2.45092 0.438402 0)
(2.41732 0.43303 0)
(2.40159 0.425207 0)
(2.32215 0.543306 0)
(2.31522 0.532013 0)
(0.870678 -0.821599 0)
(1.20219 -0.987223 0)
(1.83197 -1.50558 0)
(2.35868 -1.62188 0)
(2.37654 -1.38953 0)
(2.373 -1.23328 0)
(2.43997 -0.879683 0)
(2.48187 -0.616339 0)
(2.48961 -0.42369 0)
(2.51474 -0.240452 0)
(2.53555 -0.0371624 0)
(2.48599 0.19187 0)
(2.46419 0.343191 0)
(2.39932 0.501512 0)
(2.34376 0.61123 0)
(2.29758 0.662005 0)
(2.2239 0.73909 0)
(2.20831 0.725132 0)
(2.18705 0.749129 0)
(2.14882 0.773419 0)
(0.668033 -0.670894 0)
(1.32033 -1.2059 0)
(2.20697 -1.61437 0)
(2.21388 -1.2946 0)
(2.22888 -1.21404 0)
(2.39995 -0.787878 0)
(2.46871 -0.355619 0)
(2.49242 -0.139449 0)
(2.44757 0.0976355 0)
(2.45846 0.21999 0)
(2.40867 0.395497 0)
(2.34259 0.53245 0)
(2.29165 0.621167 0)
(2.23267 0.705329 0)
(2.18386 0.756791 0)
(2.13739 0.799846 0)
(2.0731 0.873476 0)
(2.04608 0.912279 0)
(2.03004 0.942791 0)
(2.06037 0.956031 0)
(0.674828 -0.510964 0)
(1.41795 -1.4655 0)
(1.95864 -1.50454 0)
(2.1418 -0.984359 0)
(2.35676 -0.634982 0)
(2.41157 -0.0504836 0)
(2.4387 0.193591 0)
(2.37976 0.419256 0)
(2.32978 0.510152 0)
(2.30368 0.643321 0)
(2.20767 0.789253 0)
(2.11888 0.893629 0)
(2.05998 0.942925 0)
(2.01132 0.983603 0)
(1.98626 0.970333 0)
(1.96303 0.979758 0)
(1.95698 1.00739 0)
(1.97045 0.994623 0)
(1.99381 0.995857 0)
(2.06849 0.980763 0)
(0.994743 -0.405925 0)
(1.88901 -0.481497 0)
(2.11506 -0.901166 0)
(2.31056 -0.0199571 0)
(2.34931 0.280699 0)
(2.33458 0.381201 0)
(2.28618 0.507729 0)
(2.20533 0.65725 0)
(2.14277 0.758088 0)
(2.09528 0.890225 0)
(1.98779 1.00215 0)
(1.91598 1.06448 0)
(1.87627 1.08873 0)
(1.86358 1.0956 0)
(1.86965 1.05841 0)
(1.89835 1.04792 0)
(1.96459 1.01923 0)
(2.16735 0.89937 0)
(2.38317 0.788302 0)
(2.778 0.439932 0)
(1.17727 -0.121474 0)
(1.91708 -0.178609 0)
(2.24682 0.414282 0)
(2.24653 0.563008 0)
(2.20015 0.643121 0)
(2.14373 0.753235 0)
(2.02855 0.905129 0)
(1.96614 0.964831 0)
(1.91278 1.02965 0)
(1.86057 1.11943 0)
(1.79878 1.15752 0)
(1.78809 1.15145 0)
(1.80426 1.13169 0)
(1.84658 1.08936 0)
(2.03991 0.952928 0)
(2.25848 0.831526 0)
(2.66481 0.505794 0)
(3.03697 0.0921081 0)
(3.05524 -0.0240192 0)
(3.00401 -0.00467213 0)
(1.00833 0.0280442 0)
(1.91627 0.805871 0)
(2.12133 0.808317 0)
(2.00201 0.959296 0)
(1.96226 0.984743 0)
(1.86486 1.08568 0)
(1.79194 1.13206 0)
(1.76157 1.1474 0)
(1.76075 1.16347 0)
(1.74156 1.20344 0)
(1.72411 1.19458 0)
(1.86811 1.06619 0)
(2.09421 0.884826 0)
(2.49324 0.583399 0)
(2.98225 0.14112 0)
(3.07383 -0.0286914 0)
(3.00814 -0.00765949 0)
(3.0029 -0.00379568 0)
(3.00121 -0.00217269 0)
(3.00008 -0.000481235 0)
(1.16817 0.768166 0)
(1.83558 1.15002 0)
(1.84421 1.15529 0)
(1.74138 1.19923 0)
(1.71438 1.20185 0)
(1.65981 1.24573 0)
(1.65353 1.21714 0)
(1.72358 1.16973 0)
(1.75836 1.23641 0)
(1.79767 1.14644 0)
(2.28256 0.736156 0)
(2.86596 0.202013 0)
(3.09937 -0.0313493 0)
(3.02121 -0.0129162 0)
(3.00466 -0.00561361 0)
(3.00183 -0.00304612 0)
(3.00005 -0.000582404 0)
(2.99998 -2.10783e-05 0)
(2.99999 1.42777e-05 0)
(3 5.89077e-06 0)
(1.58242 1.25937 0)
(1.58749 1.26425 0)
(1.59543 1.26842 0)
(1.60251 1.26576 0)
(1.6062 1.25723 0)
(1.59183 1.26862 0)
(1.89054 1.17179 0)
(2.95395 0.400196 0)
(3.34647 -0.609897 0)
(3 5.81099e-11 0)
(3 -6.69366e-11 0)
(3 7.16103e-11 0)
(3 4.0432e-15 0)
(3 -3.74219e-13 0)
(3 -1.12169e-14 0)
(3 1.82209e-14 0)
(3 -8.3849e-15 0)
(3 2.02786e-15 0)
(3 1.00991e-15 0)
(3 1.41766e-16 0)
(1.58179 1.24625 0)
(1.59343 1.25464 0)
(1.6063 1.26159 0)
(1.61015 1.27318 0)
(1.6371 1.26543 0)
(1.70173 1.22066 0)
(2.24087 0.743629 0)
(2.99249 0.0194835 0)
(3 5.00773e-08 0)
(3 -9.73644e-12 0)
(3 5.87588e-14 0)
(3 -1.68401e-15 0)
(3 -8.53026e-16 0)
(3 2.51812e-15 0)
(3 1.27803e-15 0)
(3 2.33417e-15 0)
(3 3.21837e-15 0)
(3 2.51071e-15 0)
(3 3.41896e-16 0)
(3 6.31333e-16 0)
(1.58032 1.24502 0)
(1.60381 1.25093 0)
(1.61766 1.25548 0)
(1.61271 1.26993 0)
(1.71705 1.20938 0)
(2.25146 0.774347 0)
(3.00338 -0.00903371 0)
(3.00019 -0.000546833 0)
(3 5.70499e-07 0)
(3 6.60992e-11 0)
(3 -2.8653e-13 0)
(3 -1.4749e-15 0)
(3 -1.86299e-15 0)
(3 9.20567e-16 0)
(3 1.87847e-15 0)
(3 3.93438e-15 0)
(3 2.5557e-15 0)
(3 7.17497e-16 0)
(3 -4.01429e-16 0)
(3 1.94337e-16 0)
(1.58069 1.25214 0)
(1.60277 1.25329 0)
(1.62533 1.25937 0)
(1.64256 1.26728 0)
(1.91483 1.05343 0)
(2.78096 0.196043 0)
(3.00422 -0.000850489 0)
(2.99992 6.98964e-05 0)
(3 -7.86835e-07 0)
(3 8.43618e-10 0)
(3 -1.15791e-13 0)
(3 1.42418e-17 0)
(3 -2.49064e-15 0)
(3 -7.84845e-16 0)
(3 1.84377e-15 0)
(3 3.06349e-15 0)
(3 1.7377e-15 0)
(3 3.71272e-16 0)
(3 -2.30809e-16 0)
(3 2.97351e-16 0)
(1.58132 1.26331 0)
(1.59388 1.26876 0)
(1.62901 1.26492 0)
(1.65463 1.25813 0)
(2.31821 0.659666 0)
(3.02089 -0.0179592 0)
(2.99974 0.000145436 0)
(3 -4.18038e-06 0)
(3 8.11399e-08 0)
(3 -8.84754e-10 0)
(3 4.04566e-13 0)
(3 -2.90862e-15 0)
(3 -1.49388e-15 0)
(3 -7.90294e-16 0)
(3 7.34278e-16 0)
(3 1.48315e-15 0)
(3 1.37772e-15 0)
(3 2.50937e-16 0)
(3 -1.0801e-15 0)
(3 4.07511e-17 0)
(1.58135 1.28275 0)
(1.5881 1.28228 0)
(1.64417 1.26415 0)
(1.779 1.15405 0)
(2.68166 0.265887 0)
(3 -5.89025e-10 0)
(3 1.38419e-08 0)
(3 -1.24574e-08 0)
(3 5.30303e-10 0)
(3 2.42e-12 0)
(3 -1.07377e-13 0)
(3 2.65124e-15 0)
(3 -1.12848e-15 0)
(3 -1.03559e-15 0)
(3 2.56343e-16 0)
(3 8.38202e-16 0)
(3 8.09016e-16 0)
(3 -4.25867e-17 0)
(3 -1.42791e-15 0)
(3 -8.94779e-16 0)
(1.58176 1.29637 0)
(1.55163 1.30807 0)
(1.68201 1.23389 0)
(2.20181 0.82086 0)
(3.02289 -0.0221723 0)
(3 -4.70646e-13 0)
(3 6.10147e-13 0)
(3 3.95678e-13 0)
(3 -1.22497e-12 0)
(3 1.10501e-14 0)
(3 3.04173e-15 0)
(3 1.85303e-15 0)
(3 7.66904e-16 0)
(3 -3.56382e-16 0)
(3 -1.063e-16 0)
(3 2.10072e-16 0)
(3 6.0842e-17 0)
(3 -6.60387e-16 0)
(3 -1.46587e-15 0)
(3 -2.29409e-15 0)
(1.59533 1.3314 0)
(1.4965 1.33665 0)
(1.73097 1.18549 0)
(2.39208 0.552245 0)
(3 -2.00551e-07 0)
(3 -1.48757e-13 0)
(3 -3.86918e-15 0)
(3 1.97599e-14 0)
(3 -6.5469e-15 0)
(3 3.12813e-15 0)
(3 3.24754e-15 0)
(3 2.95406e-15 0)
(3 2.0725e-15 0)
(3 7.41932e-16 0)
(3 1.88677e-16 0)
(3 -1.80206e-16 0)
(3 -4.89689e-16 0)
(3 -9.41927e-16 0)
(3 -2.47637e-15 0)
(3 -1.46434e-15 0)
(1.58894 1.30357 0)
(1.47561 1.35115 0)
(1.96191 1.0269 0)
(2.87348 0.109983 0)
(3 -7.03383e-09 0)
(3 2.71869e-11 0)
(3 -5.95505e-14 0)
(3 2.85948e-15 0)
(3 4.34938e-15 0)
(3 3.8381e-15 0)
(3 3.89691e-15 0)
(3 3.8586e-15 0)
(3 3.17064e-15 0)
(3 2.12237e-15 0)
(3 2.13232e-16 0)
(3 -4.2437e-16 0)
(3 -1.10537e-15 0)
(3 -1.55755e-15 0)
(3 -1.96773e-15 0)
(3 -1.25041e-15 0)
(1.6019 1.28974 0)
(1.47618 1.37547 0)
(2.18723 0.808917 0)
(3.0103 -0.00840878 0)
(3 2.10638e-08 0)
(3 -2.06524e-11 0)
(3 2.66112e-14 0)
(3 2.39714e-16 0)
(3 1.56622e-15 0)
(3 3.62448e-15 0)
(3 4.65256e-15 0)
(3 5.02398e-15 0)
(3 4.14407e-15 0)
(3 4.10371e-15 0)
(3 2.1772e-15 0)
(3 7.05299e-16 0)
(3 1.43144e-16 0)
(3 -3.47886e-16 0)
(3 -8.21525e-16 0)
(3 -1.01565e-15 0)
(1.61883 1.27826 0)
(1.55373 1.32886 0)
(2.40517 0.557667 0)
(3 -2.33214e-12 0)
(3 -1.86989e-11 0)
(3 2.80667e-13 0)
(3 -3.80421e-15 0)
(3 -3.51791e-15 0)
(3 -1.95783e-15 0)
(3 -2.65062e-17 0)
(3 3.05197e-15 0)
(3 4.2022e-15 0)
(3 4.73111e-15 0)
(3 5.06754e-15 0)
(3 3.96598e-15 0)
(3 2.36189e-15 0)
(3 2.45066e-15 0)
(3 3.29118e-15 0)
(3 2.43524e-15 0)
(3 6.23497e-16 0)
(1.63629 1.26579 0)
(1.64208 1.2433 0)
(2.65238 0.29247 0)
(3 6.11704e-13 0)
(3 -9.81041e-14 0)
(3 -5.83249e-15 0)
(3 -3.65054e-15 0)
(3 -3.65716e-15 0)
(3 -2.86931e-15 0)
(3 -1.4306e-15 0)
(3 -1.31231e-15 0)
(3 -3.71513e-16 0)
(3 3.24508e-15 0)
(3 4.83909e-15 0)
(3 3.31077e-15 0)
(3 2.17926e-15 0)
(3 2.22203e-15 0)
(3 4.3296e-15 0)
(3 4.91621e-15 0)
(3 3.99199e-15 0)
(1.65282 1.24005 0)
(1.81765 1.10489 0)
(2.86436 0.10266 0)
(3 -5.98055e-15 0)
(3 -3.65215e-15 0)
(3 -3.94766e-15 0)
(3 -3.54413e-15 0)
(3 -3.04888e-15 0)
(3 -2.48469e-15 0)
(3 -2.38033e-15 0)
(3 -2.08909e-15 0)
(3 -9.11912e-16 0)
(3 5.80585e-19 0)
(3 7.55205e-16 0)
(3 5.22174e-16 0)
(3 1.02335e-15 0)
(3 2.14883e-15 0)
(3 2.57931e-15 0)
(3 4.30277e-15 0)
(3 4.42589e-15 0)
(1.66211 1.20605 0)
(1.88281 0.97864 0)
(2.9793 0.0135816 0)
(3 -3.13713e-15 0)
(3 -3.20216e-15 0)
(3 -4.09801e-15 0)
(3 -4.7835e-15 0)
(3 -4.97449e-15 0)
(3 -4.21908e-15 0)
(3 -3.48103e-15 0)
(3 -3.29639e-15 0)
(3 -2.31811e-15 0)
(3 -1.33076e-15 0)
(3 -9.37003e-16 0)
(3 -1.34869e-15 0)
(3 -1.10039e-15 0)
(3 -1.54063e-15 0)
(3 -6.07237e-16 0)
(3 2.5423e-16 0)
(3 1.30119e-15 0)
(1.72484 1.16689 0)
(2.07201 0.813823 0)
(3 -3.97914e-15 0)
(3 -3.70402e-15 0)
(3 -4.29303e-15 0)
(3 -4.95008e-15 0)
(3 -5.19594e-15 0)
(3 -5.45965e-15 0)
(3 -5.20193e-15 0)
(3 -4.79157e-15 0)
(3 -4.06732e-15 0)
(3 -3.73714e-15 0)
(3 -3.22066e-15 0)
(3 -3.02336e-15 0)
(3 -2.56133e-15 0)
(3 -2.412e-15 0)
(3 -1.90993e-15 0)
(3 -1.45041e-15 0)
(3 -1.17749e-15 0)
(3 -7.29421e-16 0)
(1.77085 1.09548 0)
(2.23563 0.652252 0)
(3 -4.68637e-15 0)
(3 -4.35998e-15 0)
(3 -4.27935e-15 0)
(3 -4.72593e-15 0)
(3 -4.69089e-15 0)
(3 -4.63906e-15 0)
(3 -4.58942e-15 0)
(3 -4.94943e-15 0)
(3 -4.58114e-15 0)
(3 -4.07893e-15 0)
(3 -3.90478e-15 0)
(3 -4.333e-15 0)
(3 -4.70816e-15 0)
(3 -4.43519e-15 0)
(3 -4.71028e-15 0)
(3 -4.49121e-15 0)
(3 -3.38366e-15 0)
(3 -2.62489e-15 0)
(1.80286 1.01122 0)
(2.42825 0.453995 0)
(3 -2.74676e-15 0)
(3 -2.94162e-15 0)
(3 -2.91264e-15 0)
(3 -3.34e-15 0)
(3 -4.19129e-15 0)
(3 -5.55602e-15 0)
(3 -5.27513e-15 0)
(3 -5.69491e-15 0)
(3 -5.81843e-15 0)
(3 -5.40967e-15 0)
(3 -4.8185e-15 0)
(3 -4.57379e-15 0)
(3 -4.54157e-15 0)
(3 -4.40671e-15 0)
(3 -4.29256e-15 0)
(3 -4.57372e-15 0)
(3 -4.45033e-15 0)
(3 -4.14845e-15 0)
(1.9395 0.886077 0)
(2.6988 0.219594 0)
(3 -1.54294e-15 0)
(3 -1.81168e-15 0)
(3 -1.99778e-15 0)
(3 -1.68163e-15 0)
(3 -1.50745e-15 0)
(3 -1.36218e-15 0)
(3 -1.79249e-15 0)
(3 -2.34417e-15 0)
(3 -2.88532e-15 0)
(3 -2.87076e-15 0)
(3 -2.37251e-15 0)
(3 -2.05617e-15 0)
(3 -1.45378e-15 0)
(3 -1.40867e-15 0)
(3 -1.10212e-15 0)
(3 -1.04722e-15 0)
(3 -8.8587e-16 0)
(3 -7.85407e-16 0)
(2.10308 0.649876 0)
(2.99051 0.000226171 0)
(3 -5.48609e-16 0)
(3 -1.23041e-15 0)
(3 -1.26105e-15 0)
(3 -1.45387e-15 0)
(3 -1.40294e-15 0)
(3 -1.26466e-15 0)
(3 -1.39969e-15 0)
(3 -2.41414e-15 0)
(3 -3.23738e-15 0)
(3 -3.65344e-15 0)
(3 -3.40002e-15 0)
(3 -2.87115e-15 0)
(3 -2.72059e-15 0)
(3 -2.57044e-15 0)
(3 -2.52483e-15 0)
(3 -2.25182e-15 0)
(3 -2.05815e-15 0)
(3 -1.80477e-15 0)
(1.9948 0.373518 0)
(2.99993 -8.43254e-06 0)
(3 -1.18365e-15 0)
(3 -5.71485e-16 0)
(3 -5.70533e-16 0)
(3 -1.03863e-15 0)
(3 -1.29321e-15 0)
(3 -1.16858e-15 0)
(3 -5.44994e-16 0)
(3 -6.69343e-16 0)
(3 -1.43346e-15 0)
(3 -2.02885e-15 0)
(3 -1.98822e-15 0)
(3 -1.73024e-15 0)
(3 -1.88092e-15 0)
(3 -2.00701e-15 0)
(3 -2.07749e-15 0)
(3 -2.14679e-15 0)
(3 -2.13709e-15 0)
(3 -2.13665e-15 0)
(1.99493 -0.373883 0)
(2.99993 7.73049e-06 0)
(3 -8.00556e-16 0)
(3 -7.22333e-16 0)
(3 -8.41548e-16 0)
(3 -7.05614e-16 0)
(3 -9.70319e-16 0)
(3 -1.28155e-15 0)
(3 -1.32182e-15 0)
(3 -4.61475e-16 0)
(3 7.82964e-17 0)
(3 3.05163e-16 0)
(3 5.22169e-17 0)
(3 -3.74438e-16 0)
(3 -5.5065e-16 0)
(3 -6.00762e-16 0)
(3 -5.60375e-16 0)
(3 -3.43829e-16 0)
(3 -2.33659e-16 0)
(3 -1.43058e-16 0)
(2.10432 -0.64861 0)
(2.9906 -0.000243248 0)
(3 -3.96412e-15 0)
(3 -1.6669e-15 0)
(3 -1.70648e-15 0)
(3 -1.77839e-15 0)
(3 -2.09223e-15 0)
(3 -2.1244e-15 0)
(3 -2.09342e-15 0)
(3 -1.70311e-15 0)
(3 -8.36154e-16 0)
(3 -3.89857e-16 0)
(3 -9.92353e-17 0)
(3 5.49971e-17 0)
(3 1.62721e-16 0)
(3 5.51254e-16 0)
(3 5.41188e-16 0)
(3 3.42283e-16 0)
(3 1.23052e-16 0)
(3 -7.14944e-18 0)
(1.94118 -0.887126 0)
(2.69889 -0.219815 0)
(3 -8.93073e-17 0)
(3 -7.41397e-16 0)
(3 -1.18189e-15 0)
(3 -1.96707e-15 0)
(3 -2.35453e-15 0)
(3 -2.41008e-15 0)
(3 -2.05921e-15 0)
(3 -1.70428e-15 0)
(3 -1.31642e-15 0)
(3 -4.03792e-16 0)
(3 2.36666e-16 0)
(3 8.12822e-16 0)
(3 1.20822e-15 0)
(3 1.15455e-15 0)
(3 8.49052e-16 0)
(3 1.71684e-16 0)
(3 -2.7422e-16 0)
(3 -4.54622e-16 0)
(1.80132 -1.01215 0)
(2.42427 -0.456412 0)
(3 4.31974e-15 0)
(3 3.76433e-15 0)
(3 3.4392e-15 0)
(3 2.30643e-15 0)
(3 -1.91756e-16 0)
(3 4.59854e-16 0)
(3 1.59202e-15 0)
(3 2.28727e-15 0)
(3 2.17785e-15 0)
(3 2.2547e-15 0)
(3 2.49862e-15 0)
(3 2.38505e-15 0)
(3 2.03202e-15 0)
(3 1.49323e-15 0)
(3 1.2253e-15 0)
(3 1.01087e-15 0)
(3 7.62543e-16 0)
(3 6.09443e-16 0)
(1.76598 -1.09449 0)
(2.23352 -0.653006 0)
(3 5.43605e-16 0)
(3 2.01837e-15 0)
(3 1.22739e-15 0)
(3 6.28989e-16 0)
(3 6.44158e-17 0)
(3 1.02265e-15 0)
(3 1.7135e-15 0)
(3 1.59006e-15 0)
(3 1.72502e-15 0)
(3 1.95244e-15 0)
(3 1.92047e-15 0)
(3 1.41226e-15 0)
(3 2.97898e-16 0)
(3 -6.04721e-16 0)
(3 -9.08803e-16 0)
(3 -1.13223e-15 0)
(3 -1.64539e-15 0)
(3 -2.59416e-15 0)
(1.7285 -1.16752 0)
(2.07505 -0.813444 0)
(3 -5.46593e-16 0)
(3 -2.39802e-15 0)
(3 -2.01595e-15 0)
(3 -2.18276e-15 0)
(3 -1.5466e-15 0)
(3 -8.77898e-16 0)
(3 -7.47616e-17 0)
(3 3.99699e-16 0)
(3 9.43884e-16 0)
(3 1.15729e-15 0)
(3 1.07387e-15 0)
(3 -1.99337e-16 0)
(3 -7.54181e-16 0)
(3 -2.13434e-15 0)
(3 -2.66268e-15 0)
(3 -2.64042e-15 0)
(3 -3.18045e-15 0)
(3 -2.95171e-15 0)
(1.66351 -1.20558 0)
(1.88512 -0.977046 0)
(2.9805 -0.0125149 0)
(3 -1.28088e-15 0)
(3 -2.04294e-15 0)
(3 -1.84376e-15 0)
(3 -1.66843e-15 0)
(3 -1.74628e-15 0)
(3 -1.14591e-15 0)
(3 -1.0331e-16 0)
(3 3.47557e-16 0)
(3 -4.90488e-17 0)
(3 -1.36112e-15 0)
(3 -2.5015e-15 0)
(3 -4.16555e-15 0)
(3 -3.67727e-15 0)
(3 -2.43182e-15 0)
(3 -3.10517e-15 0)
(3 -2.85264e-15 0)
(3 -2.67531e-15 0)
(1.65293 -1.23881 0)
(1.81424 -1.10387 0)
(2.8644 -0.1017 0)
(3 7.83944e-16 0)
(3 -1.12286e-15 0)
(3 -1.29898e-15 0)
(3 -1.30824e-15 0)
(3 -1.66719e-15 0)
(3 -1.56842e-15 0)
(3 -1.30881e-15 0)
(3 -9.47678e-16 0)
(3 -2.20679e-15 0)
(3 -3.25472e-15 0)
(3 -4.01126e-15 0)
(3 -3.96535e-15 0)
(3 -3.50394e-15 0)
(3 -3.17814e-15 0)
(3 -3.06738e-15 0)
(3 -2.62988e-15 0)
(3 -2.66926e-15 0)
(1.63624 -1.26684 0)
(1.64606 -1.24096 0)
(2.65185 -0.292146 0)
(3 -7.83008e-13 0)
(3 1.16386e-13 0)
(3 1.55606e-15 0)
(3 -1.26095e-15 0)
(3 -1.69409e-15 0)
(3 -1.73423e-15 0)
(3 -1.51398e-15 0)
(3 -1.91299e-15 0)
(3 -3.002e-15 0)
(3 -3.32365e-15 0)
(3 -3.40588e-15 0)
(3 -3.02579e-15 0)
(3 -2.69188e-15 0)
(3 -2.14077e-15 0)
(3 -1.83847e-15 0)
(3 -1.03083e-15 0)
(3 3.42027e-16 0)
(1.6183 -1.27903 0)
(1.55242 -1.32947 0)
(2.40297 -0.559552 0)
(3 2.7681e-12 0)
(3 2.02704e-11 0)
(3 -3.25449e-13 0)
(3 1.61987e-15 0)
(3 -2.14889e-15 0)
(3 -2.09552e-15 0)
(3 -2.28427e-15 0)
(3 -3.15067e-15 0)
(3 -3.41657e-15 0)
(3 -2.71527e-15 0)
(3 -1.55184e-15 0)
(3 -1.94739e-15 0)
(3 -1.9764e-15 0)
(3 -1.36595e-15 0)
(3 3.13292e-16 0)
(3 1.93659e-15 0)
(3 3.47221e-15 0)
(1.601 -1.28989 0)
(1.47338 -1.37919 0)
(2.17998 -0.815869 0)
(3.01034 0.00839539 0)
(3 -2.41495e-08 0)
(3 3.66755e-11 0)
(3 -7.90331e-14 0)
(3 -2.16393e-15 0)
(3 -1.68033e-15 0)
(3 -1.94452e-15 0)
(3 -2.57435e-15 0)
(3 -2.24025e-15 0)
(3 -6.01331e-16 0)
(3 3.7255e-16 0)
(3 -2.17701e-16 0)
(3 -4.5203e-16 0)
(3 5.38328e-16 0)
(3 2.87671e-15 0)
(3 3.42462e-15 0)
(3 3.35856e-15 0)
(1.5882 -1.30295 0)
(1.47623 -1.34781 0)
(1.97241 -1.02479 0)
(2.87877 -0.107575 0)
(3 7.37026e-09 0)
(3 -4.26016e-11 0)
(3 1.43282e-13 0)
(3 -1.98835e-15 0)
(3 -1.43698e-15 0)
(3 -2.69095e-16 0)
(3 -1.22917e-15 0)
(3 -1.87383e-16 0)
(3 1.58767e-15 0)
(3 1.86282e-15 0)
(3 5.84833e-16 0)
(3 1.26292e-16 0)
(3 2.50956e-15 0)
(3 2.86992e-15 0)
(3 2.24115e-15 0)
(3 2.5636e-15 0)
(1.59511 -1.33136 0)
(1.49795 -1.3364 0)
(1.72663 -1.18864 0)
(2.38738 -0.555046 0)
(3 1.33206e-07 0)
(3 -3.77319e-12 0)
(3 -3.33757e-14 0)
(3 -4.00531e-15 0)
(3 3.49962e-15 0)
(3 -7.06585e-16 0)
(3 -6.44605e-16 0)
(3 1.69626e-16 0)
(3 2.25433e-15 0)
(3 1.06046e-15 0)
(3 7.8774e-16 0)
(3 1.27357e-16 0)
(3 1.3346e-15 0)
(3 1.60609e-15 0)
(3 1.77318e-15 0)
(3 2.00817e-15 0)
(1.58227 -1.29673 0)
(1.55134 -1.30666 0)
(1.68311 -1.23051 0)
(2.19988 -0.818476 0)
(3.0228 0.0219132 0)
(3 2.14463e-12 0)
(3 1.15126e-12 0)
(3 -1.00747e-12 0)
(3 1.2527e-12 0)
(3 -1.25419e-14 0)
(3 -1.69204e-15 0)
(3 8.08189e-16 0)
(3 1.40124e-15 0)
(3 9.92905e-16 0)
(3 1.44221e-15 0)
(3 -1.15821e-16 0)
(3 1.3897e-16 0)
(3 1.35265e-15 0)
(3 1.57604e-15 0)
(3 1.22907e-15 0)
(1.58175 -1.28317 0)
(1.58884 -1.28304 0)
(1.64477 -1.26384 0)
(1.78925 -1.14569 0)
(2.68601 -0.260802 0)
(3 5.912e-10 0)
(3 -1.38485e-08 0)
(3 1.24626e-08 0)
(3 -5.30615e-10 0)
(3 -2.35127e-12 0)
(3 1.21792e-13 0)
(3 -4.84092e-16 0)
(3 2.16447e-15 0)
(3 6.97545e-16 0)
(3 5.52667e-16 0)
(3 -8.48632e-16 0)
(3 -6.6647e-16 0)
(3 1.03998e-15 0)
(3 1.12697e-15 0)
(3 1.27541e-15 0)
(1.58213 -1.26457 0)
(1.59441 -1.27049 0)
(1.6278 -1.26559 0)
(1.64259 -1.26721 0)
(2.31188 -0.664057 0)
(3.02126 0.0183289 0)
(2.99974 -0.000139051 0)
(3 4.16944e-06 0)
(3 -8.13247e-08 0)
(3 8.89439e-10 0)
(3 -1.04718e-12 0)
(3 1.4598e-15 0)
(3 8.75813e-16 0)
(3 4.05893e-16 0)
(3 1.14002e-16 0)
(3 -7.14359e-16 0)
(3 -5.63264e-16 0)
(3 2.69973e-16 0)
(3 9.31657e-16 0)
(3 1.49669e-15 0)
(1.58135 -1.25237 0)
(1.60311 -1.255 0)
(1.62549 -1.26074 0)
(1.63889 -1.26942 0)
(1.9158 -1.0528 0)
(2.77878 -0.199091 0)
(3.0042 0.000686382 0)
(2.99992 -6.75312e-05 0)
(3 8.06884e-07 0)
(3 -8.56943e-10 0)
(3 -1.30981e-13 0)
(3 3.66894e-15 0)
(3 -9.47941e-16 0)
(3 -7.45752e-16 0)
(3 1.36402e-18 0)
(3 -1.15396e-15 0)
(3 6.08953e-16 0)
(3 5.99163e-16 0)
(3 3.32838e-17 0)
(3 9.3441e-16 0)
(1.57977 -1.24602 0)
(1.60335 -1.25178 0)
(1.61771 -1.25629 0)
(1.61147 -1.27023 0)
(1.72063 -1.2075 0)
(2.25035 -0.774687 0)
(3.00404 0.00956582 0)
(3.00014 0.00048057 0)
(3 -6.04465e-07 0)
(3 -6.40489e-11 0)
(3 -9.97361e-14 0)
(3 2.22427e-15 0)
(3 -1.53425e-15 0)
(3 -1.24421e-15 0)
(3 9.74528e-17 0)
(3 -2.7649e-16 0)
(3 8.06924e-16 0)
(3 2.62923e-17 0)
(3 6.34451e-16 0)
(3 1.68089e-15 0)
(1.57964 -1.24351 0)
(1.59265 -1.25345 0)
(1.60615 -1.26171 0)
(1.60932 -1.2742 0)
(1.63661 -1.26772 0)
(1.71402 -1.21408 0)
(2.24319 -0.741857 0)
(2.9932 -0.0182527 0)
(3 -4.9318e-08 0)
(3 5.38126e-11 0)
(3 -1.7352e-14 0)
(3 4.81126e-14 0)
(3 -2.16848e-15 0)
(3 -1.77411e-15 0)
(3 -7.03394e-16 0)
(3 -1.04499e-16 0)
(3 -1.85128e-16 0)
(3 2.166e-16 0)
(3 1.06464e-15 0)
(3 1.57337e-15 0)
(1.58165 -1.2588 0)
(1.58683 -1.26342 0)
(1.59538 -1.26752 0)
(1.6027 -1.26645 0)
(1.60662 -1.25873 0)
(1.59287 -1.26822 0)
(1.88679 -1.17327 0)
(2.9551 -0.401772 0)
(3.35069 0.618714 0)
(3 -6.05554e-11 0)
(3 7.79091e-11 0)
(3 -8.29413e-11 0)
(3 -3.76571e-15 0)
(3 4.64621e-13 0)
(3 1.4722e-14 0)
(3 -1.9412e-14 0)
(3 1.24866e-14 0)
(3 1.71164e-15 0)
(3 3.09408e-15 0)
(3 4.74065e-15 0)
(1.1625 -0.777587 0)
(1.83872 -1.14379 0)
(1.8414 -1.1559 0)
(1.74207 -1.19752 0)
(1.71572 -1.20038 0)
(1.66137 -1.24455 0)
(1.65353 -1.21669 0)
(1.72325 -1.169 0)
(1.7569 -1.23701 0)
(1.79702 -1.14708 0)
(2.28286 -0.736758 0)
(2.8658 -0.202367 0)
(3.09906 0.0311627 0)
(3.02119 0.0129092 0)
(3.00467 0.00562153 0)
(3.00183 0.00305376 0)
(3.00005 0.000583012 0)
(2.99998 2.11145e-05 0)
(2.99999 -1.43009e-05 0)
(3 -5.89663e-06 0)
(1.00647 -0.0292268 0)
(1.91428 -0.818934 0)
(2.12922 -0.792022 0)
(2.00294 -0.962088 0)
(1.95342 -0.99593 0)
(1.86703 -1.08622 0)
(1.79263 -1.13134 0)
(1.76072 -1.14715 0)
(1.7597 -1.1634 0)
(1.74055 -1.20366 0)
(1.72405 -1.19431 0)
(1.86938 -1.06536 0)
(2.09547 -0.883762 0)
(2.4932 -0.583111 0)
(2.98171 -0.141493 0)
(3.07386 0.0286805 0)
(3.00818 0.00767749 0)
(3.00291 0.00380191 0)
(3.00122 0.00217533 0)
(3.00008 0.000481302 0)
(1.16358 0.124192 0)
(1.92752 0.177627 0)
(2.22641 -0.495424 0)
(2.25279 -0.514615 0)
(2.20454 -0.612444 0)
(2.14255 -0.753582 0)
(2.02733 -0.909172 0)
(1.96509 -0.966551 0)
(1.91129 -1.03062 0)
(1.86066 -1.11912 0)
(1.79843 -1.15721 0)
(1.78847 -1.15058 0)
(1.80442 -1.13122 0)
(1.84593 -1.08934 0)
(2.03946 -0.953011 0)
(2.25836 -0.831481 0)
(2.66427 -0.506158 0)
(3.03656 -0.0925413 0)
(3.05527 0.0239576 0)
(3.00402 0.00467706 0)
(1.12593 0.405129 0)
(1.84094 0.775496 0)
(2.17692 0.913895 0)
(2.30101 -0.152299 0)
(2.34309 -0.333506 0)
(2.33721 -0.363589 0)
(2.28613 -0.502361 0)
(2.20674 -0.651846 0)
(2.14246 -0.756883 0)
(2.09596 -0.888073 0)
(1.98813 -0.999782 0)
(1.91701 -1.06218 0)
(1.87706 -1.08723 0)
(1.86372 -1.09527 0)
(1.86928 -1.05877 0)
(1.89805 -1.04832 0)
(1.96441 -1.01955 0)
(2.16718 -0.899727 0)
(2.38311 -0.788473 0)
(2.77798 -0.439927 0)
(0.816362 0.637211 0)
(1.57329 1.66105 0)
(1.97759 1.5732 0)
(2.17703 0.89088 0)
(2.37143 0.612069 0)
(2.40849 0.0263842 0)
(2.44246 -0.191857 0)
(2.37965 -0.426991 0)
(2.3317 -0.510317 0)
(2.30453 -0.643458 0)
(2.21009 -0.787769 0)
(2.11934 -0.894193 0)
(2.05921 -0.945243 0)
(2.0095 -0.987327 0)
(1.98394 -0.973621 0)
(1.96247 -0.981238 0)
(1.95729 -1.00738 0)
(1.97076 -0.994188 0)
(1.99411 -0.995445 0)
(2.06843 -0.98065 0)
(0.667732 0.672631 0)
(1.52226 1.50858 0)
(2.22894 1.66521 0)
(2.09177 1.43572 0)
(2.2196 1.20801 0)
(2.39384 0.735513 0)
(2.47084 0.343178 0)
(2.49684 0.123213 0)
(2.44817 -0.118236 0)
(2.46022 -0.235752 0)
(2.40791 -0.410794 0)
(2.34105 -0.545132 0)
(2.28847 -0.631185 0)
(2.23129 -0.709357 0)
(2.18355 -0.755597 0)
(2.1391 -0.795963 0)
(2.07579 -0.868264 0)
(2.0476 -0.909317 0)
(2.02925 -0.943303 0)
(2.0598 -0.956728 0)
(0.818915 0.806392 0)
(1.26939 1.0982 0)
(2.16963 1.70763 0)
(2.27545 1.76881 0)
(2.34625 1.37916 0)
(2.34277 1.23587 0)
(2.42272 0.877362 0)
(2.47242 0.626461 0)
(2.48449 0.420302 0)
(2.51166 0.246925 0)
(2.53049 0.0432625 0)
(2.48307 -0.179722 0)
(2.46265 -0.327772 0)
(2.40116 -0.483664 0)
(2.3454 -0.599458 0)
(2.30124 -0.654291 0)
(2.22398 -0.739639 0)
(2.20294 -0.733205 0)
(2.18515 -0.753251 0)
(2.14923 -0.774773 0)
(1.01812 0.891953 0)
(1.24865 1.06457 0)
(1.77326 1.68004 0)
(2.12158 2.12684 0)
(2.60108 1.44298 0)
(2.4693 1.51985 0)
(2.58356 1.10841 0)
(2.63153 0.754756 0)
(2.625 0.663095 0)
(2.62692 0.362665 0)
(2.66146 0.17501 0)
(2.60387 -0.0808116 0)
(2.58498 -0.215355 0)
(2.52818 -0.361392 0)
(2.48747 -0.431625 0)
(2.44819 -0.452426 0)
(2.41253 -0.451434 0)
(2.40151 -0.42912 0)
(2.32399 -0.539717 0)
(2.31888 -0.525033 0)
(1.15588 0.985717 0)
(1.28628 1.09463 0)
(1.6733 1.66441 0)
(1.73153 2.0522 0)
(2.26116 1.6788 0)
(2.52396 1.72076 0)
(2.7384 1.33082 0)
(2.79059 0.843289 0)
(2.79901 0.629883 0)
(2.74205 0.433381 0)
(2.72926 0.31629 0)
(2.69374 0.166204 0)
(2.66777 0.0925428 0)
(2.6467 0.0174727 0)
(2.60858 -0.0491957 0)
(2.57906 -0.0717364 0)
(2.55333 -0.115745 0)
(2.51211 -0.226147 0)
(2.44205 -0.378736 0)
(2.4467 -0.364953 0)
(1.27893 1.11534 0)
(1.33015 1.20272 0)
(1.53155 1.6824 0)
(1.67348 1.96998 0)
(1.83873 1.82369 0)
(2.05623 1.74094 0)
(2.25724 1.55507 0)
(2.43856 1.21649 0)
(2.57862 1.06075 0)
(2.59281 1.0568 0)
(2.61391 0.868659 0)
(2.63066 0.711084 0)
(2.62392 0.555508 0)
(2.66523 0.471515 0)
(2.64228 0.28473 0)
(2.66058 0.181363 0)
(2.6349 -0.00994944 0)
(2.59859 -0.152708 0)
(2.53456 -0.231897 0)
(2.57301 -0.119833 0)
(1.39284 1.31306 0)
(1.3643 1.40739 0)
(1.423 1.76743 0)
(1.64944 1.91728 0)
(1.78226 1.86357 0)
(1.95369 1.76071 0)
(2.09525 1.72045 0)
(2.26657 1.53484 0)
(2.33339 1.41398 0)
(2.38395 1.35013 0)
(2.47423 1.14155 0)
(2.56039 0.990267 0)
(2.61072 0.754147 0)
(2.72372 0.63602 0)
(2.70305 0.351776 0)
(2.72038 0.220059 0)
(2.69973 0.0453769 0)
(2.66605 0.0291024 0)
(2.64205 0.0986269 0)
(2.62051 0.0560399 0)
(1.5236 1.54893 0)
(1.4411 1.70644 0)
(1.41703 1.97447 0)
(1.63704 1.97241 0)
(1.75769 1.98079 0)
(1.88815 1.83088 0)
(1.99046 1.81318 0)
(2.16281 1.62454 0)
(2.26131 1.51644 0)
(2.39483 1.42414 0)
(2.52635 1.16131 0)
(2.64489 0.984256 0)
(2.68884 0.732722 0)
(2.75123 0.620794 0)
(2.76013 0.45766 0)
(2.75715 0.438837 0)
(2.7455 0.349323 0)
(2.71943 0.413418 0)
(2.71057 0.432533 0)
(2.66884 0.242985 0)
(1.74936 1.63459 0)
(1.65899 1.83974 0)
(1.54335 2.1393 0)
(1.69874 2.10978 0)
(1.78232 2.04362 0)
(1.96344 1.85818 0)
(2.03834 1.87845 0)
(2.23809 1.66343 0)
(2.41288 1.57404 0)
(2.56423 1.36073 0)
(2.64701 1.26316 0)
(2.72318 1.07777 0)
(2.73283 1.04141 0)
(2.7474 0.988775 0)
(2.75195 0.895662 0)
(2.72985 0.838245 0)
(2.71287 0.746995 0)
(2.74396 0.762144 0)
(2.73757 0.621655 0)
(2.73797 0.398671 0)
(1.91241 1.63201 0)
(1.9491 1.681 0)
(1.78175 2.143 0)
(1.82294 2.20907 0)
(1.95191 2.11364 0)
(2.06876 2.00538 0)
(2.19486 1.96634 0)
(2.34576 1.80522 0)
(2.44811 1.78727 0)