/*--------------------------------*- C++ -*----------------------------------*\
  =========                 |
  \\      /  F ield         | OpenFOAM: The Open Source CFD Toolbox
   \\    /   O peration     | Website:  https://openfoam.org
    \\  /    A nd           | Version:  7
     \\/     M anipulation  |
\*---------------------------------------------------------------------------*/
FoamFile
{
    version     2.0;
    format      ascii;
    class       volScalarField;
    location    "9.4";
    object      p;
}
// * * * * * * * * * * * * * * * * * * * * * * * * * * * * * * * * * * * * * //

dimensions      [1 -1 -2 0 0 0 0];

internalField   nonuniform List<scalar> 
3700
(
0.198379
0.252285
0.318516
0.371466
0.359974
0.353118
0.361152
0.381296
0.40333
0.418608
0.437402
0.459779
0.465107
0.478045
0.486558
0.497212
0.516975
0.508973
0.513888
0.529689
0.128443
0.105384
0.11776
0.116868
0.0909867
0.0751129
0.088159
0.112002
0.133808
0.157964
0.183833
0.19269
0.181674
0.177862
0.182165
0.190004
0.193424
0.187722
0.190841
0.196113
0.114649
0.0910752
0.0801575
0.0554175
0.0409862
0.0451066
0.0525746
0.063026
0.0718379
0.0812516
0.0940493
0.0930614
0.0923639
0.0913592
0.0911711
0.0927208
0.0986292
0.109387
0.12145
0.136195
0.0978011
0.0838137
0.0731462
0.0460273
0.0390128
0.0439419
0.0513152
0.0613927
0.0719938
0.0844929
0.102869
0.117208
0.130195
0.136554
0.137177
0.138802
0.137125
0.138123
0.146695
0.173679
0.0799965
0.0716066
0.0592218
0.0409932
0.0392914
0.0465901
0.0545679
0.0618402
0.0710427
0.0829599
0.100528
0.118132
0.141722
0.162211
0.175084
0.187753
0.185752
0.186681
0.185829
0.202212
0.0668459
0.0589981
0.0460134
0.0416133
0.0480912
0.0609318
0.0706399
0.0774041
0.086178
0.0972279
0.103091
0.115117
0.140842
0.172747
0.199184
0.224053
0.24529
0.265585
0.274139
0.291038
0.0532676
0.0462653
0.0424002
0.0496597
0.0576958
0.0726582
0.0869964
0.102862
0.12283
0.143826
0.138178
0.143345
0.151343
0.17667
0.209916
0.248291
0.289149
0.330177
0.364767
0.418428
0.0420849
0.0367409
0.0432222
0.0537771
0.0628737
0.0767387
0.0922656
0.115556
0.154707
0.186293
0.2051
0.222282
0.230273
0.24742
0.263874
0.2932
0.335292
0.400061
0.45739
0.56183
0.0339549
0.0305432
0.0415571
0.0548815
0.0651191
0.0776888
0.0908971
0.116045
0.163553
0.212231
0.257114
0.291541
0.333305
0.371653
0.400078
0.430899
0.46019
0.512926
0.581131
0.734418
0.0285783
0.0265987
0.039073
0.0539706
0.0687424
0.0895071
0.0968072
0.116046
0.158282
0.221075
0.28785
0.344503
0.420621
0.480317
0.543907
0.60599
0.664536
0.718693
0.803984
0.948037
0.0246193
0.0247527
0.0416751
0.0613297
0.0878187
0.116542
0.133014
0.170302
0.217804
0.266002
0.337073
0.417769
0.514956
0.598185
0.693426
0.800698
0.907371
0.997049
1.15339
1.11841
0.0225793
0.0257175
0.0475244
0.0781542
0.114665
0.155941
0.203984
0.281741
0.372193
0.468944
0.558262
0.644567
0.732277
0.816077
0.908557
1.04312
1.20836
1.35487
1.5652
1.51392
0.0223829
0.0278986
0.0586635
0.101138
0.131932
0.182121
0.268684
0.383001
0.524248
0.688686
0.820609
0.949606
1.07131
1.18626
1.30845
1.46284
1.64554
1.82976
2.10738
2.09822
0.0220291
0.0306326
0.0661392
0.108097
0.127041
0.184125
0.320458
0.476043
0.679577
0.920116
1.11949
1.3103
1.49208
1.66753
1.88051
2.10915
2.3326
2.57982
2.8109
3.00467
0.0207666
0.0348948
0.0616162
0.0944067
0.123842
0.267763
0.495586
0.766247
1.10678
1.41982
1.67802
1.9055
2.13399
2.37602
2.68691
2.97293
3.24644
3.50063
3.66444
3.79113
0.0191871
0.0410394
0.0641827
0.0958941
0.294087
0.712936
1.10494
1.52038
1.9852
2.36957
2.64696
2.89932
3.15529
3.44353
3.76903
3.97094
4.08728
4.12824
4.0359
3.91036
0.0183311
0.0623863
0.142681
0.366047
0.891311
1.47785
2.03676
2.61183
3.20055
3.5751
3.79467
4.01244
4.20621
4.36645
4.47555
4.40375
4.1886
3.65535
2.79534
1.88923
0.0344554
0.129563
0.474392
1.20929
2.14212
2.89124
3.52422
4.1944
4.78544
4.84953
4.76999
4.74316
4.69031
4.51581
4.01313
3.06518
2.09549
1.33598
1.01927
0.99293
0.297138
0.861179
1.98588
3.16202
4.18773
4.85867
5.44595
5.89074
5.74451
5.29481
4.86798
4.3284
3.40723
2.3337
1.42905
1.03018
0.989395
0.994923
0.997318
0.999437
2.31583
3.63832
4.87292
5.70225
6.2822
6.44175
6.56441
6.23038
4.52678
3.19567
2.36101
1.55919
1.08045
0.987339
0.992896
0.996339
0.999188
0.999976
1.00002
1.00001
6.94897
6.89576
6.85364
6.9143
7.03023
6.77477
5.99466
2.322
0.65198
1
1
1
1
1
1
1
1
1
1
1
6.95122
6.88234
6.79081
6.73509
6.71741
5.76232
2.70573
1.03245
1
1
1
1
1
1
1
1
1
1
1
1
6.79703
6.84376
6.83171
6.70669
6.28483
3.3962
1.04026
0.999077
1
1
1
1
1
1
1
1
1
1
1
1
6.65747
6.79021
6.8235
6.67576
4.6993
1.38311
0.994016
1.00012
0.999999
1
1
1
1
1
1
1
1
1
1
1
6.55424
6.77548
6.79208
6.04589
2.67715
0.976194
1.00035
0.999994
1
1
1
1
1
1
1
1
1
1
1
1
6.47459
6.81401
6.76698
4.93741
1.49919
1
1
1
1
1
1
1
1
1
1
1
1
1
1
1
6.4208
6.76241
6.746
3.56232
0.973165
1
1
1
1
1
1
1
1
1
1
1
1
1
1
1
6.47303
6.62758
6.01316
2.03778
0.999999
1
1
1
1
1
1
1
1
1
1
1
1
1
1
1
6.96995
6.62555
4.86959
1.21737
1
1
1
1
1
1
1
1
1
1
1
1
1
1
1
1
7.29368
6.4245
3.40961
0.987901
1
1
1
1
1
1
1
1
1
1
1
1
1
1
1
1
7.44642
5.95657
2.30178
1
1
1
1
1
1
1
1
1
1
1
1
1
1
1
1
1
7.50725
5.38724
1.60487
1
1
1
1
1
1
1
1
1
1
1
1
1
1
1
1
1
7.52663
4.76626
1.17747
1
1
1
1
1
1
1
1
1
1
1
1
1
1
1
1
1
7.34298
4.03594
1.02111
1
1
1
1
1
1
1
1
1
1
1
1
1
1
1
1
1
7.22444
3.21252
1
1
1
1
1
1
1
1
1
1
1
1
1
1
1
1
1
1
6.97754
2.46981
1
1
1
1
1
1
1
1
1
1
1
1
1
1
1
1
1
1
6.61039
1.88772
1
1
1
1
1
1
1
1
1
1
1
1
1
1
1
1
1
1
6.35167
1.38137
1
1
1
1
1
1
1
1
1
1
1
1
1
1
1
1
1
1
5.71874
1.00634
1
1
1
1
1
1
1
1
1
1
1
1
1
1
1
1
1
1
4.63583
1.00007
1
1
1
1
1
1
1
1
1
1
1
1
1
1
1
1
1
1
4.63715
1.00006
1
1
1
1
1
1
1
1
1
1
1
1
1
1
1
1
1
1
5.69994
1.00631
1
1
1
1
1
1
1
1
1
1
1
1
1
1
1
1
1
1
6.36474
1.38372
1
1
1
1
1
1
1
1
1
1
1
1
1
1
1
1
1
1
6.61809
1.9054
1
1
1
1
1
1
1
1
1
1
1
1
1
1
1
1
1
1
6.94238
2.47148
1
1
1
1
1
1
1
1
1
1
1
1
1
1
1
1
1
1
7.24989
3.18935
1
1
1
1
1
1
1
1
1
1
1
1
1
1
1
1
1
1
7.34669
4.03208
1.02107
1
1
1
1
1
1
1
1
1
1
1
1
1
1
1
1
1
7.51478
4.76574
1.18139
1
1
1
1
1
1
1
1
1
1
1
1
1
1
1
1
1
7.49947
5.4005
1.6079
1
1
1
1
1
1
1
1
1
1
1
1
1
1
1
1
1
7.44013
5.95421
2.31196
1
1
1
1
1
1
1
1
1
1
1
1
1
1
1
1
1
7.29127
6.41827
3.41259
0.987986
1
1
1
1
1
1
1
1
1
1
1
1
1
1
1
1
6.98177
6.64576
4.87334
1.2073
1
1
1
1
1
1
1
1
1
1
1
1
1
1
1
1
6.46029
6.61816
6.00701
2.04887
0.999999
1
1
1
1
1
1
1
1
1
1
1
1
1
1
1
6.40658
6.72296
6.74382
3.55784
0.973039
1
1
1
1
1
1
1
1
1
1
1
1
1
1
1
6.47194
6.83144
6.78065
4.95194
1.49211
1
1
1
1
1
1
1
1
1
1
1
1
1
1
1
6.56563
6.79546
6.79415
6.0201
2.70068
0.975898
1.00035
0.999994
1
1
1
1
1
1
1
1
1
1
1
1
6.66666
6.79899
6.82607
6.66367
4.69352
1.37575
0.994318
1.00011
0.999999
1
1
1
1
1
1
1
1
1
1
1
6.79391
6.83845
6.83579
6.71839
6.31866
3.37312
1.03416
0.999247
1
1
1
1
1
1
1
1
1
1
1
1
6.95178
6.8865
6.80425
6.73826
6.6908
5.75979
2.70454
1.0335
1
1
1
1
1
1
1
1
1
1
1
1
6.95276
6.90035
6.8613
6.90353
7.0041
6.76906
6.00105
2.35244
0.645445
1
1
1
1
1
1
1
1
1
1
1
2.31614
3.63636
4.87374
5.69399
6.26833
6.44051
6.56234
6.23622
4.53165
3.19697
2.35906
1.55565
1.07871
0.98721
0.99284
0.996306
0.999183
0.999976
1.00002
1.00001
0.303494
0.880345
2.00722
3.17068
4.17639
4.85101
5.44422
5.89014
5.74251
5.29201
4.86594
4.32775
3.4075
2.33504
1.42967
1.03033
0.989402
0.994928
0.99732
0.999437
0.0248036
0.108708
0.475154
1.21033
2.15113
2.8975
3.52477
4.19313
4.77805
4.84681
4.77289
4.74941
4.6973
4.51799
4.00994
3.0623
2.09455
1.33587
1.01926
0.992922
0.0194888
0.0529954
0.121184
0.370965
0.899727
1.48712
2.04512
2.61608
3.20039
3.57542
3.80208
4.02277
4.21402
4.36734
4.47394
4.40226
4.18732
3.65446
2.79515
1.88973
0.0262506
0.0426928
0.0622721
0.0930629
0.27372
0.701536
1.09918
1.51325
1.9778
2.36385
2.64793
2.90345
3.15731
3.44275
3.7668
3.96727
4.08437
4.12765
4.03583
3.91123
0.0282362
0.0376118
0.0559779
0.0850961
0.131334
0.2696
0.489254
0.75619
1.09626
1.41284
1.67552
1.90554
2.13409
2.37596
2.6865
2.97218
3.24516
3.50037
3.66577
3.79209
0.0271446
0.0325983
0.0608745
0.103548
0.138545
0.191089
0.324799
0.47973
0.684223
0.926206
1.12553
1.31496
1.49462
1.66879
1.88029
2.10823
2.33065
2.57826
2.81046
3.0055
0.0247078
0.0297963
0.0558012
0.0985427
0.136222
0.188092
0.272763
0.386793
0.528426
0.691859
0.8233
0.950912
1.07171
1.18579
1.30723
1.46105
1.64424
1.82942
2.10824
2.09941
0.022489
0.0287552
0.0478316
0.0757621
0.113004
0.158641
0.204888
0.28115
0.370586
0.465159
0.553727
0.640496
0.729772
0.815069
0.909395
1.04511
1.20953
1.35548
1.5657
1.51393
0.0230892
0.0275915
0.0455036
0.0587157
0.0833412
0.11855
0.130718
0.166111
0.21296
0.262696
0.336282
0.418799
0.517394
0.600675
0.695687
0.801738
0.90709
0.995708
1.15282
1.11869
0.0264213
0.0289948
0.0433527
0.0528981
0.065094
0.0911302
0.0956733
0.115661
0.160265
0.224874
0.291394
0.347594
0.422803
0.481515
0.54371
0.604669
0.662446
0.717169
0.803563
0.948631
0.0319007
0.0316592
0.0450211
0.0537749
0.0620286
0.0777848
0.0925029
0.117976
0.166328
0.214748
0.259015
0.292645
0.33292
0.370321
0.397126
0.427403
0.457526
0.513156
0.582804
0.735453
0.0403831
0.0364317
0.0447943
0.0525236
0.0602083
0.0763434
0.0938738
0.117255
0.156409
0.18655
0.203498
0.220161
0.227205
0.243706
0.261109
0.292698
0.337253
0.402298
0.459017
0.562347
0.0526739
0.0456018
0.0423525
0.0483105
0.0556711
0.0718281
0.0875337
0.103064
0.122314
0.140694
0.135664
0.141127
0.150597
0.177748
0.212194
0.250808
0.291273
0.331231
0.364906
0.417395
0.0679383
0.0597866
0.0455159
0.0409068
0.0463119
0.0596172
0.0701747
0.0763515
0.0851682
0.095313
0.10279
0.116085
0.142812
0.174927
0.201189
0.225534
0.245701
0.265078
0.272461
0.289435
0.0828123
0.0746086
0.0612014
0.0411963
0.0391676
0.0460866
0.0541729
0.061601
0.0713792
0.0835792
0.101614
0.119587
0.143395
0.163634
0.175827
0.187034
0.18433
0.185105
0.184535
0.202357
0.0977337
0.0847851
0.0749751
0.048843
0.0391528
0.044394
0.0516568
0.061475
0.0724938
0.0852229
0.103907
0.118237
0.130929
0.13632
0.136362
0.137239
0.1361
0.137933
0.147599
0.174548
0.108437
0.0895764
0.0785774
0.0580452
0.0419891
0.0456563
0.052629
0.0627212
0.0719201
0.0816418
0.0941214
0.0928754
0.0918962
0.0906663
0.0904506
0.0921338
0.0993062
0.110623
0.122503
0.136282
0.122201
0.113601
0.112375
0.0971738
0.0983496
0.109486
0.117695
0.122064
0.129382
0.141206
0.156456
0.170643
0.180607
0.181934
0.171338
0.165408
0.174553
0.197908
0.230719
0.23882
0.192918
0.285464
0.337728
0.34959
0.358385
0.383699
0.388201
0.387269
0.398762
0.410621
0.42932
0.457401
0.468814
0.483404
0.483648
0.488648
0.520292
0.528997
0.537385
0.540143
0.566687
0.632791
0.698184
0.820009
0.843773
0.867661
0.851621
0.839827
0.85506
0.902639
0.94868
0.962179
0.954555
0.941423
0.943178
0.963377
0.975392
0.971758
0.952609
0.944713
0.288777
0.416934
0.535076
0.683349
0.782216
0.853727
0.853916
0.847712
0.863227
0.904427
0.947762
0.96458
0.960655
0.94352
0.940592
0.951948
0.967348
0.967321
0.960376
0.954037
0.139308
0.161573
0.237099
0.334151
0.525669
0.709588
0.780624
0.852265
0.885796
0.903643
0.929399
0.946223
0.946277
0.942139
0.943992
0.950495
0.959831
0.961411
0.960431
0.961334
0.192138
0.2173
0.23312
0.235139
0.254022
0.337832
0.551873
0.755978
0.827941
0.87757
0.914626
0.923873
0.930299
0.942202
0.949048
0.952865
0.956299
0.958184
0.960978
0.965975
0.2354
0.270212
0.272566
0.275571
0.280761
0.288876
0.318737
0.437737
0.644146
0.80284
0.865075
0.896895
0.91957
0.945446
0.950117
0.954033
0.954963
0.953062
0.957888
0.965739
0.301371
0.328314
0.342409
0.327426
0.316221
0.319599
0.338732
0.342951
0.381505
0.500038
0.694806
0.821777
0.897412
0.939974
0.943028
0.94895
0.953327
0.951757
0.954964
0.965459
0.391851
0.411634
0.400787
0.360764
0.351313
0.356705
0.370062
0.385159
0.388825
0.382789
0.443078
0.639895
0.802836
0.927075
0.933899
0.944531
0.947302
0.94137
0.951197
0.963364
0.521411
0.508006
0.481297
0.431867
0.389863
0.390965
0.409229
0.414838
0.413967
0.406149
0.39503
0.438868
0.621324
0.815422
0.903674
0.945048
0.937763
0.933247
0.953723
0.963048
0.674364
0.624374
0.57043
0.508039
0.449785
0.446261
0.449603
0.447016
0.448158
0.439173
0.42004
0.408759
0.446708
0.618934
0.839743
0.93544
0.907937
0.922585
0.957777
0.962822
0.855021
0.764032
0.694346
0.60966
0.51504
0.489659
0.48576
0.472326
0.478573
0.474985
0.459175
0.434842
0.429225
0.458173
0.615447
0.833674
0.872237
0.923449
0.966721
0.960203
1.27532
0.915462
0.799665
0.757984
0.677639
0.594509
0.535714
0.528907
0.530494
0.526595
0.516277
0.498818
0.478386
0.474844
0.482938
0.567703
0.749577
0.882613
0.936424
0.953773
2.05721
1.49049
1.07454
0.97722
0.915063
0.824048
0.698174
0.61781
0.592054
0.57323
0.55935
0.550785
0.537283
0.515752
0.489829
0.4924
0.530335
0.64076
0.787278
0.913198
2.50106
2.18871
1.71295
1.30983
1.10468
0.969851
0.857831
0.737695
0.693234
0.664875
0.633193
0.613061
0.598194
0.578177
0.552146
0.52638
0.528547
0.53516
0.574653
0.746939
2.36588
2.34832
2.24501
1.92962
1.55
1.24535
1.10495
0.974631
0.876366
0.828255
0.767548
0.70676
0.652959
0.619171
0.597011
0.589399
0.57039
0.553511
0.543184
0.578851
1.68295
2.14334
2.22126
2.19066
2.06129
1.77526
1.48687
1.25387
1.06062
0.957013
0.87076
0.803302
0.753484
0.698152
0.68873
0.683144
0.660933
0.620664
0.569196
0.571949
1.1089
1.43757
1.84482
2.11223
2.11312
2.07702
1.93035
1.69344
1.42957
1.21605
1.07909
0.973559
0.920723
0.854071
0.787658
0.738826
0.701254
0.657634
0.628462
0.611931
1.00452
1.04454
1.20397
1.54903
1.86177
2.02161
2.01521
1.97197
1.83662
1.61359
1.40432
1.21593
1.07676
0.984875
0.885498
0.805876
0.775594
0.746216
0.72771
0.693633
1.00009
1.00111
1.01052
1.07773
1.27074
1.57252
1.82851
1.93479
1.92816
1.88453
1.76703
1.5866
1.3751
1.22072
1.10003
0.99485
0.93351
0.889343
0.836533
0.758195
1
1.00001
1.00015
1.0024
1.01956
1.10084
1.29148
1.55351
1.77179
1.85821
1.85211
1.81812
1.71723
1.55023
1.38672
1.22589
1.09211
0.999009
0.927389
0.832794
1
1
1
1.00003
1.00035
1.00388
1.02428
1.10941
1.28793
1.51825
1.7025
1.79207
1.78752
1.75786
1.67953
1.54345
1.38247
1.22726
1.12505
1.00089
1
1
1
1
1
1.00005
1.00048
1.00491
1.02568
1.10757
1.26431
1.47739
1.63223
1.72587
1.72432
1.70609
1.6477
1.53098
1.3984
1.19749
1
1
1
1
1
1
1
1.00006
1.00053
1.00524
1.02445
1.09506
1.23362
1.42856
1.57
1.66116
1.66392
1.65335
1.61845
1.46648
1
1
1
1
1
1
1
1
1
1.00007
1.00053
1.0044
1.0225
1.07872
1.19883
1.36962
1.51686
1.59617
1.6107
1.58955
1
1
1
1
1
1
1
1
1
1
1.00001
1.00006
1.00052
1.00326
1.01845
1.06351
1.16285
1.3147
1.44532
1.54933
1
1
1
1
1
1
1
1
1
1
1
1
1.00001
1.00004
1.00043
1.00253
1.01406
1.05153
1.1365
1.3885
1.61667
2.46137
2.58261
2.08617
1.3105
1.03696
1.00187
1.00005
1
1
1
1
1
1
1
2.34213
2.81462
2.52665
1.5416
1.04842
1.00081
1
1
1
1
1
1
1
1
1
2.93147
2.86683
1.97973
1.15234
1.00519
1.00005
1
1
1
1
1
1
1
1
1
3.25193
2.55653
1.36458
1.01945
1.00019
1
1
1
1
1
1
1
1
1
1
3.32459
1.68355
1.04705
1.00049
1
1
1
1
1
1
1
1
1
1
1
2.06673
1.0732
1.00049
0.999999
1
1
1
1
1
1
1
1
1
1
1
1.10142
1.00055
0.999997
1
1
1
1
1
1
1
1
1
1
1
1
0.99815
0.999864
0.999996
1
1
1
1
1
1
1
1
1
1
1
1
0.999966
1
1
1
1
1
1
1
1
1
1
1
1
1
1
1
1
1
1
1
1
1
1
1
1
1
1
1
1
1
1
1
1
1
1
1
1
1
1
1
1
1
1
1
1
1
1
1
1
1
1
1
1
1
1
1
1
1
1
1
1
1
1
1
1
1
1
1
1
1
1
1
1
1
1
1
1
1
1
1
1
1
1
1
1
1
1
1
1
1
1
1
1
1
1
1
1
1
1
1
1
1
1
1
1
1
1
1
1
1
1
1
1
1
1
1
1
1
1
1
1
1
1
1
1
1
1
1
1
1
1
1
1
1
1
1
1
1
1
1
1
1
1
1
1
1
1
1
1
1
1
1
1
1
1
1
1
1
1
1
1
1
1
1
1
1
1
1
1
1
1
1
1
1
1
1
1
1
1
1
1
1
1
1
1
1
1
1
1
1
1
1
1
1
1
1
1
1
1
1
1
1
1
1
1
1
1
1
1
1
1
1
1
1
1
1
1
1
1
1
1
1
1
1
1
1
1
1
1
1
1
1
1
1
1
1
1
1
1
1
1
1
1
1
1
1
1
1
1
1
1
1
1
1
1
1
1
1
1
1
1
1
1
1
1
1
1
1
1
1
1
1
1
1
1
1
1
1
1
1
1
1
1
1
1
1
1
1
1
1
1
1
1
1
1
1
1
1
1
1
1
1
1
1
1
1
1
1
1
1
1
1
1
1
1
1
1
1
1
1
1
1
1
1
1
1
1
1
1
1
1
1
1
1
1
1
1
1
1
1
1
1
1
1
1
1
1
1
1
1
1
1
1
1
1
1
1
1
1
1
1
1
1
1
1
1
1
1
1
1
1
1
1
1
1
1
1
1
1
1
1
1
1
1
1
1
1
1
1
1
1
1
1
1
1
1
1
1
1
1
1
1
1
1
1
1
1
1
1
1
1
1
1
1
1
1
1
1
1
1
1
1
1
1
1
1
1
1
1
1
1
1
1
1
1
1
1
1
1
1
1
1
1
1
1
1
1
1
1
1
1
1
1
1
1
1
1
1
1
1
1
1
1
1
1
1
1
1
1
1
1
1
1
1
1
1
1
1
1
1
1
1
1
1
1
1
1
1
1
1
1
1
1
1
1
1
1
1
1
1
1
1
1
1
1
1
1
1
1
1
1
1
1
1
1
1
1
1
1
1
1
1
1
1
1
1
1
1
1
1
1
1
1
1
1
1
1
1
1
1
1
1
1
1
1
1
1
1
1
1
1
1
1
1
1
1
1
1
1
1
1
1
1
1
1
1
1
1
1
1
1
1
1
1
1
1
1
1
1
1
1
1
1
1
1
1
1
1
1
1
1
1
1
1
1
1
1
1
1
1
1
1
1
1
1
1
1
1
1
1
1
1
1
1
1
1
1
1
1
1
1
1
1
1
1
1
1
1
1
1
1
1
1
1
1
1
1
1
1
1
1
1
1
1
1
1
1
1
1
1
1
1
1
1
1
1
1
1
1
1
1
1
1
1
1
1
1
1
1
1
1
1
1
1
1
1
1
1
1
1
1
1
1
1
1
1
1
1
1
1
1
1
1
1
1
1
1
1
1
1
1
1
1
1
1
1
1
1
1
1
1
1
1
1
1
1
1
1
1
1
1
1
1
1
1
1
1
1
1
1
1
1
1
1
1
1
1
1
1
1
1
1
1
1
1
1
1
1
1
1
1
1
1
1
1
1
1
1
1
1
1
1
1
1
1
1
1
1
1
1
1
1
1
1
1
1
1
1
1
1
1
1
1
1
1
1
1
1
1
1
1
1
1
1
1
1
1
1
1
1
1
1
1
1
1
1
1
1
1
1
1
1
1
1
1
1
1
1
1
1
1
1
1
1
1
1
1
1
1
1
1
1
1
1
1
1
1
1
1
1
1
1
1
1
1
0.999966
1
1
1
1
1
1
1
1
1
1
1
1
1
1
0.998148
0.999864
0.999996
1
1
1
1
1
1
1
1
1
1
1
1
1.10158
1.00055
0.999997
1
1
1
1
1
1
1
1
1
1
1
1
2.06723
1.0732
1.00049
0.999999
1
1
1
1
1
1
1
1
1
1
1
3.32497
1.68337
1.04698
1.00049
1
1
1
1
1
1
1
1
1
1
1
3.25213
2.55624
1.36444
1.01948
1.0002
1
1
1
1
1
1
1
1
1
1
2.93211
2.86671
1.97929
1.15223
1.00519
1.00005
1
1
1
1
1
1
1
1
1
2.34244
2.81441
2.52648
1.54163
1.04843
1.00081
1
1
1
1
1
1
1
1
1
1.61713
2.46073
2.58228
2.08619
1.31055
1.03698
1.00187
1.00005
1
1
1
1
1
1
1
1.27649
2.05868
2.5015
2.36597
1.6839
1.10888
1.00452
1.00009
1
1
1
1
1
1
1
0.909174
1.48718
2.19063
2.34882
2.14141
1.43736
1.04447
1.00111
1.00001
1
1
1
1
1
1
0.799681
1.0715
1.70674
2.24573
2.22039
1.84456
1.20415
1.01052
1.00015
1
1
1
1
1
1
0.75694
0.982222
1.31302
1.92141
2.19078
2.11226
1.54876
1.07789
1.00241
1.00003
1
1
1
1
1
0.66653
0.909451
1.11482
1.55378
2.05993
2.11325
1.86196
1.27018
1.01937
1.00034
1
1
1
1
1
0.586804
0.809975
0.966195
1.26109
1.77973
2.07705
2.02189
1.57156
1.10065
1.00388
1.00005
1
1
1
1
0.546473
0.698528
0.842792
1.09834
1.48742
1.93241
2.0154
1.82774
1.29071
1.02423
1.00048
1
1
1
1
0.54386
0.630624
0.736345
0.959391
1.25081
1.69388
1.97144
1.93519
1.55438
1.10909
1.00486
1.00006
1
1
1
0.533677
0.59301
0.693831
0.88504
1.06907
1.42233
1.8365
1.92836
1.77019
1.28782
1.02586
1.00054
1
1
1
0.519854
0.567044
0.66196
0.829937
0.963743
1.22209
1.61533
1.88461
1.85793
1.51823
1.1073
1.00521
1.00007
1
1
0.509722
0.555097
0.647961
0.762612
0.865409
1.08831
1.40416
1.76872
1.85248
1.70378
1.2643
1.02431
1.00053
1.00001
1
0.491719
0.550303
0.630354
0.702986
0.795213
0.986181
1.21381
1.58502
1.81864
1.79181
1.47683
1.09528
1.00443
1.00006
1
0.472516
0.536212
0.607365
0.650041
0.74034
0.924325
1.07972
1.3757
1.71704
1.78721
1.63274
1.23357
1.02247
1.00052
1.00001
0.471543
0.515624
0.580205
0.613741
0.691019
0.850459
0.98242
1.222
1.55264
1.75779
1.72665
1.42879
1.07868
1.00326
1.00004
0.483986
0.490272
0.554241
0.594926
0.685364
0.786712
0.880895
1.09609
1.38703
1.67974
1.72486
1.57
1.19905
1.01847
1.00043
0.570165
0.492893
0.528899
0.589929
0.680215
0.740867
0.811896
0.994756
1.22316
1.54302
1.70609
1.66164
1.37002
1.0636
1.00254
0.746875
0.528891
0.530072
0.573131
0.658757
0.700025
0.77972
0.938038
1.09176
1.38184
1.64712
1.66401
1.51667
1.16294
1.01407
0.882495
0.637239
0.535045
0.55633
0.621416
0.657471
0.74291
0.891514
0.999733
1.22637
1.53016
1.65339
1.59603
1.31461
1.05149
0.931724
0.782111
0.574829
0.547062
0.570588
0.62695
0.728574
0.836394
0.926841
1.12356
1.3978
1.61846
1.61078
1.44535
1.13652
0.950376
0.908971
0.749123
0.582096
0.572829
0.607426
0.695312
0.757255
0.831932
0.999982
1.19739
1.46662
1.58975
1.54942
1.38871
0.854236
0.763557
0.699833
0.615522
0.522031
0.497172
0.489143
0.478997
0.471913
0.463126
0.453179
0.435403
0.43024
0.458038
0.621767
0.837431
0.873464
0.923517
0.964203
0.956601
0.670129
0.627437
0.578219
0.505521
0.442286
0.445883
0.452853
0.448615
0.447314
0.436864
0.421454
0.411375
0.448374
0.620861
0.845164
0.940044
0.91228
0.925118
0.958438
0.96084
0.519256
0.510528
0.486945
0.432014
0.395079
0.39706
0.415179
0.420216
0.419249
0.411925
0.397638
0.440391
0.624229
0.839144
0.916711
0.949009
0.938821
0.935157
0.95507
0.964991
0.391634
0.41454
0.400919
0.358875
0.355283
0.362407
0.373489
0.386004
0.389315
0.388037
0.451126
0.641098
0.806226
0.941525
0.943045
0.949859
0.947794
0.942145
0.953337
0.967256
0.300175
0.330882
0.341691
0.323035
0.309019
0.315782
0.337369
0.342415
0.390405
0.519835
0.700934
0.816104
0.900672
0.946571
0.948306
0.951445
0.953838
0.952956
0.95847
0.970009
0.237616
0.264584
0.27548
0.279537
0.285281
0.290801
0.318305
0.430349
0.647905
0.816158
0.865707
0.89218
0.919592
0.943009
0.949451
0.951422
0.953083
0.952148
0.958937
0.968424
0.192886
0.217255
0.222547
0.232587
0.247618
0.324236
0.541767
0.742967
0.821738
0.883807
0.908931
0.917394
0.924901
0.936888
0.945077
0.950167
0.953926
0.956557
0.95996
0.965406
0.139085
0.163211
0.24413
0.32941
0.492648
0.695177
0.770548
0.847211
0.878106
0.899308
0.922584
0.937861
0.938364
0.935066
0.939207
0.946684
0.957973
0.961068
0.961463
0.959612
0.293569
0.419704
0.550824
0.673256
0.773176
0.847616
0.846742
0.847067
0.860725
0.89545
0.938843
0.955474
0.949048
0.932948
0.937522
0.955063
0.96915
0.968216
0.95838
0.948066
0.56486
0.633082
0.700549
0.816099
0.846387
0.85833
0.84316
0.840706
0.855492
0.897811
0.955702
0.970238
0.959074
0.939136
0.943721
0.963494
0.968775
0.962728
0.946654
0.943421
)
;

boundaryField
{
    inlet
    {
        type            fixedValue;
        value           uniform 1;
    }
    outlet
    {
        type            zeroGradient;
    }
    airfoil
    {
        type            zeroGradient;
    }
    top
    {
        type            symmetryPlane;
    }
    bottom
    {
        type            symmetryPlane;
    }
    defaultFaces
    {
        type            empty;
    }
}


// ************************************************************************* //
