/*--------------------------------*- C++ -*----------------------------------*\
  =========                 |
  \\      /  F ield         | OpenFOAM: The Open Source CFD Toolbox
   \\    /   O peration     | Website:  https://openfoam.org
    \\  /    A nd           | Version:  7
     \\/     M anipulation  |
\*---------------------------------------------------------------------------*/
FoamFile
{
    version     2.0;
    format      ascii;
    class       volScalarField;
    location    "9.4";
    object      rho;
}
// * * * * * * * * * * * * * * * * * * * * * * * * * * * * * * * * * * * * * //

dimensions      [1 -3 0 0 0 0 0];

internalField   nonuniform List<scalar> 
3700
(
0.275922
0.350602
0.441907
0.514859
0.498982
0.489662
0.500849
0.528647
0.558927
0.579708
0.605378
0.636312
0.643755
0.661732
0.673552
0.688348
0.715783
0.704936
0.711997
0.733931
0.179236
0.147144
0.164246
0.16279
0.12683
0.104894
0.123022
0.15613
0.186423
0.219925
0.255705
0.267972
0.252757
0.247592
0.253567
0.26445
0.269283
0.261624
0.266179
0.273566
0.159992
0.127231
0.112067
0.0775902
0.0574562
0.0632181
0.0736511
0.0882437
0.100552
0.113706
0.131591
0.130231
0.129278
0.127897
0.127658
0.12983
0.138086
0.153117
0.169972
0.190583
0.13654
0.117109
0.102298
0.0644908
0.0547071
0.0616001
0.0719056
0.0859848
0.100793
0.118241
0.143906
0.163951
0.182099
0.190993
0.191896
0.194208
0.191921
0.193338
0.205309
0.242962
0.111785
0.100133
0.082899
0.0574725
0.0551028
0.0653174
0.0764718
0.0866265
0.099485
0.116125
0.140666
0.165249
0.198194
0.226799
0.244782
0.262494
0.259738
0.261096
0.25997
0.282855
0.0934703
0.0825607
0.0644651
0.0583455
0.0674226
0.0853795
0.0989612
0.10842
0.120679
0.136098
0.144272
0.161069
0.196996
0.241535
0.278431
0.313144
0.342789
0.371145
0.383121
0.40672
0.0745253
0.0647848
0.0594138
0.0695826
0.0808109
0.101711
0.121753
0.143932
0.171848
0.201183
0.19332
0.200535
0.211694
0.247055
0.293461
0.346998
0.403972
0.461187
0.509454
0.584255
0.0589059
0.0514691
0.0605517
0.0753003
0.0879902
0.107354
0.12906
0.161591
0.216249
0.260364
0.286638
0.310651
0.32183
0.345788
0.368782
0.409708
0.468377
0.558615
0.638517
0.783996
0.0475468
0.0427983
0.0582024
0.0768027
0.0910804
0.108637
0.127118
0.162239
0.228531
0.296465
0.359085
0.407139
0.465378
0.518881
0.558529
0.601521
0.642377
0.715869
0.810869
1.02423
0.0400378
0.0372804
0.054708
0.0755078
0.0961311
0.125135
0.135352
0.162216
0.221161
0.308757
0.401888
0.480897
0.586967
0.670189
0.758792
0.845282
0.926828
1.00222
1.12093
1.32131
0.0345132
0.0346947
0.0583288
0.0858066
0.122793
0.162904
0.185915
0.237919
0.30416
0.371361
0.47048
0.582968
0.718363
0.834312
0.966921
1.11622
1.26464
1.38937
1.60664
1.55808
0.0316696
0.0360397
0.0665223
0.109347
0.160302
0.217876
0.284886
0.393243
0.519269
0.65396
0.778358
0.898533
1.02072
1.13746
1.26622
1.45341
1.68308
1.88663
2.17862
2.10744
0.0314013
0.0391134
0.0821175
0.141454
0.184428
0.254391
0.374999
0.534204
0.730817
0.95962
1.14324
1.32271
1.49203
1.65197
1.82188
2.03646
2.29025
2.54599
2.93114
2.91839
0.0309109
0.0429792
0.0925912
0.151184
0.177643
0.257223
0.447077
0.663667
0.946829
1.28137
1.55868
1.82397
2.07663
2.3204
2.61611
2.93343
3.24339
3.58629
3.9069
4.17586
0.0291539
0.0489817
0.0863338
0.132103
0.173174
0.373608
0.690687
1.06715
1.54045
1.9756
2.33449
2.65054
2.96779
3.30356
3.73465
4.13112
4.51026
4.86278
5.09052
5.26674
0.0269566
0.0576147
0.0899446
0.134148
0.410133
0.992433
1.53723
2.11427
2.75976
3.29358
3.67871
4.02882
4.38364
4.78298
5.2341
5.51396
5.67564
5.73291
5.60603
5.43406
0.0257716
0.0874739
0.199444
0.510244
1.24003
2.0546
2.83052
3.62851
4.44546
4.96507
5.26939
5.57092
5.83898
6.06117
6.21267
6.1137
5.81799
5.08299
3.89333
2.6376
0.0484776
0.181319
0.661198
1.68179
2.97594
4.01512
4.89287
5.82213
6.64164
6.73016
6.61967
6.58233
6.50908
6.26837
5.57539
4.26477
2.92321
1.86847
1.42689
1.39014
0.415481
1.1993
2.75979
4.39016
5.8114
6.74105
7.55453
8.1716
7.96924
7.34618
6.75489
6.00928
4.73562
3.25177
1.9977
1.4421
1.3852
1.39292
1.39626
1.39922
3.2198
5.05149
6.76058
7.90832
8.71113
8.93295
9.10323
8.6421
6.28467
4.44027
3.28662
2.17783
1.51219
1.38234
1.39009
1.3949
1.39887
1.39997
1.40003
1.40002
9.63264
9.55917
9.50107
9.58534
9.74655
9.39494
8.31877
3.23599
0.91419
1.40001
1.40001
1.40001
1.40001
1.40001
1.40001
1.40001
1.40001
1.40001
1.40001
1.40001
9.63593
9.54071
9.41443
9.33828
9.3157
7.99815
3.76865
1.44511
1.40001
1.40001
1.40001
1.40001
1.40001
1.40001
1.40001
1.40001
1.40001
1.40001
1.40001
1.40001
9.42257
9.4873
9.47106
9.2996
8.7196
4.72511
1.45587
1.39872
1.40001
1.40001
1.40001
1.40001
1.40001
1.40001
1.40001
1.40001
1.40001
1.40001
1.40001
1.40001
9.22947
9.41313
9.45967
9.25763
6.52802
1.93218
1.39167
1.40017
1.4
1.40001
1.40001
1.40001
1.40001
1.40001
1.40001
1.40001
1.40001
1.40001
1.40001
1.40001
9.08668
9.39271
9.4161
8.38701
3.72701
1.36678
1.40049
1.4
1.40001
1.40001
1.40001
1.40001
1.40001
1.40001
1.40001
1.40001
1.40001
1.40001
1.40001
1.40001
8.97656
9.44594
9.38148
6.85512
2.09286
1.40001
1.40001
1.40001
1.40001
1.40001
1.40001
1.40001
1.40001
1.40001
1.40001
1.40001
1.40001
1.40001
1.40001
1.40001
8.90222
9.37484
9.35315
4.95267
1.36254
1.40001
1.40001
1.40001
1.40001
1.40001
1.40001
1.40001
1.40001
1.40001
1.40001
1.40001
1.40001
1.40001
1.40001
1.40001
8.97453
9.18931
8.34214
2.83969
1.4
1.40001
1.40001
1.40001
1.40001
1.40001
1.40001
1.40001
1.40001
1.40001
1.40001
1.40001
1.40001
1.40001
1.40001
1.40001
9.66129
9.18724
6.76214
1.70171
1.4
1.40001
1.40001
1.40001
1.40001
1.40001
1.40001
1.40001
1.40001
1.40001
1.40001
1.40001
1.40001
1.40001
1.40001
1.40001
10.1085
8.91036
4.74162
1.38312
1.40001
1.40001
1.40001
1.40001
1.40001
1.40001
1.40001
1.40001
1.40001
1.40001
1.40001
1.40001
1.40001
1.40001
1.40001
1.40001
10.3193
8.26476
3.20636
1.40001
1.40001
1.40001
1.40001
1.40001
1.40001
1.40001
1.40001
1.40001
1.40001
1.40001
1.40001
1.40001
1.40001
1.40001
1.40001
1.40001
10.4029
7.47829
2.2397
1.40001
1.40001
1.40001
1.40001
1.40001
1.40001
1.40001
1.40001
1.40001
1.40001
1.40001
1.40001
1.40001
1.40001
1.40001
1.40001
1.40001
10.4294
6.61964
1.64649
1.40001
1.40001
1.40001
1.40001
1.40001
1.40001
1.40001
1.40001
1.40001
1.40001
1.40001
1.40001
1.40001
1.40001
1.40001
1.40001
1.40001
10.1756
5.60856
1.42936
1.40001
1.40001
1.40001
1.40001
1.40001
1.40001
1.40001
1.40001
1.40001
1.40001
1.40001
1.40001
1.40001
1.40001
1.40001
1.40001
1.40001
10.0134
4.46776
1.40001
1.40001
1.40001
1.40001
1.40001
1.40001
1.40001
1.40001
1.40001
1.40001
1.40001
1.40001
1.40001
1.40001
1.40001
1.40001
1.40001
1.40001
9.67345
3.43858
1.40001
1.40001
1.40001
1.40001
1.40001
1.40001
1.40001
1.40001
1.40001
1.40001
1.40001
1.40001
1.40001
1.40001
1.40001
1.40001
1.40001
1.40001
9.16737
2.63138
1.40001
1.40001
1.40001
1.40001
1.40001
1.40001
1.40001
1.40001
1.40001
1.40001
1.40001
1.40001
1.40001
1.40001
1.40001
1.40001
1.40001
1.40001
8.81151
1.92918
1.40001
1.40001
1.40001
1.40001
1.40001
1.40001
1.40001
1.40001
1.40001
1.40001
1.40001
1.40001
1.40001
1.40001
1.40001
1.40001
1.40001
1.40001
7.93787
1.40881
1.40001
1.40001
1.40001
1.40001
1.40001
1.40001
1.40001
1.40001
1.40001
1.40001
1.40001
1.40001
1.40001
1.40001
1.40001
1.40001
1.40001
1.40001
6.4382
1.4001
1.40001
1.40001
1.40001
1.40001
1.40001
1.40001
1.40001
1.40001
1.40001
1.40001
1.40001
1.40001
1.40001
1.40001
1.40001
1.40001
1.40001
1.40001
6.44004
1.40009
1.40001
1.40001
1.40001
1.40001
1.40001
1.40001
1.40001
1.40001
1.40001
1.40001
1.40001
1.40001
1.40001
1.40001
1.40001
1.40001
1.40001
1.40001
7.91199
1.40877
1.40001
1.40001
1.40001
1.40001
1.40001
1.40001
1.40001
1.40001
1.40001
1.40001
1.40001
1.40001
1.40001
1.40001
1.40001
1.40001
1.40001
1.40001
8.82956
1.93244
1.40001
1.40001
1.40001
1.40001
1.40001
1.40001
1.40001
1.40001
1.40001
1.40001
1.40001
1.40001
1.40001
1.40001
1.40001
1.40001
1.40001
1.40001
9.17777
2.65585
1.40001
1.40001
1.40001
1.40001
1.40001
1.40001
1.40001
1.40001
1.40001
1.40001
1.40001
1.40001
1.40001
1.40001
1.40001
1.40001
1.40001
1.40001
9.6247
3.44091
1.40001
1.40001
1.40001
1.40001
1.40001
1.40001
1.40001
1.40001
1.40001
1.40001
1.40001
1.40001
1.40001
1.40001
1.40001
1.40001
1.40001
1.40001
10.0487
4.43576
1.40001
1.40001
1.40001
1.40001
1.40001
1.40001
1.40001
1.40001
1.40001
1.40001
1.40001
1.40001
1.40001
1.40001
1.40001
1.40001
1.40001
1.40001
10.181
5.60326
1.4293
1.40001
1.40001
1.40001
1.40001
1.40001
1.40001
1.40001
1.40001
1.40001
1.40001
1.40001
1.40001
1.40001
1.40001
1.40001
1.40001
1.40001
10.413
6.61888
1.65194
1.40001
1.40001
1.40001
1.40001
1.40001
1.40001
1.40001
1.40001
1.40001
1.40001
1.40001
1.40001
1.40001
1.40001
1.40001
1.40001
1.40001
10.3921
7.49654
2.2439
1.40001
1.40001
1.40001
1.40001
1.40001
1.40001
1.40001
1.40001
1.40001
1.40001
1.40001
1.40001
1.40001
1.40001
1.40001
1.40001
1.40001
10.3105
8.26141
3.22046
1.40001
1.40001
1.40001
1.40001
1.40001
1.40001
1.40001
1.40001
1.40001
1.40001
1.40001
1.40001
1.40001
1.40001
1.40001
1.40001
1.40001
10.1051
8.90172
4.74571
1.38323
1.40001
1.40001
1.40001
1.40001
1.40001
1.40001
1.40001
1.40001
1.40001
1.40001
1.40001
1.40001
1.40001
1.40001
1.40001
1.40001
9.6776
9.21516
6.76739
1.68773
1.40001
1.40001
1.40001
1.40001
1.40001
1.40001
1.40001
1.40001
1.40001
1.40001
1.40001
1.40001
1.40001
1.40001
1.40001
1.40001
8.95697
9.17635
8.33368
2.85506
1.4
1.40001
1.40001
1.40001
1.40001
1.40001
1.40001
1.40001
1.40001
1.40001
1.40001
1.40001
1.40001
1.40001
1.40001
1.40001
8.88262
9.32042
9.35031
4.94641
1.36236
1.40001
1.40001
1.40001
1.40001
1.40001
1.40001
1.40001
1.40001
1.40001
1.40001
1.40001
1.40001
1.40001
1.40001
1.40001
8.97293
9.47003
9.40038
6.87531
2.08308
1.40001
1.40001
1.40001
1.40001
1.40001
1.40001
1.40001
1.40001
1.40001
1.40001
1.40001
1.40001
1.40001
1.40001
1.40001
9.10244
9.42029
9.41891
8.3513
3.75959
1.36637
1.40049
1.4
1.40001
1.40001
1.40001
1.40001
1.40001
1.40001
1.40001
1.40001
1.40001
1.40001
1.40001
1.40001
9.24214
9.42524
9.46313
9.24075
6.51991
1.92195
1.3921
1.40016
1.4
1.40001
1.40001
1.40001
1.40001
1.40001
1.40001
1.40001
1.40001
1.40001
1.40001
1.40001
9.41819
9.47988
9.47663
9.31576
8.7665
4.69323
1.44738
1.39896
1.40001
1.40001
1.40001
1.40001
1.40001
1.40001
1.40001
1.40001
1.40001
1.40001
1.40001
1.40001
9.63667
9.54643
9.433
9.34271
9.27908
7.99489
3.76706
1.44659
1.40001
1.40001
1.40001
1.40001
1.40001
1.40001
1.40001
1.40001
1.40001
1.40001
1.40001
1.40001
9.63791
9.56554
9.5117
9.57052
9.71051
9.38705
8.32742
3.27817
0.905067
1.40001
1.40001
1.40001
1.40001
1.40001
1.40001
1.40001
1.40001
1.40001
1.40001
1.40001
3.22025
5.0488
6.76174
7.89698
8.692
8.93126
9.10034
8.65008
6.2914
4.44213
3.28398
2.17294
1.50976
1.38216
1.39001
1.39485
1.39886
1.39997
1.40003
1.40002
0.424393
1.22598
2.78937
4.40217
5.79574
6.73047
7.55209
8.1707
7.96639
7.34228
6.75209
6.00844
4.73602
3.25361
1.99856
1.44231
1.38521
1.39293
1.39626
1.39922
0.0349183
0.15223
0.662265
1.68325
2.98844
4.02379
4.89361
5.82033
6.63133
6.7264
6.62371
6.591
6.51878
6.27138
5.57095
4.26077
2.9219
1.86833
1.42689
1.39013
0.0274133
0.0743631
0.169473
0.517112
1.25175
2.06746
2.8421
3.63438
4.44521
4.96552
5.27968
5.58526
5.84983
6.06239
6.21044
6.11162
5.8162
5.08177
3.89308
2.63829
0.0368603
0.0599315
0.0872889
0.130175
0.381784
0.976599
1.52924
2.10438
2.74948
3.28566
3.68008
4.03459
4.38646
4.78189
5.23098
5.50887
5.67161
5.7321
5.60595
5.43525
0.0396184
0.0528067
0.078462
0.119099
0.183645
0.376185
0.681895
1.05319
1.52584
1.96592
2.33104
2.65062
2.96794
3.30346
3.73404
4.13007
4.5085
4.86244
5.09237
5.26807
0.038075
0.0457556
0.0852611
0.144825
0.193692
0.266925
0.453119
0.668795
0.953285
1.28984
1.56709
1.83045
2.08015
2.32213
2.61578
2.93215
3.24069
3.58416
3.90629
4.17701
0.0346549
0.0417922
0.0781385
0.137834
0.190409
0.262704
0.380675
0.539479
0.736631
0.964043
1.14699
1.32452
1.49258
1.6513
1.82017
2.03398
2.28847
2.54554
2.93233
2.92003
0.0315433
0.0402894
0.0669649
0.106014
0.157978
0.221632
0.286141
0.392416
0.517029
0.648692
0.772048
0.892869
1.01723
1.13605
1.26738
1.45617
1.68471
1.88749
2.17931
2.10745
0.0323736
0.0386557
0.0636813
0.0821652
0.116542
0.165691
0.182703
0.232066
0.297399
0.36675
0.469375
0.584395
0.721742
0.837765
0.970061
1.11767
1.26426
1.38751
1.60585
1.55847
0.0370248
0.0406247
0.0606856
0.0740224
0.0910407
0.127387
0.133763
0.161677
0.223921
0.314044
0.406821
0.485197
0.589999
0.671855
0.758523
0.843453
0.923927
1.00011
1.12035
1.32213
0.0446833
0.0443585
0.063043
0.0752675
0.0867704
0.108764
0.129358
0.16493
0.232397
0.299971
0.361731
0.408677
0.464844
0.517032
0.554428
0.596665
0.63868
0.716193
0.813193
1.02566
0.0565381
0.05104
0.0627493
0.0735555
0.0842727
0.106803
0.131304
0.163963
0.218625
0.260726
0.284407
0.307696
0.317557
0.340616
0.364936
0.409012
0.471109
0.561727
0.640778
0.784711
0.0737048
0.0638626
0.0593485
0.0677
0.0779857
0.100555
0.122508
0.144221
0.171136
0.196816
0.18981
0.197434
0.210648
0.248558
0.296636
0.350505
0.40693
0.462653
0.509645
0.582815
0.0949996
0.0836649
0.0637694
0.057358
0.0649366
0.0835455
0.0983147
0.106949
0.119265
0.133417
0.143849
0.162418
0.199745
0.244574
0.281225
0.315206
0.343361
0.370437
0.380781
0.404489
0.115712
0.10432
0.0856613
0.0577559
0.05493
0.0646118
0.0759179
0.0862912
0.0999548
0.11699
0.14218
0.167278
0.200527
0.228784
0.245818
0.261487
0.257754
0.258898
0.258164
0.283056
0.136459
0.118469
0.10485
0.0684196
0.054903
0.0622328
0.0723835
0.0860986
0.10149
0.119258
0.145354
0.165385
0.183122
0.190664
0.190758
0.192028
0.19049
0.193068
0.206565
0.244172
0.151368
0.125147
0.109864
0.0812576
0.0588555
0.0639842
0.0737249
0.0878159
0.100665
0.11425
0.13169
0.129969
0.128624
0.126929
0.126651
0.129008
0.13903
0.15484
0.171439
0.190705
0.17055
0.158494
0.156748
0.135582
0.137008
0.152354
0.163845
0.170078
0.180339
0.196794
0.217951
0.237541
0.251282
0.253144
0.238564
0.230551
0.2433
0.275754
0.321315
0.332632
0.268324
0.39636
0.468534
0.48484
0.496732
0.531616
0.53794
0.536772
0.552689
0.568899
0.594443
0.6331
0.648908
0.669154
0.66962
0.676754
0.720572
0.732558
0.744184
0.748051
0.785114
0.876878
0.967751
1.13678
1.16992
1.2032
1.18135
1.16545
1.18673
1.25274
1.31662
1.33544
1.32505
1.307
1.30953
1.33759
1.3543
1.34934
1.3229
1.31211
0.401987
0.57995
0.743937
0.949787
1.08667
1.18561
1.18588
1.17736
1.199
1.25623
1.31631
1.33955
1.33411
1.31041
1.30643
1.32223
1.34361
1.34359
1.33399
1.3253
0.194978
0.226049
0.331352
0.466526
0.73284
0.988292
1.08657
1.18562
1.23217
1.25699
1.29259
1.31568
1.31561
1.30981
1.31238
1.3214
1.33431
1.3364
1.33498
1.33622
0.268768
0.303947
0.326045
0.328896
0.355238
0.472008
0.769851
1.05342
1.15335
1.22229
1.27359
1.28616
1.29495
1.3114
1.32085
1.3261
1.33075
1.33322
1.337
1.34384
0.329146
0.377758
0.381093
0.385337
0.392619
0.403929
0.445517
0.611187
0.898312
1.11904
1.20553
1.24959
1.28097
1.31689
1.32335
1.32873
1.32992
1.32717
1.3338
1.34461
0.421168
0.458795
0.478494
0.457641
0.442035
0.446743
0.473419
0.479288
0.532964
0.698004
0.969051
1.1456
1.25065
1.30974
1.31399
1.32221
1.32824
1.32601
1.33044
1.34497
0.547307
0.574923
0.55985
0.504112
0.490941
0.498456
0.517076
0.538125
0.543256
0.534865
0.618854
0.892816
1.11943
1.29208
1.30157
1.31635
1.32019
1.31194
1.32559
1.34248
0.727781
0.709162
0.671997
0.603148
0.54463
0.546187
0.571661
0.579509
0.57831
0.567441
0.552001
0.613112
0.867132
1.13711
1.25978
1.31728
1.30716
1.30088
1.32934
1.34229
0.940701
0.871131
0.796057
0.709192
0.628063
0.623219
0.627933
0.624375
0.625988
0.613495
0.586869
0.571227
0.624138
0.863956
1.17109
1.30416
1.26592
1.28626
1.33516
1.34218
1.19196
1.06539
0.968472
0.850645
0.718927
0.683661
0.678323
0.659681
0.668402
0.663431
0.641447
0.607598
0.599832
0.640216
0.859231
1.16289
1.21651
1.28766
1.3478
1.33875
1.77596
1.27604
1.11509
1.05714
0.945351
0.829693
0.74795
0.738549
0.740806
0.735422
0.721092
0.696817
0.668414
0.663574
0.674887
0.792984
1.04616
1.23125
1.30612
1.33022
2.86234
2.07536
1.49748
1.36231
1.27591
1.14933
0.974223
0.862453
0.82669
0.800533
0.781236
0.769357
0.750628
0.720721
0.68463
0.688275
0.741188
0.895073
1.09915
1.27438
3.48032
3.04624
2.38522
1.82516
1.54004
1.35255
1.19669
1.02953
0.967744
0.928333
0.884269
0.856302
0.835682
0.80788
0.771676
0.735796
0.738899
0.748233
0.803351
1.04341
3.29618
3.26976
3.12607
2.68759
2.1599
1.73633
1.54103
1.35974
1.22305
1.15617
1.07171
0.987114
0.912233
0.865218
0.834414
0.823893
0.797474
0.774022
0.759716
0.809541
2.35026
2.98944
3.09598
3.05222
2.8722
2.4743
2.07317
1.74904
1.48012
1.33595
1.2159
1.12198
1.05262
0.97557
0.962544
0.954847
0.923975
0.867913
0.796157
0.800155
1.5518
2.00969
2.57624
2.94726
2.94692
2.89581
2.69159
2.36183
1.99456
1.69736
1.50667
1.35972
1.28616
1.19334
1.10086
1.03287
0.980552
0.919757
0.879112
0.856169
1.40631
1.46214
1.68447
2.1653
2.60043
2.82205
2.81204
2.75117
2.56258
2.25196
1.96051
1.69811
1.50424
1.37623
1.23774
1.12677
1.08459
1.04365
1.0179
0.970455
1.40013
1.40156
1.41468
1.50846
1.77765
2.19825
2.55457
2.70197
2.69191
2.63072
2.4669
2.21546
1.92079
1.70566
1.53744
1.3908
1.30529
1.24374
1.17013
1.06089
1.40001
1.40002
1.40022
1.40335
1.4273
1.5407
1.80662
2.17192
2.47587
2.59587
2.58673
2.53916
2.39847
2.16568
1.93777
1.71355
1.52701
1.39719
1.29731
1.16535
1.40001
1.40001
1.40001
1.40004
1.40049
1.40542
1.43389
1.55267
1.80169
2.12284
2.37949
2.50408
2.49728
2.45587
2.34661
2.15687
1.93245
1.71603
1.5735
1.40028
1.40001
1.40001
1.40001
1.40001
1.40001
1.40007
1.40068
1.40686
1.43584
1.5501
1.76876
2.06592
2.28165
2.41204
2.40956
2.38413
2.3027
2.13994
1.95509
1.67486
1.40001
1.40001
1.40001
1.40001
1.40001
1.40001
1.40001
1.4001
1.40075
1.40731
1.43413
1.53266
1.72594
1.99783
2.19495
2.32197
2.32559
2.31084
2.26217
2.05023
1.40001
1.40001
1.40001
1.40001
1.40001
1.40001
1.40001
1.40001
1.40001
1.40011
1.40075
1.40615
1.4314
1.50985
1.67741
1.91563
2.12089
2.2314
2.25153
2.22203
1.40001
1.40001
1.40001
1.40001
1.40001
1.40001
1.40001
1.40001
1.40001
1.40001
1.40001
1.40009
1.40073
1.40456
1.42575
1.48862
1.62723
1.83903
2.02116
2.16609
1.40001
1.40001
1.40001
1.40001
1.40001
1.40001
1.40001
1.40001
1.40001
1.40001
1.40001
1.40001
1.40001
1.40007
1.4006
1.40354
1.41962
1.47191
1.59046
1.94186
2.24993
3.42359
3.59377
2.90853
1.8321
1.4515
1.40262
1.40007
1.40001
1.40001
1.40001
1.40001
1.40001
1.40001
1.40001
3.2571
3.91454
3.51909
2.15355
1.46747
1.40114
1.40001
1.4
1.40001
1.40001
1.40001
1.40001
1.40001
1.40001
1.40001
4.07536
3.98823
2.76133
1.61209
1.40724
1.40007
1.40001
1.40001
1.40001
1.40001
1.40001
1.40001
1.40001
1.40001
1.40001
4.52023
3.56074
1.90724
1.4271
1.40028
1.40001
1.40001
1.40001
1.40001
1.40001
1.40001
1.40001
1.40001
1.40001
1.40001
4.62429
2.35029
1.46551
1.40069
1.40001
1.40001
1.40001
1.40001
1.40001
1.40001
1.40001
1.40001
1.40001
1.40001
1.40001
2.88207
1.50192
1.40069
1.4
1.4
1.40001
1.40001
1.40001
1.40001
1.40001
1.40001
1.40001
1.40001
1.40001
1.40001
1.54134
1.40077
1.4
1.4
1.40001
1.40001
1.40001
1.40001
1.40001
1.40001
1.40001
1.40001
1.40001
1.40001
1.40001
1.39742
1.39982
1.4
1.40001
1.40001
1.40001
1.40001
1.40001
1.40001
1.40001
1.40001
1.40001
1.40001
1.40001
1.40001
1.39996
1.40001
1.40001
1.40001
1.40001
1.40001
1.40001
1.40001
1.40001
1.40001
1.40001
1.40001
1.40001
1.40001
1.40001
1.40001
1.40001
1.40001
1.40001
1.40001
1.40001
1.40001
1.40001
1.40001
1.40001
1.40001
1.40001
1.40001
1.40001
1.40001
1.40001
1.40001
1.40001
1.40001
1.40001
1.40001
1.40001
1.40001
1.40001
1.40001
1.40001
1.40001
1.40001
1.40001
1.40001
1.40001
1.40001
1.40001
1.40001
1.40001
1.40001
1.40001
1.40001
1.40001
1.40001
1.40001
1.40001
1.40001
1.40001
1.40001
1.40001
1.40001
1.40001
1.40001
1.40001
1.40001
1.40001
1.40001
1.40001
1.40001
1.40001
1.40001
1.40001
1.40001
1.40001
1.40001
1.40001
1.40001
1.40001
1.40001
1.40001
1.40001
1.40001
1.40001
1.40001
1.40001
1.40001
1.40001
1.40001
1.40001
1.40001
1.40001
1.40001
1.40001
1.40001
1.40001
1.40001
1.40001
1.40001
1.40001
1.40001
1.40001
1.40001
1.40001
1.40001
1.40001
1.40001
1.40001
1.40001
1.40001
1.40001
1.40001
1.40001
1.40001
1.40001
1.40001
1.40001
1.40001
1.40001
1.40001
1.40001
1.40001
1.40001
1.40001
1.40001
1.40001
1.40001
1.40001
1.40001
1.40001
1.40001
1.40001
1.40001
1.40001
1.40001
1.40001
1.40001
1.40001
1.40001
1.40001
1.40001
1.40001
1.40001
1.40001
1.40001
1.40001
1.40001
1.40001
1.40001
1.40001
1.40001
1.40001
1.40001
1.40001
1.40001
1.40001
1.40001
1.40001
1.40001
1.40001
1.40001
1.40001
1.40001
1.40001
1.40001
1.40001
1.40001
1.40001
1.40001
1.40001
1.40001
1.40001
1.40001
1.40001
1.40001
1.40001
1.40001
1.40001
1.40001
1.40001
1.40001
1.40001
1.40001
1.40001
1.40001
1.40001
1.40001
1.40001
1.40001
1.40001
1.40001
1.40001
1.40001
1.40001
1.40001
1.40001
1.40001
1.40001
1.40001
1.40001
1.40001
1.40001
1.40001
1.40001
1.40001
1.40001
1.40001
1.40001
1.40001
1.40001
1.40001
1.40001
1.40001
1.40001
1.40001
1.40001
1.40001
1.40001
1.40001
1.40001
1.40001
1.40001
1.40001
1.40001
1.40001
1.40001
1.40001
1.40001
1.40001
1.40001
1.40001
1.40001
1.40001
1.40001
1.40001
1.40001
1.40001
1.40001
1.40001
1.40001
1.40001
1.40001
1.40001
1.40001
1.40001
1.40001
1.40001
1.40001
1.40001
1.40001
1.40001
1.40001
1.40001
1.40001
1.40001
1.40001
1.40001
1.40001
1.40001
1.40001
1.40001
1.40001
1.40001
1.40001
1.40001
1.40001
1.40001
1.40001
1.40001
1.40001
1.40001
1.40001
1.40001
1.40001
1.40001
1.40001
1.40001
1.40001
1.40001
1.40001
1.40001
1.40001
1.40001
1.40001
1.40001
1.40001
1.40001
1.40001
1.40001
1.40001
1.40001
1.40001
1.40001
1.40001
1.40001
1.40001
1.40001
1.40001
1.40001
1.40001
1.40001
1.40001
1.40001
1.40001
1.40001
1.40001
1.40001
1.40001
1.40001
1.40001
1.40001
1.40001
1.40001
1.40001
1.40001
1.40001
1.40001
1.40001
1.40001
1.40001
1.40001
1.40001
1.40001
1.40001
1.40001
1.40001
1.40001
1.40001
1.40001
1.40001
1.40001
1.40001
1.40001
1.40001
1.40001
1.40001
1.40001
1.40001
1.40001
1.40001
1.40001
1.40001
1.40001
1.40001
1.40001
1.40001
1.40001
1.40001
1.40001
1.40001
1.40001
1.40001
1.40001
1.40001
1.40001
1.40001
1.40001
1.40001
1.40001
1.40001
1.40001
1.40001
1.40001
1.40001
1.40001
1.40001
1.40001
1.40001
1.40001
1.40001
1.40001
1.40001
1.40001
1.40001
1.40001
1.40001
1.40001
1.40001
1.40001
1.40001
1.40001
1.40001
1.40001
1.40001
1.40001
1.40001
1.40001
1.40001
1.40001
1.40001
1.40001
1.40001
1.40001
1.40001
1.40001
1.40001
1.40001
1.40001
1.40001
1.40001
1.40001
1.40001
1.40001
1.40001
1.40001
1.40001
1.40001
1.40001
1.40001
1.40001
1.40001
1.40001
1.40001
1.40001
1.40001
1.40001
1.40001
1.40001
1.40001
1.40001
1.40001
1.40001
1.40001
1.40001
1.40001
1.40001
1.40001
1.40001
1.40001
1.40001
1.40001
1.40001
1.40001
1.40001
1.40001
1.40001
1.40001
1.40001
1.40001
1.40001
1.40001
1.40001
1.40001
1.40001
1.40001
1.40001
1.40001
1.40001
1.40001
1.40001
1.40001
1.40001
1.40001
1.40001
1.40001
1.40001
1.40001
1.40001
1.40001
1.40001
1.40001
1.40001
1.40001
1.40001
1.40001
1.40001
1.40001
1.40001
1.40001
1.40001
1.40001
1.40001
1.40001
1.40001
1.40001
1.40001
1.40001
1.40001
1.40001
1.40001
1.40001
1.40001
1.40001
1.40001
1.40001
1.40001
1.40001
1.40001
1.40001
1.40001
1.40001
1.40001
1.40001
1.40001
1.40001
1.40001
1.40001
1.40001
1.40001
1.40001
1.40001
1.40001
1.40001
1.40001
1.40001
1.40001
1.40001
1.40001
1.40001
1.40001
1.40001
1.40001
1.40001
1.40001
1.40001
1.40001
1.40001
1.40001
1.40001
1.40001
1.40001
1.40001
1.40001
1.40001
1.40001
1.40001
1.40001
1.40001
1.40001
1.40001
1.40001
1.40001
1.40001
1.40001
1.40001
1.40001
1.40001
1.40001
1.40001
1.40001
1.40001
1.40001
1.40001
1.40001
1.40001
1.40001
1.40001
1.40001
1.40001
1.40001
1.40001
1.40001
1.40001
1.40001
1.40001
1.40001
1.40001
1.40001
1.40001
1.40001
1.40001
1.40001
1.40001
1.40001
1.40001
1.40001
1.40001
1.40001
1.40001
1.40001
1.40001
1.40001
1.40001
1.40001
1.40001
1.40001
1.40001
1.40001
1.40001
1.40001
1.40001
1.40001
1.40001
1.40001
1.40001
1.40001
1.40001
1.40001
1.40001
1.40001
1.40001
1.40001
1.40001
1.40001
1.40001
1.40001
1.40001
1.40001
1.40001
1.40001
1.40001
1.40001
1.40001
1.40001
1.40001
1.40001
1.40001
1.40001
1.40001
1.40001
1.40001
1.40001
1.40001
1.40001
1.40001
1.40001
1.40001
1.40001
1.40001
1.40001
1.40001
1.40001
1.40001
1.40001
1.40001
1.40001
1.40001
1.40001
1.40001
1.40001
1.40001
1.40001
1.40001
1.40001
1.40001
1.40001
1.40001
1.40001
1.40001
1.40001
1.40001
1.40001
1.40001
1.40001
1.40001
1.40001
1.40001
1.40001
1.40001
1.40001
1.40001
1.40001
1.40001
1.40001
1.40001
1.40001
1.40001
1.40001
1.40001
1.40001
1.40001
1.40001
1.40001
1.40001
1.40001
1.40001
1.40001
1.40001
1.40001
1.40001
1.40001
1.40001
1.40001
1.40001
1.40001
1.40001
1.40001
1.40001
1.40001
1.40001
1.40001
1.40001
1.40001
1.40001
1.40001
1.40001
1.40001
1.40001
1.40001
1.40001
1.40001
1.40001
1.40001
1.40001
1.40001
1.40001
1.40001
1.40001
1.40001
1.40001
1.40001
1.40001
1.40001
1.40001
1.40001
1.40001
1.40001
1.40001
1.40001
1.40001
1.40001
1.40001
1.40001
1.40001
1.40001
1.40001
1.40001
1.40001
1.40001
1.40001
1.40001
1.40001
1.40001
1.40001
1.40001
1.40001
1.40001
1.40001
1.40001
1.40001
1.40001
1.40001
1.40001
1.40001
1.40001
1.40001
1.40001
1.40001
1.40001
1.40001
1.40001
1.40001
1.40001
1.40001
1.40001
1.40001
1.40001
1.40001
1.40001
1.40001
1.40001
1.40001
1.40001
1.40001
1.40001
1.40001
1.40001
1.40001
1.40001
1.40001
1.40001
1.40001
1.40001
1.40001
1.40001
1.40001
1.40001
1.40001
1.40001
1.40001
1.40001
1.40001
1.40001
1.40001
1.40001
1.40001
1.40001
1.40001
1.40001
1.40001
1.40001
1.40001
1.40001
1.40001
1.40001
1.40001
1.40001
1.40001
1.40001
1.40001
1.40001
1.40001
1.40001
1.40001
1.40001
1.40001
1.40001
1.40001
1.40001
1.40001
1.40001
1.40001
1.40001
1.40001
1.40001
1.40001
1.40001
1.40001
1.40001
1.40001
1.40001
1.40001
1.40001
1.40001
1.40001
1.40001
1.40001
1.40001
1.40001
1.40001
1.40001
1.40001
1.40001
1.40001
1.40001
1.40001
1.40001
1.40001
1.40001
1.40001
1.40001
1.40001
1.40001
1.40001
1.40001
1.40001
1.40001
1.40001
1.40001
1.40001
1.40001
1.40001
1.40001
1.40001
1.40001
1.39996
1.40001
1.40001
1.40001
1.40001
1.40001
1.40001
1.40001
1.40001
1.40001
1.40001
1.40001
1.40001
1.40001
1.40001
1.39742
1.39982
1.4
1.40001
1.40001
1.40001
1.40001
1.40001
1.40001
1.40001
1.40001
1.40001
1.40001
1.40001
1.40001
1.54156
1.40077
1.4
1.4
1.40001
1.40001
1.40001
1.40001
1.40001
1.40001
1.40001
1.40001
1.40001
1.40001
1.40001
2.88276
1.50191
1.40069
1.4
1.4
1.40001
1.40001
1.40001
1.40001
1.40001
1.40001
1.40001
1.40001
1.40001
1.40001
4.62482
2.35005
1.46542
1.40069
1.40001
1.40001
1.40001
1.40001
1.40001
1.40001
1.40001
1.40001
1.40001
1.40001
1.40001
4.52049
3.56035
1.90704
1.42714
1.40028
1.40001
1.40001
1.40001
1.40001
1.40001
1.40001
1.40001
1.40001
1.40001
1.40001
4.07623
3.98807
2.76072
1.61194
1.40724
1.40007
1.40001
1.40001
1.40001
1.40001
1.40001
1.40001
1.40001
1.40001
1.40001
3.25753
3.91425
3.51886
2.15359
1.46748
1.40114
1.40001
1.4
1.40001
1.40001
1.40001
1.40001
1.40001
1.40001
1.40001
2.25057
3.4227
3.59331
2.90857
1.83216
1.45153
1.40262
1.40007
1.40001
1.40001
1.40001
1.40001
1.40001
1.40001
1.40001
1.77759
2.86438
3.48094
3.2963
2.35159
1.55177
1.40632
1.40013
1.40001
1.40001
1.40001
1.40001
1.40001
1.40001
1.40001
1.2673
2.07075
3.0489
3.27045
2.98676
2.00939
1.46204
1.40156
1.40002
1.40001
1.40001
1.40001
1.40001
1.40001
1.40001
1.11511
1.49325
2.3766
3.12708
3.09476
2.57587
1.68472
1.41469
1.40022
1.40001
1.40001
1.40001
1.40001
1.40001
1.40001
1.05569
1.36926
1.82961
2.67618
3.0524
2.94729
2.16492
1.50869
1.40337
1.40004
1.40001
1.40001
1.40001
1.40001
1.40001
0.929898
1.26811
1.55413
2.16515
2.87031
2.9471
2.60069
1.77686
1.42704
1.40048
1.40001
1.40001
1.40001
1.40001
1.40001
0.818975
1.12974
1.34744
1.75822
2.48052
2.89586
2.82244
2.19691
1.54044
1.40542
1.40007
1.40001
1.40001
1.40001
1.40001
0.762922
0.974724
1.17576
1.53182
2.07392
2.69445
2.81231
2.55351
1.80555
1.43383
1.40068
1.40001
1.40001
1.40001
1.40001
0.759358
0.880307
1.02767
1.33853
1.74477
2.36244
2.75045
2.70253
2.17312
1.55223
1.40679
1.40009
1.40001
1.40001
1.40001
0.745241
0.828024
0.968585
1.23513
1.49188
1.9845
2.56243
2.69219
2.47364
1.80154
1.43609
1.40076
1.40001
1.40001
1.40001
0.726033
0.79191
0.924257
1.15851
1.34532
1.70578
2.25439
2.63082
2.59548
2.12282
1.54973
1.40727
1.40011
1.40001
1.40001
0.711958
0.775301
0.904825
1.06483
1.20843
1.51952
1.96029
2.46925
2.58725
2.38127
1.76874
1.43394
1.40074
1.40001
1.40001
0.686925
0.768677
0.880388
0.981858
1.1107
1.37729
1.69517
2.21327
2.53989
2.50372
2.06513
1.53296
1.40619
1.40009
1.40001
0.660237
0.749135
0.848463
0.908172
1.0343
1.29117
1.50838
1.92163
2.3982
2.49684
2.28236
1.72588
1.43137
1.40073
1.40001
0.658969
0.720545
0.81071
0.857651
0.965629
1.18831
1.37281
1.70743
2.16904
2.45577
2.41312
1.99816
1.5098
1.40456
1.40007
0.676347
0.685243
0.774593
0.831509
0.957855
1.09954
1.23132
1.53194
1.93821
2.3469
2.41031
2.19494
1.67772
1.42578
1.4006
0.796416
0.688962
0.739311
0.824631
0.950765
1.03572
1.13517
1.39067
1.70973
2.15626
2.38412
2.32264
1.91618
1.48876
1.40355
1.0424
0.739177
0.741029
0.801299
0.920939
0.97883
1.09034
1.31161
1.52653
1.93156
2.30188
2.32571
2.12061
1.62735
1.41964
1.23109
0.890167
0.748069
0.777957
0.868959
0.919525
1.03903
1.24677
1.3982
1.71478
2.13879
2.3109
2.23121
1.8389
1.47185
1.29959
1.09195
0.803593
0.765127
0.798099
0.877001
1.0191
1.16993
1.29654
1.57141
1.95426
2.26218
2.25166
2.0212
1.59049
1.32551
1.2685
1.04645
0.814067
0.801391
0.849882
0.972796
1.05958
1.16414
1.39902
1.67472
2.05042
2.22231
2.16622
1.94215
1.19086
1.06473
0.976109
0.858803
0.728666
0.694134
0.683032
0.668954
0.659125
0.646918
0.633103
0.608387
0.601252
0.64003
0.868017
1.16811
1.21821
1.28776
1.34431
1.33375
0.934811
0.875393
0.806899
0.705679
0.617626
0.622694
0.632462
0.626593
0.624806
0.610282
0.588859
0.574879
0.626463
0.866624
1.17862
1.31056
1.27196
1.28979
1.33608
1.33944
0.72478
0.712672
0.679862
0.603348
0.551903
0.554682
0.579953
0.586996
0.585662
0.57549
0.555645
0.615239
0.871163
1.17003
1.27788
1.32279
1.30864
1.30354
1.33121
1.34501
0.547007
0.578973
0.560036
0.501475
0.496475
0.506406
0.521853
0.539295
0.543924
0.54217
0.630061
0.8945
1.12412
1.31212
1.31426
1.32375
1.32088
1.31302
1.32857
1.3479
0.419504
0.46238