/*--------------------------------*- C++ -*----------------------------------*\
  =========                 |
  \\      /  F ield         | OpenFOAM: The Open Source CFD Toolbox
   \\    /   O peration     | Website:  https://openfoam.org
    \\  /    A nd           | Version:  7
     \\/     M anipulation  |
\*---------------------------------------------------------------------------*/
FoamFile
{
    version     2.0;
    format      ascii;
    class       volScalarField;
    location    "9.4";
    object      T;
}
// * * * * * * * * * * * * * * * * * * * * * * * * * * * * * * * * * * * * * //

dimensions      [0 0 0 1 0 0 0];

internalField   nonuniform List<scalar> 
3700
(
100.656
100.741
100.909
101.009
100.999
100.961
100.952
100.978
101.027
101.094
101.154
101.16
101.149
101.138
101.133
101.126
101.115
101.082
101.046
101.04
100.327
100.268
100.377
100.507
100.435
100.252
100.326
100.431
100.488
100.557
100.65
100.67
100.628
100.572
100.578
100.589
100.561
100.454
100.375
100.363
100.324
100.216
100.138
99.993
99.869
99.8913
99.937
99.9921
100.021
100.041
100.059
100.043
100.025
100.005
99.9861
99.9844
99.9964
100.017
100.035
100.048
100.28
100.197
100.105
99.9189
99.8373
99.8681
99.9109
99.9597
99.9987
100.042
100.077
100.086
100.096
100.096
100.08
100.059
100.028
100.018
100.032
100.078
100.188
100.116
100.014
99.8577
99.8284
99.8607
99.9001
99.9425
99.975
100.016
100.052
100.082
100.11
100.131
100.137
100.137
100.122
100.099
100.074
100.086
100.122
100.045
99.9285
99.8515
99.8596
99.9125
99.9343
99.9507
99.9757
100.016
100.038
100.059
100.093
100.129
100.154
100.17
100.18
100.182
100.176
100.181
100.066
99.9797
99.9102
99.9156
99.9549
100.011
100.034
100.052
100.067
100.087
100.067
100.074
100.088
100.115
100.144
100.176
100.207
100.23
100.24
100.265
100.022
99.9384
99.9332
99.984
100.038
100.075
100.087
100.116
100.158
100.171
100.175
100.175
100.172
100.174
100.174
100.189
100.221
100.263
100.287
100.328
99.9793
99.9121
99.9618
100.041
100.095
100.118
100.109
100.138
100.195
100.222
100.244
100.25
100.269
100.277
100.283
100.289
100.294
100.312
100.335
100.387
99.9301
99.8872
99.9898
100.068
100.113
100.14
100.132
100.154
100.197
100.243
100.274
100.293
100.324
100.337
100.353
100.368
100.38
100.394
100.415
100.45
99.8665
99.8822
100.028
100.064
100.125
100.156
100.164
100.212
100.252
100.281
100.303
100.328
100.359
100.378
100.401
100.427
100.45
100.468
100.505
100.494
99.8154
99.9028
100.018
100.064
100.143
100.203
100.243
100.304
100.347
100.392
100.413
100.43
100.438
100.444
100.455
100.479
100.513
100.541
100.581
100.572
99.7925
99.8588
100.014
100.099
100.151
100.228
100.309
100.374
100.429
100.473
100.491
100.51
100.523
100.533
100.547
100.565
100.59
100.616
100.655
100.655
99.7731
99.7826
100.004
100.101
100.121
100.215
100.35
100.421
100.484
100.53
100.552
100.573
100.592
100.61
100.635
100.661
100.686
100.71
100.726
100.735
99.7239
99.7371
99.9181
100.051
100.118
100.338
100.454
100.525
100.588
100.615
100.632
100.648
100.668
100.693
100.724
100.75
100.771
100.784
100.78
100.776
99.6492
99.7234
99.9017
100.078
100.388
100.572
100.63
100.675
100.708
100.723
100.735
100.751
100.771
100.794
100.813
100.823
100.821
100.814
100.789
100.745
99.5814
99.8483
100.156
100.436
100.629
100.701
100.74
100.773
100.795
100.807
100.819
100.835
100.852
100.856
100.855
100.843
100.792
100.679
100.518
100.278
99.5052
100.038
100.447
100.667
100.774
100.813
100.839
100.86
100.873
100.88
100.881
100.883
100.881
100.858
100.772
100.621
100.359
100.102
100.006
99.9978
100.124
100.53
100.741
100.836
100.885
100.907
100.924
100.923
100.917
100.906
100.893
100.84
100.729
100.474
100.149
100.01
99.9967
99.9985
99.9992
99.9998
100.695
100.835
100.91
100.947
100.964
100.958
100.955
100.931
100.841
100.758
100.572
100.231
100.03
99.9957
99.9977
99.9989
99.9998
100
100
100
100.996
100.993
100.99
100.988
100.983
100.956
100.887
100.458
99.8453
100
100
100
100
100
100
100
100
100
100
100
100.994
100.992
100.985
100.973
100.952
100.864
100.514
100.022
100
100
100
100
100
100
100
100
100
100
100
100
100.99
100.991
100.986
100.966
100.908
100.626
100.035
99.9993
100
100
100
100
100
100
100
100
100
100
100
100
100.986
100.99
100.986
100.956
100.782
100.216
99.9967
100
100
100
100
100
100
100
100
100
100
100
100
100
100.983
100.99
100.986
100.921
100.564
99.9922
100
100
100
100
100
100
100
100
100
100
100
100
100
100
100.979
100.992
100.984
100.835
100.287
100
100
100
100
100
100
100
100
100
100
100
100
100
100
100
100.976
100.988
100.976
100.698
99.9925
100
100
100
100
100
100
100
100
100
100
100
100
100
100
100
100.978
100.972
100.915
100.466
99.9999
100
100
100
100
100
100
100
100
100
100
100
100
100
100
100
101.001
100.964
100.818
100.154
100
100
100
100
100
100
100
100
100
100
100
100
100
100
100
100
101.015
100.942
100.672
99.9965
100
100
100
100
100
100
100
100
100
100
100
100
100
100
100
100
101.025
100.901
100.503
100
100
100
100
100
100
100
100
100
100
100
100
100
100
100
100
100
101.031
100.854
100.318
100
100
100
100
100
100
100
100
100
100
100
100
100
100
100
100
100
101.035
100.803
100.12
100
100
100
100
100
100
100
100
100
100
100
100
100
100
100
100
100
101.028
100.745
100.014
100
100
100
100
100
100
100
100
100
100
100
100
100
100
100
100
100
101.007
100.667
100
100
100
100
100
100
100
100
100
100
100
100
100
100
100
100
100
100
100.983
100.557
100
100
100
100
100
100
100
100
100
100
100
100
100
100
100
100
100
100
100.951
100.434
100
100
100
100
100
100
100
100
100
100
100
100
100
100
100
100
100
100
100.918
100.246
100
100
100
100
100
100
100
100
100
100
100
100
100
100
100
100
100
100
100.862
100.005
100
100
100
100
100
100
100
100
100
100
100
100
100
100
100
100
100
100
100.808
100
100
100
100
100
100
100
100
100
100
100
100
100
100
100
100
100
100
100
100.807
100
100
100
100
100
100
100
100
100
100
100
100
100
100
100
100
100
100
100
100.859
100.005
100
100
100
100
100
100
100
100
100
100
100
100
100
100
100
100
100
100
100.919
100.247
100
100
100
100
100
100
100
100
100
100
100
100
100
100
100
100
100
100
100.954
100.441
100
100
100
100
100
100
100
100
100
100
100
100
100
100
100
100
100
100
100.984
100.557
100
100
100
100
100
100
100
100
100
100
100
100
100
100
100
100
100
100
101.007
100.661
100
100
100
100
100
100
100
100
100
100
100
100
100
100
100
100
100
100
101.026
100.744
100.014
100
100
100
100
100
100
100
100
100
100
100
100
100
100
100
100
100
101.035
100.804
100.122
100
100
100
100
100
100
100
100
100
100
100
100
100
100
100
100
100
101.032
100.856
100.319
100
100
100
100
100
100
100
100
100
100
100
100
100
100
100
100
100
101.026
100.902
100.506
100
100
100
100
100
100
100
100
100
100
100
100
100
100
100
100
100
101.016
100.942
100.673
99.9965
100
100
100
100
100
100
100
100
100
100
100
100
100
100
100
100
101.001
100.965
100.817
100.147
100
100
100
100
100
100
100
100
100
100
100
100
100
100
100
100
100.976
100.971
100.914
100.468
100
100
100
100
100
100
100
100
100
100
100
100
100
100
100
100
100.975
100.985
100.974
100.699
99.9925
100
100
100
100
100
100
100
100
100
100
100
100
100
100
100
100.979
100.993
100.985
100.835
100.282
100
100
100
100
100
100
100
100
100
100
100
100
100
100
100
100.983
100.991
100.987
100.92
100.568
99.9921
100
100
100
100
100
100
100
100
100
100
100
100
100
100
100.987
100.991
100.987
100.957
100.783
100.214
99.9968
100
100
100
100
100
100
100
100
100
100
100
100
100
100.991
100.991
100.987
100.966
100.909
100.621
100.031
99.9994
100
100
100
100
100
100
100
100
100
100
100
100
100.995
100.992
100.986
100.973
100.949
100.861
100.512
100.022
100
100
100
100
100
100
100
100
100
100
100
100
100.996
100.993
100.99
100.987
100.981
100.955
100.89
100.466
99.8409
100
100
100
100
100
100
100
100
100
100
100
100.694
100.835
100.91
100.945
100.963
100.957
100.956
100.933
100.841
100.758
100.57
100.229
100.029
99.9957
99.9977
99.9989
99.9998
100
100
100
100.118
100.531
100.744
100.836
100.884
100.906
100.925
100.924
100.918
100.907
100.892
100.839
100.728
100.475
100.15
100.011
99.9967
99.9985
99.9992
99.9998
99.447
99.9751
100.446
100.666
100.775
100.813
100.84
100.86
100.874
100.879
100.881
100.883
100.882
100.858
100.772
100.621
100.359
100.102
100.006
99.9978
99.5302
99.7724
100.109
100.433
100.629
100.702
100.741
100.774
100.795
100.807
100.819
100.835
100.852
100.856
100.855
100.844
100.792
100.679
100.517
100.278
99.7035
99.7309
99.8767
100.087
100.373
100.569
100.629
100.674
100.707
100.723
100.735
100.75
100.77
100.794
100.813
100.823
100.82
100.814
100.789
100.745
99.7788
99.716
99.882
100.03
100.122
100.334
100.449
100.521
100.585
100.614
100.63
100.647
100.667
100.693
100.725
100.751
100.771
100.783
100.78
100.776
99.8098
99.7427
99.9572
100.098
100.14
100.225
100.353
100.423
100.486
100.532
100.553
100.574
100.592
100.611
100.636
100.661
100.686
100.709
100.726
100.735
99.8158
99.8153
99.9788
100.091
100.159
100.238
100.314
100.377
100.43
100.473
100.491
100.51
100.523
100.534
100.547
100.565
100.589
100.615
100.655
100.656
99.8143
99.9207
99.9995
100.05
100.145
100.21
100.246
100.305
100.347
100.39
100.411
100.429
100.438
100.445
100.456
100.479
100.513
100.54
100.581
100.572
99.8498
99.929
100.038
100.045
100.117
100.169
100.166
100.211
100.251
100.28
100.303
100.329
100.362
100.38
100.402
100.427
100.449
100.467
100.505
100.494
99.9058
99.9215
100.014
100.048
100.1
100.154
100.134
100.154
100.201
100.248
100.278
100.296
100.327
100.338
100.353
100.366
100.379
100.393
100.415
100.45
99.9505
99.92
99.9791
100.024
100.081
100.124
100.114
100.144
100.199
100.226
100.246
100.251
100.268
100.275
100.28
100.285
100.291
100.311
100.336
100.388
99.9972
99.9304
99.9409
99.9698
100.023
100.074
100.091
100.119
100.159
100.17
100.173
100.172
100.167
100.168
100.169
100.187
100.222
100.266
100.288
100.328
100.053
99.9689
99.9078
99.9039
99.9411
100.005
100.032
100.048
100.061
100.08
100.063
100.073
100.09
100.117
100.147
100.179
100.21
100.232
100.24
100.264
100.12
100.044
99.9263
99.8462
99.8465
99.9029
99.9291
99.9473
99.976
100.016
100.04
100.062
100.096
100.133
100.156
100.172
100.181
100.182
100.175
100.178
100.195
100.127
100.025
99.8601
99.8268
99.8602
99.9005
99.9426
99.9764
100.018
100.056
100.086
100.113
100.133
100.139
100.138
100.12
100.096
100.072
100.086
100.27
100.194
100.111
99.9427
99.8383
99.87
99.912
99.9613
100.002
100.045
100.08
100.089
100.098
100.096
100.078
100.056
100.027
100.02
100.036
100.08
100.293
100.208
100.132
100.007
99.8801
99.8983
99.9402
99.9933
100.023
100.043
100.061
100.044
100.024
100.003
99.9846
99.9842
99.9993
100.022
100.038
100.048
100.312
100.345
100.368
100.34
100.498
100.608
100.566
100.478
100.442
100.455
100.499
100.573
100.624
100.618
100.549
100.443
100.442
100.478
100.527
100.516
100.657
100.83
100.915
100.946
101.008
101.047
101.03
101.007
101.009
101.05
101.112
101.147
101.145
101.138
101.118
101.087
101.088
101.098
101.096
101.09
101.051
101.03
101.003
100.989
100.971
100.959
100.925
100.885
100.873
100.875
100.876
100.87
100.855
100.841
100.834
100.833
100.831
100.824
100.813
100.8
100.573
100.648
100.695
100.727
100.777
100.811
100.81
100.802
100.794
100.794
100.803
100.811
100.81
100.803
100.796
100.794
100.795
100.794
100.79
100.781
100.028
100.068
100.177
100.276
100.423
100.52
100.58
100.637
100.645
100.646
100.663
100.686
100.698
100.701
100.702
100.703
100.709
100.717
100.721
100.722
100.084
100.09
100.099
100.091
100.111
100.203
100.36
100.47
100.5
100.517
100.541
100.565
100.577
100.586
100.592
100.597
100.607
100.618
100.626
100.635
100.126
100.143
100.131
100.12
100.114
100.123
100.161
100.269
100.389
100.441
100.462
100.485
100.502
100.512
100.515
100.521
100.529
100.536
100.543
100.553
100.179
100.184
100.184
100.165
100.153
100.156
100.17
100.176
100.215
100.294
100.38
100.427
100.458
100.475
100.476
100.479
100.484
100.487
100.49
100.497
100.235
100.238
100.224
100.19
100.183
100.187
100.196
100.204
100.203
100.195
100.235
100.34
100.406
100.451
100.453
100.456
100.457
100.456
100.459
100.464
100.302
100.289
100.271
100.243
100.217
100.213
100.221
100.219
100.215
100.206
100.189
100.213
100.314
100.395
100.426
100.44
100.437
100.436
100.442
100.445
100.363
100.344
100.32
100.291
100.261
100.248
100.241
100.232
100.229
100.22
100.203
100.182
100.201
100.296
100.389
100.419
100.411
100.417
100.429
100.43
100.426
100.4
100.373
100.339
100.296
100.273
100.257
100.239
100.24
100.234
100.218
100.195
100.181
100.192
100.279
100.366
100.381
100.402
100.416
100.413
100.534
100.44
100.399
100.383
100.354
100.316
100.275
100.26
100.255
100.247
100.236
100.22
100.199
100.182
100.182
100.227
100.311
100.358
100.374
100.381
100.62
100.546
100.46
100.426
100.406
100.378
100.331
100.288
100.265
100.249
100.238
100.227
100.209
100.185
100.166
100.158
100.173
100.223
100.277
100.322
100.608
100.59
100.541
100.471
100.423
100.388
100.357
100.316
100.288
100.269
100.249
100.232
100.215
100.194
100.172
100.155
100.145
100.133
100.145
100.221
100.488
100.547
100.542
100.517
100.468
100.413
100.383
100.349
100.316
100.293
100.267
100.238
100.21
100.188
100.168
100.154
100.135
100.116
100.098
100.105
100.25
100.376
100.446
100.482
100.474
100.448
100.408
100.366
100.321
100.29
100.261
100.236
100.214
100.189
100.175
100.163
100.144
100.117
100.091
100.072
100.043
100.145
100.253
100.335
100.389
100.415
100.405
100.381
100.343
100.301
100.27
100.241
100.222
100.198
100.17
100.144
100.123
100.102
100.084
100.063
100.002
100.015
100.065
100.155
100.233
100.291
100.33
100.349
100.339
100.314
100.282
100.247
100.215
100.189
100.159
100.13
100.115
100.101
100.089
100.065
100
100
100.003
100.024
100.079
100.15
100.209
100.25
100.279
100.29
100.282
100.261
100.227
100.197
100.17
100.144
100.125
100.108
100.087
100.055
100
100
100
100.001
100.006
100.031
100.081
100.139
100.188
100.217
100.241
100.245
100.236
100.215
100.188
100.158
100.128
100.102
100.08
100.049
100
100
100
100
100
100.001
100.007
100.033
100.079
100.128
100.169
100.193
100.211
100.209
100.202
100.184
100.156
100.125
100.1
100.069
100
100
100
100
100
100
100
100.002
100.008
100.032
100.073
100.118
100.153
100.174
100.187
100.185
100.178
100.161
100.137
100.098
100
100
100
100
100
100
100
100
100
100.002
100.008
100.029
100.065
100.108
100.14
100.158
100.168
100.167
100.162
100.139
100
100
100
100
100
100
100
100
100
100
100
100.001
100.007
100.024
100.057
100.096
100.129
100.145
100.153
100.151
100
100
100
100
100
100
100
100
100
100
100
100
100
100.001
100.006
100.019
100.047
100.085
100.113
100.137
100
100
100
100
100
100
100
100
100
100
100
100
100
100
100
100.001
100.004
100.016
100.041
100.105
100.596
100.652
100.609
100.416
100.143
100.017
100.001
100
100
100
100
100
100
100
100
100.672
100.663
100.518
100.218
100.022
100
100
100
100
100
100
100
100
100
100
100.705
100.635
100.373
100.074
100.002
100
100
100
100
100
100
100
100
100
100
100.719
100.517
100.167
100.009
100
100
100
100
100
100
100
100
100
100
100
100.652
100.284
100.024
100
100
100
100
100
100
100
100
100
100
100
100
100.394
100.038
100
100
100
100
100
100
100
100
100
100
100
100
100
100.042
100
100
100
100
100
100
100
100
100
100
100
100
100
100
99.9995
100
100
100
100
100
100
100
100
100
100
100
100
100
100
100
100
100
100
100
100
100
100
100
100
100
100
100
100
100
100
100
100
100
100
100
100
100
100
100
100
100
100
100
100
100
100
100
100
100
100
100
100
100
100
100
100
100
100
100
100
100
100
100
100
100
100
100
100
100
100
100
100
100
100
100
100
100
100
100
100
100
100
100
100
100
100
100
100
100
100
100
100
100
100
100
100
100
100
100
100
100
100
100
100
100
100
100
100
100
100
100
100
100
100
100
100
100
100
100
100
100
100
100
100
100
100
100
100
100
100
100
100
100
100
100
100
100
100
100
100
100
100
100
100
100
100
100
100
100
100
100
100
100
100
100
100
100
100
100
100
100
100
100
100
100
100
100
100
100
100
100
100
100
100
100
100
100
100
100
100
100
100
100
100
100
100
100
100
100
100
100
100
100
100
100
100
100
100
100
100
100
100
100
100
100
100
100
100
100
100
100
100
100
100
100
100
100
100
100
100
100
100
100
100
100
100
100
100
100
100
100
100
100
100
100
100
100
100
100
100
100
100
100
100
100
100
100
100
100
100
100
100
100
100
100
100
100
100
100
100
100
100
100
100
100
100
100
100
100
100
100
100
100
100
100
100
100
100
100
100
100
100
100
100
100
100
100
100
100
100
100
100
100
100
100
100
100
100
100
100
100
100
100
100
100
100
100
100
100
100
100
100
100
100
100
100
100
100
100
100
100
100
100
100
100
100
100
100
100
100
100
100
100
100
100
100
100
100
100
100
100
100
100
100
100
100
100
100
100
100
100
100
100
100
100
100
100
100
100
100
100
100
100
100
100
100
100
100
100
100
100
100
100
100
100
100
100
100
100
100
100
100
100
100
100
100
100
100
100
100
100
100
100
100
100
100
100
100
100
100
100
100
100
100
100
100
100
100
100
100
100
100
100
100
100
100
100
100
100
100
100
100
100
100
100
100
100
100
100
100
100
100
100
100
100
100
100
100
100
100
100
100
100
100
100
100
100
100
100
100
100
100
100
100
100
100
100
100
100
100
100
100
100
100
100
100
100
100
100
100
100
100
100
100
100
100
100
100
100
100
100
100
100
100
100
100
100
100
100
100
100
100
100
100
100
100
100
100
100
100
100
100
100
100
100
100
100
100
100
100
100
100
100
100
100
100
100
100
100
100
100
100
100
100
100
100
100
100
100
100
100
100
100
100
100
100
100
100
100
100
100
100
100
100
100
100
100
100
100
100
100
100
100
100
100
100
100
100
100
100
100
100
100
100
100
100
100
100
100
100
100
100
100
100
100
100
100
100
100
100
100
100
100
100
100
100
100
100
100
100
100
100
100
100
100
100
100
100
100
100
100
100
100
100
100
100
100
100
100
100
100
100
100
100
100
100
100
100
100
100
100
100
100
100
100
100
100
100
100
100
100
100
100
100
100
100
100
100
100
100
100
100
100
100
100
100
100
100
100
100
100
100
100
100
100
100
100
100
100
100
100
100
100
100
100
100
100
100
100
100
100
100
100
100
100
100
100
100
100
100
100
100
100
100
100
100
100
100
100
100
100
100
100
100
100
100
100
100
100
100
100
100
100
100
100
100
100
100
100
100
100
100
100
100
100
100
100
100
100
100
100
100
100
100
100
100
100
100
100
100
100
100
100
100
100
100
100
100
100
100
100
100
100
100
100
100
100
100
100
100
100
100
100
100
100
100
100
100
100
100
100
100
100
100
100
100
100
100
100
100
100
100
100
100
100
100
100
100
100
100
100
100
100
100
100
100
100
100
100
100
100
100
100
100
100
100
100
100
100
100
100
100
100
100
100
100
100
100
100
100
100
100
100
100
100
100
100
100
100
100
100
100
100
100
100
100
100
100
100
100
100
100
100
100
100
100
100
100
100
100
100
100
100
100
100
100
100
100
100
100
100
100
100
100
100
100
100
100
100
100
100
100
100
100
100
100
100
100
100
100
100
100
100
100
99.9995
100
100
100
100
100
100
100
100
100
100
100
100
100
100
100.042
100
100
100
100
100
100
100
100
100
100
100
100
100
100
100.394
100.038
100
100
100
100
100
100
100
100
100
100
100
100
100
100.652
100.284
100.024
100
100
100
100
100
100
100
100
100
100
100
100
100.719
100.517
100.167
100.009
100
100
100
100
100
100
100
100
100
100
100
100.705
100.635
100.373
100.074
100.002
100
100
100
100
100
100
100
100
100
100
100.672
100.663
100.518
100.218
100.022
100
100
100
100
100
100
100
100
100
100
100.597
100.652
100.609
100.417
100.143
100.017
100.001
100
100
100
100
100
100
100
100
100.535
100.621
100.608
100.488
100.25
100.043
100.002
100
100
100
100
100
100
100
100
100.438
100.546
100.59
100.547
100.376
100.145
100.015
100
100
100
100
100
100
100
100
100.399
100.459
100.54
100.542
100.446
100.253
100.065
100.003
100
100
100
100
100
100
100
100.382
100.427
100.472
100.516
100.482
100.335
100.155
100.025
100.001
100
100
100
100
100
100
100.349
100.405
100.426
100.468
100.474
100.389
100.233
100.078
100.006
100
100
100
100
100
100
100.312
100.374
100.388
100.416
100.448
100.415
100.291
100.149
100.031
100.001
100
100
100
100
100
100.281
100.33
100.354
100.383
100.409
100.406
100.329
100.209
100.08
100.007
100
100
100
100
100
100.27
100.292
100.313
100.346
100.365
100.381
100.349
100.25
100.139
100.033
100.002
100
100
100
100
100.256
100.265
100.287
100.318
100.323
100.341
100.339
100.279
100.187
100.079
100.008
100
100
100
100
100.243
100.247
100.269
100.294
100.292
100.302
100.314
100.29
100.217
100.128
100.032
100.002
100
100
100
100.232
100.237
100.257
100.265
100.26
100.272
100.283
100.282
100.241
100.169
100.073
100.008
100
100
100
100.216
100.228
100.24
100.237
100.234
100.244
100.246
100.26
100.245
100.193
100.118
100.029
100.001
100
100
100.195
100.209
100.218
100.208
100.211
100.224
100.215
100.227
100.236
100.211
100.153
100.065
100.007
100
100
100.181
100.185
100.195
100.185
100.187
100.197
100.188
100.197
100.215
100.21
100.174
100.108
100.024
100.001
100
100.183
100.166
100.174
100.167
100.173
100.169
100.157
100.169
100.188
100.202
100.187
100.14
100.057
100.006
100
100.228
100.158
100.156
100.154
100.162
100.145
100.131
100.143
100.157
100.184
100.185
100.158
100.097
100.019
100.001
100.31
100.172
100.145
100.136
100.144
100.123
100.117
100.126
100.127
100.156
100.178
100.168
100.129
100.048
100.004
100.358
100.221
100.133
100.117
100.118
100.102
100.101
100.109
100.102
100.125
100.161
100.167
100.145
100.085
100.016
100.372
100.275
100.146
100.1
100.091
100.083
100.089
100.088
100.08
100.1
100.137
100.162
100.153
100.113
100.041
100.379
100.32
100.222
100.107
100.072
100.061
100.066
100.055
100.049
100.069
100.098
100.139
100.151
100.137
100.105
100.426
100.4
100.375
100.341
100.299
100.275
100.259
100.246
100.236
100.226
100.213
100.194
100.181
100.192
100.283
100.368
100.381
100.402
100.415
100.412
100.361
100.345
100.324
100.291
100.255
100.248
100.243
100.235
100.23
100.218
100.2
100.182
100.202
100.298
100.392
100.42
100.412
100.417
100.429
100.429
100.301
100.29
100.274
100.244
100.219
100.217
100.224
100.223
100.22
100.21
100.189
100.213
100.317
100.408
100.432
100.44
100.436
100.436
100.442
100.445
100.235
100.239
100.224
100.19
100.186
100.191
100.198
100.206
100.206
100.2
100.241
100.34
100.409
100.459
100.457
100.458
100.457
100.456
100.46
100.465
100.177
100.185
100.184
100.162
100.146
100.152
100.168
100.177
100.221
100.305
100.381
100.422
100.458
100.479
100.48
100.482
100.485
100.487
100.491
100.498
100.129
100.139
100.135
100.126
100.124
100.128
100.162
100.263
100.391
100.45
100.465
100.479
100.496
100.509
100.519
100.526
100.531
100.536
100.542
100.552
100.086
100.088
100.087
100.087
100.096
100.184
100.358
100.461
100.501
100.531
100.55
100.558
100.565
100.577
100.593
100.605
100.61
100.615
100.622
100.633
100.028
100.075
100.201
100.277
100.386
100.487
100.566
100.633
100.654
100.666
100.678
100.681
100.682
100.687
100.7
100.709
100.711
100.712
100.714
100.718
100.578
100.648
100.727
100.737
100.75
100.767
100.788
100.802
100.806
100.813
100.817
100.812
100.8
100.791
100.794
100.797
100.795
100.789
100.784
100.777
101.055
101.024
101.011
100.994
100.963
100.939
100.911
100.885
100.878
100.882
100.885
100.876
100.856
100.838
100.834
100.833
100.828
100.819
100.81
100.799
)
;

boundaryField
{
    inlet
    {
        type            fixedValue;
        value           uniform 100;
    }
    outlet
    {
        type            inletOutlet;
        inletValue      uniform 100;
        value           nonuniform List<scalar> 
50
(
100.381
100.322
100.221
100.105
100.072
100.063
100.065
100.055
100.049
100.069
100.098
100.139
100.151
100.137
100.105
100.8
100.781
100.722
100.635
100.553
100.497
100.464
100.445
100.43
100.413
100.412
100.429
100.445
100.465
100.498
100.552
100.633
100.718
100.777
100.799
100.379
100.32
100.222
100.107
100.072
100.061
100.066
100.055
100.049
100.069
100.098
100.139
100.151
100.137
100.105
)
;
    }
    airfoil
    {
        type            zeroGradient;
    }
    top
    {
        type            symmetryPlane;
    }
    bottom
    {
        type            symmetryPlane;
    }
    defaultFaces
    {
        type            empty;
    }
}


// ************************************************************************* //
