/*--------------------------------*- C++ -*----------------------------------*\
  =========                 |
  \\      /  F ield         | OpenFOAM: The Open Source CFD Toolbox
   \\    /   O peration     | Website:  https://openfoam.org
    \\  /    A nd           | Version:  7
     \\/     M anipulation  |
\*---------------------------------------------------------------------------*/
FoamFile
{
    version     2.0;
    format      ascii;
    class       volVectorField;
    location    "9.4";
    object      U;
}
// * * * * * * * * * * * * * * * * * * * * * * * * * * * * * * * * * * * * * //

dimensions      [0 1 -1 0 0 0 0];

internalField   nonuniform List<vector> 
3700
(
(1.40131 -0.512947 0)
(1.46588 -0.551401 0)
(1.41468 -0.320257 0)
(1.4327 -0.222408 0)
(1.48293 -0.251988 0)
(1.54854 -0.374892 0)
(1.51552 -0.366925 0)
(1.47307 -0.330846 0)
(1.476 -0.298749 0)
(1.49651 -0.238492 0)
(1.53986 -0.135061 0)
(1.60108 -0.0933857 0)
(1.638 -0.133751 0)
(1.66339 -0.177443 0)
(1.64915 -0.162569 0)
(1.67104 -0.109372 0)
(1.74618 -0.120232 0)
(1.79072 -0.197844 0)
(1.86712 -0.277407 0)
(1.89584 -0.280394 0)
(1.78437 -1.38431 0)
(1.94342 -1.31485 0)
(2.01517 -1.46366 0)
(1.99521 -1.49325 0)
(2.01546 -1.75632 0)
(1.93319 -2.07149 0)
(1.8251 -1.89564 0)
(1.72835 -1.72781 0)
(1.73235 -1.57507 0)
(1.76442 -1.39107 0)
(1.81427 -1.15389 0)
(1.91736 -1.02341 0)
(2.01706 -1.05988 0)
(2.06519 -1.09047 0)
(2.0577 -1.07404 0)
(2.08008 -1.01683 0)
(2.15794 -1.09627 0)
(2.2606 -1.22083 0)
(2.29846 -1.29336 0)
(2.33342 -1.30001 0)
(1.8082 -1.36572 0)
(2.04398 -1.1542 0)
(2.28057 -1.56701 0)
(2.26966 -1.99948 0)
(2.08089 -2.2264 0)
(2.02746 -2.32382 0)
(2.0232 -2.29217 0)
(1.96674 -2.24153 0)
(1.98883 -2.15086 0)
(2.05671 -2.06137 0)
(2.15188 -2.03028 0)
(2.21831 -1.94823 0)
(2.3238 -1.89852 0)
(2.41859 -1.82804 0)
(2.50206 -1.77648 0)
(2.57419 -1.71873 0)
(2.58631 -1.73542 0)
(2.59168 -1.67544 0)
(2.55281 -1.66085 0)
(2.54463 -1.59286 0)
(1.87417 -1.41717 0)
(2.07729 -1.22572 0)
(2.17818 -1.6995 0)
(2.06057 -2.09944 0)
(2.02435 -2.22407 0)
(2.03571 -2.31675 0)
(2.04968 -2.28447 0)
(2.06779 -2.16133 0)
(2.10429 -2.09858 0)
(2.20412 -1.99153 0)
(2.20668 -2.03889 0)
(2.30149 -1.87391 0)
(2.36053 -1.79176 0)
(2.43556 -1.69505 0)
(2.55008 -1.60411 0)
(2.70394 -1.47222 0)
(2.75287 -1.35302 0)
(2.80729 -1.30961 0)
(2.79934 -1.33266 0)
(2.69689 -1.37962 0)
(1.80459 -1.41491 0)
(1.97153 -1.32269 0)
(1.95759 -1.82301 0)
(1.81755 -2.17806 0)
(1.94038 -2.23645 0)
(1.95038 -2.26759 0)
(2.05875 -2.24288 0)
(2.16053 -2.06606 0)
(2.18653 -2.03943 0)
(2.3216 -1.83754 0)
(2.3503 -1.87843 0)
(2.45417 -1.7692 0)
(2.45165 -1.7228 0)
(2.47029 -1.64594 0)
(2.52484 -1.56388 0)
(2.61764 -1.4445 0)
(2.66182 -1.31135 0)
(2.78386 -1.14303 0)
(2.86123 -0.926663 0)
(2.82995 -0.892798 0)
(1.67416 -1.39955 0)
(1.81282 -1.44631 0)
(1.73703 -1.91006 0)
(1.65972 -2.20258 0)
(1.6584 -2.23368 0)
(1.83357 -2.15809 0)
(1.98369 -2.11781 0)
(2.20409 -1.81515 0)
(2.32236 -1.83809 0)
(2.48794 -1.72621 0)
(2.50307 -1.66462 0)
(2.57202 -1.55419 0)
(2.62416 -1.49607 0)
(2.61828 -1.48061 0)
(2.62738 -1.39034 0)
(2.62624 -1.32915 0)
(2.63256 -1.20699 0)
(2.71762 -1.15621 0)
(2.7529 -1.00051 0)
(2.84062 -0.767083 0)
(1.56585 -1.31813 0)
(1.69055 -1.39368 0)
(1.62137 -1.84635 0)
(1.4935 -2.1581 0)
(1.608 -2.21124 0)
(1.81376 -2.09025 0)
(1.93914 -2.02424 0)
(2.10261 -1.78211 0)
(2.21766 -1.69555 0)
(2.42552 -1.60949 0)
(2.54185 -1.39476 0)
(2.66898 -1.31242 0)
(2.72759 -1.17085 0)
(2.73559 -1.16216 0)
(2.7572 -1.05075 0)
(2.73641 -1.04128 0)
(2.71689 -0.935328 0)
(2.70622 -0.933858 0)
(2.72586 -0.905387 0)
(2.75279 -0.674199 0)
(1.52651 -1.24103 0)
(1.61812 -1.30143 0)
(1.56745 -1.76176 0)
(1.51676 -2.11846 0)
(1.64376 -2.19593 0)
(1.88309 -2.08228 0)
(2.02479 -1.982 0)
(2.12173 -1.76841 0)
(2.18365 -1.66574 0)
(2.30904 -1.60299 0)
(2.43503 -1.3601 0)
(2.60709 -1.27894 0)
(2.65965 -0.991805 0)
(2.75896 -0.885946 0)
(2.7749 -0.664443 0)
(2.77516 -0.635351 0)
(2.77257 -0.558417 0)
(2.74985 -0.535131 0)
(2.7274 -0.649953 0)
(2.69397 -0.498174 0)
(1.53798 -1.19495 0)
(1.59569 -1.25155 0)
(1.5829 -1.74871 0)
(1.59394 -2.11992 0)
(1.85715 -2.1662 0)
(2.18191 -1.96325 0)
(2.25457 -1.74503 0)
(2.32127 -1.62392 0)
(2.34925 -1.58972 0)
(2.36994 -1.5296 0)
(2.45155 -1.3323 0)
(2.54211 -1.21755 0)
(2.58817 -0.992307 0)
(2.70412 -0.894722 0)
(2.71391 -0.63561 0)
(2.76046 -0.481829 0)
(2.75948 -0.300131 0)
(2.74359 -0.171123 0)
(2.70252 -0.253057 0)
(2.66117 -0.229508 0)
(1.53981 -1.20164 0)
(1.60693 -1.30768 0)
(1.63562 -1.84194 0)
(1.7365 -2.1938 0)
(2.24477 -2.04495 0)
(2.48545 -1.89228 0)
(2.52245 -1.4617 0)
(2.54857 -1.31913 0)
(2.60724 -1.23461 0)
(2.64559 -1.17339 0)
(2.6441 -1.10609 0)
(2.66221 -0.922797 0)
(2.64525 -0.802385 0)
(2.67819 -0.709874 0)
(2.672 -0.540876 0)
(2.69177 -0.432395 0)
(2.71043 -0.28683 0)
(2.68935 -0.0895107 0)
(2.65081 0.0322018 0)
(2.6146 0.0231446 0)
(1.50274 -1.23249 0)
(1.65388 -1.43748 0)
(1.84171 -2.18699 0)
(1.94503 -2.36779 0)
(2.24852 -1.93863 0)
(2.37931 -1.7946 0)
(2.56856 -1.34574 0)
(2.70291 -1.14015 0)
(2.79504 -1.00938 0)
(2.77926 -0.67431 0)
(2.77648 -0.580395 0)
(2.74302 -0.384821 0)
(2.72855 -0.344586 0)
(2.71208 -0.242965 0)
(2.68527 -0.179325 0)
(2.65139 -0.141218 0)
(2.6387 -0.121197 0)
(2.61846 -0.030506 0)
(2.55754 0.151581 0)
(2.56518 0.157719 0)
(1.35802 -1.30973 0)
(1.68513 -1.84582 0)
(1.90728 -2.3582 0)
(1.91265 -2.18058 0)
(2.09722 -1.78521 0)
(2.20958 -1.59222 0)
(2.36083 -1.32641 0)
(2.46885 -1.09178 0)
(2.53391 -0.983326 0)
(2.59728 -0.707851 0)
(2.67617 -0.504251 0)
(2.66063 -0.222801 0)
(2.67016 -0.0650397 0)
(2.63831 0.103799 0)
(2.60061 0.220489 0)
(2.56391 0.259954 0)
(2.53174 0.263451 0)
(2.53064 0.196062 0)
(2.4546 0.312929 0)
(2.47573 0.281939 0)
(1.24418 -1.4515 0)
(1.69884 -2.29901 0)
(1.80553 -2.15685 0)
(1.87627 -1.94071 0)
(2.06207 -1.67064 0)
(2.22534 -1.39692 0)
(2.31547 -1.2052 0)
(2.4106 -0.967964 0)
(2.45654 -0.748107 0)
(2.50015 -0.585392 0)
(2.55574 -0.3897 0)
(2.55464 -0.161943 0)
(2.56696 0.00835915 0)
(2.54686 0.179631 0)
(2.48904 0.362447 0)
(2.45616 0.447774 0)
(2.3805 0.566315 0)
(2.35587 0.536157 0)
(2.3183 0.564396 0)
(2.32858 0.51617 0)
(1.28232 -1.63213 0)
(1.57827 -2.40836 0)
(1.83484 -1.98265 0)
(1.96539 -1.80312 0)
(2.26004 -1.33488 0)
(2.39361 -0.841973 0)
(2.48102 -0.745086 0)
(2.55463 -0.512516 0)
(2.53046 -0.19952 0)
(2.54536 -0.101341 0)
(2.52505 0.0874639 0)
(2.48837 0.227559 0)
(2.45175 0.332002 0)
(2.41462 0.416194 0)
(2.35888 0.508545 0)
(2.33199 0.556631 0)
(2.25115 0.662663 0)
(2.19364 0.741205 0)
(2.15801 0.791896 0)
(2.14158 0.793068 0)
(1.36244 -1.66428 0)
(1.46178 -2.18528 0)
(2.02773 -1.66025 0)
(2.26171 -1.18447 0)
(2.38543 -0.513181 0)
(2.51274 -0.294511 0)
(2.55987 -0.0856203 0)
(2.53889 0.126095 0)
(2.49718 0.223976 0)
(2.46794 0.364339 0)
(2.40608 0.517078 0)
(2.32395 0.652253 0)
(2.26698 0.72418 0)
(2.20824 0.789983 0)
(2.17042 0.799098 0)
(2.13361 0.811809 0)
(2.08712 0.855483 0)
(2.06745 0.879828 0)
(2.03252 0.93172 0)
(2.05758 0.956682 0)
(1.32094 -1.33093 0)
(1.58592 -1.75612 0)
(2.21522 -1.24006 0)
(2.3249 -0.196062 0)
(2.43669 0.00395177 0)
(2.44892 -0.205964 0)
(2.45973 0.0150174 0)
(2.40487 0.282302 0)
(2.34964 0.41194 0)
(2.31725 0.571673 0)
(2.22532 0.728933 0)
(2.13498 0.850921 0)
(2.07124 0.920862 0)
(2.01226 0.982267 0)
(1.97709 0.987035 0)
(1.9525 0.997488 0)
(1.95387 1.01757 0)
(1.97004 0.994878 0)
(1.99597 0.994284 0)
(2.07149 0.977553 0)
(1.22796 -0.813381 0)
(1.56809 -1.32803 0)
(2.20155 -0.735191 0)
(2.33095 0.114952 0)
(2.34813 0.110016 0)
(2.34902 0.309393 0)
(2.27542 0.519672 0)
(2.21549 0.635721 0)
(2.14137 0.746527 0)
(2.09389 0.887529 0)
(1.98048 0.998838 0)
(1.92019 1.05366 0)
(1.88538 1.07416 0)
(1.86911 1.08597 0)
(1.87307 1.05589 0)
(1.89746 1.0485 0)
(1.96051 1.02256 0)
(2.16158 0.906771 0)
(2.38121 0.794483 0)
(2.78051 0.440738 0)
(0.988346 -0.0472388 0)
(1.91691 0.151268 0)
(2.21889 0.529716 0)
(2.22814 0.532738 0)
(2.20004 0.590084 0)
(2.1442 0.73549 0)
(2.03574 0.899085 0)
(1.96001 0.984275 0)
(1.90552 1.04249 0)
(1.85039 1.13028 0)
(1.79052 1.16191 0)
(1.78998 1.15278 0)
(1.80727 1.12963 0)
(1.85047 1.08579 0)
(2.04315 0.948317 0)
(2.26055 0.827393 0)
(2.66172 0.5062 0)
(3.03461 0.0944069 0)
(3.0554 -0.0234189 0)
(3.00403 -0.00465571 0)
(1.01692 0.0274919 0)
(1.91449 0.820763 0)
(2.11776 0.801342 0)
(2.00629 0.946937 0)
(1.954 0.989183 0)
(1.85087 1.09699 0)
(1.79121 1.1329 0)
(1.76672 1.14368 0)
(1.76508 1.16088 0)
(1.74307 1.2012 0)
(1.72078 1.19393 0)
(1.85642 1.06939 0)
(2.08838 0.88763 0)
(2.49669 0.581638 0)
(2.98539 0.138527 0)
(3.07401 -0.0291434 0)
(3.00823 -0.00772549 0)
(3.00295 -0.00385402 0)
(3.00123 -0.00220435 0)
(3.00008 -0.000489646 0)
(1.16423 0.765755 0)
(1.82863 1.15236 0)
(1.84106 1.15259 0)
(1.73596 1.19979 0)
(1.7069 1.19428 0)
(1.66265 1.2398 0)
(1.65891 1.21295 0)
(1.731 1.16635 0)
(1.76779 1.23155 0)
(1.80418 1.13697 0)
(2.27787 0.731569 0)
(2.86222 0.203882 0)
(3.09993 -0.0302681 0)
(3.02136 -0.0127765 0)
(3.00448 -0.00548319 0)
(3.00178 -0.00297585 0)
(3.00005 -0.00056835 0)
(2.99998 -2.1798e-05 0)
(2.99999 1.44295e-05 0)
(3 5.93009e-06 0)
(1.58055 1.25796 0)
(1.58456 1.26435 0)
(1.59152 1.26976 0)
(1.59863 1.26628 0)
(1.6044 1.25429 0)
(1.59283 1.26914 0)
(1.89867 1.1808 0)
(2.96603 0.405387 0)
(3.33306 -0.606625 0)
(3 6.25439e-11 0)
(3 -7.36282e-11 0)
(3 7.84398e-11 0)
(3 1.61638e-15 0)
(3 -4.28128e-13 0)
(3 -1.81821e-14 0)
(3 1.73495e-14 0)
(3 -1.38655e-14 0)
(3 -2.69461e-15 0)
(3 -3.4892e-15 0)
(3 -9.47651e-15 0)
(1.58387 1.24886 0)
(1.59469 1.25789 0)
(1.60516 1.2669 0)
(1.61052 1.28014 0)
(1.64284 1.2713 0)
(1.71302 1.2253 0)
(2.23686 0.759827 0)
(2.99106 0.0214181 0)
(3 4.99556e-08 0)
(3 -2.98322e-11 0)
(3 -6.59279e-15 0)
(3 -9.76995e-16 0)
(3 -1.51159e-15 0)
(3 -8.68319e-16 0)
(3 -1.65833e-15 0)
(3 -1.4211e-15 0)
(3 -2.17368e-15 0)
(3 -1.41228e-15 0)
(3 -3.91693e-15 0)
(3 -4.39447e-15 0)
(1.58361 1.24728 0)
(1.60493 1.25289 0)
(1.61686 1.25612 0)
(1.61349 1.27696 0)
(1.67951 1.2282 0)
(2.23667 0.773291 0)
(3.00115 -0.0063764 0)
(3.00026 -0.000674063 0)
(3 7.81991e-07 0)
(3 6.00094e-11 0)
(3 -2.24199e-14 0)
(3 -1.48401e-15 0)
(3 -1.02111e-15 0)
(3 -1.63017e-15 0)
(3 -1.29546e-15 0)
(3 -1.92795e-15 0)
(3 -4.18317e-15 0)
(3 -2.91263e-15 0)
(3 -4.66757e-15 0)
(3 -4.2654e-15 0)
(1.58302 1.2526 0)
(1.60382 1.25248 0)
(1.62362 1.2551 0)
(1.64558 1.25867 0)
(1.91096 1.05335 0)
(2.77175 0.201492 0)
(3.00463 -0.00136109 0)
(2.99991 7.94019e-05 0)
(3 -9.4242e-07 0)
(3 8.97751e-10 0)
(3 -9.82898e-15 0)
(3 -1.18832e-15 0)
(3 -1.29533e-15 0)
(3 -2.17283e-15 0)
(3 -1.90025e-15 0)
(3 -2.88706e-15 0)
(3 -3.93934e-15 0)
(3 -3.26241e-15 0)
(3 -4.81037e-15 0)
(3 -4.20186e-15 0)
(1.58253 1.26189 0)
(1.59474 1.26057 0)
(1.63169 1.26267 0)
(1.68345 1.23158 0)
(2.34523 0.64135 0)
(3.01987 -0.0177404 0)
(2.99975 0.00016284 0)
(3 -4.28122e-06 0)
(3 8.36436e-08 0)
(3 -9.21672e-10 0)
(3 1.55648e-13 0)
(3 -7.92674e-16 0)
(3 -1.91485e-15 0)
(3 -2.83915e-15 0)
(3 -2.4822e-15 0)
(3 -3.38519e-15 0)
(3 -2.83313e-15 0)
(3 -4.0841e-15 0)
(3 -5.08745e-15 0)
(3 -5.0031e-15 0)
(1.58065 1.27922 0)
(1.58444 1.27988 0)
(1.64559 1.26032 0)
(1.7541 1.17684 0)
(2.6663 0.285007 0)
(3 -6.04778e-10 0)
(3 1.41806e-08 0)
(3 -1.27801e-08 0)
(3 5.48752e-10 0)
(3 2.71735e-12 0)
(3 -9.79535e-14 0)
(3 -8.17836e-16 0)
(3 -1.63938e-15 0)
(3 -2.15552e-15 0)
(3 -1.90723e-15 0)
(3 -1.07081e-15 0)
(3 -2.65376e-15 0)
(3 -4.11797e-15 0)
(3 -4.86909e-15 0)
(3 -5.49589e-15 0)
(1.57993 1.29533 0)
(1.55493 1.30555 0)
(1.67865 1.24175 0)
(2.21459 0.823316 0)
(3.02284 -0.0231233 0)
(3 -7.09471e-12 0)
(3 1.95182e-12 0)
(3 7.79752e-12 0)
(3 -2.45052e-12 0)
(3 3.67975e-15 0)
(3 -1.4121e-15 0)
(3 -1.8734e-15 0)
(3 -2.0804e-15 0)
(3 -1.42264e-15 0)
(3 -1.49132e-15 0)
(3 -1.74707e-15 0)
(3 -3.3288e-15 0)
(3 -3.92263e-15 0)
(3 -3.97607e-15 0)
(3 -4.65853e-15 0)
(1.59287 1.32873 0)
(1.49306 1.3355 0)
(1.74542 1.18323 0)
(2.40603 0.551657 0)
(3 -5.67102e-07 0)
(3 -3.49714e-12 0)
(3 -1.17436e-15 0)
(3 -5.34542e-15 0)
(3 4.3619e-15 0)
(3 -2.11535e-15 0)
(3 -2.72025e-15 0)
(3 -2.21482e-15 0)
(3 -2.37727e-15 0)
(3 -2.38084e-15 0)
(3 -1.84302e-15 0)
(3 -2.29092e-15 0)
(3 -3.75028e-15 0)
(3 -4.75416e-15 0)
(3 -4.3585e-15 0)
(3 -4.93819e-15 0)
(1.58958 1.30654 0)
(1.47349 1.36043 0)
(1.935 1.03948 0)
(2.85646 0.122091 0)
(3 -1.6415e-08 0)
(3 3.6683e-11 0)
(3 -9.79107e-14 0)
(3 -1.85668e-15 0)
(3 -1.69945e-15 0)
(3 -1.57214e-15 0)
(3 -1.68256e-15 0)
(3 -1.66859e-15 0)
(3 -2.15821e-15 0)
(3 -2.60248e-15 0)
(3 -2.19794e-15 0)
(3 -2.51514e-15 0)
(3 -2.76032e-15 0)
(3 -5.2134e-15 0)
(3 -5.33907e-15 0)
(3 -5.32211e-15 0)
(1.60325 1.29072 0)
(1.47916 1.37014 0)
(2.19417 0.801483 0)
(3.01042 -0.00870991 0)
(3 4.06701e-08 0)
(3 -2.46685e-11 0)
(3 4.16955e-14 0)
(3 -2.02645e-15 0)
(3 -1.86998e-15 0)
(3 -1.67774e-15 0)
(3 -1.58638e-15 0)
(3 -9.91849e-16 0)
(3 -1.29881e-15 0)
(3 -1.57906e-15 0)
(3 -2.09755e-15 0)
(3 -2.48577e-15 0)
(3 -2.40171e-15 0)
(3 -3.81504e-15 0)
(3 -4.45916e-15 0)
(3 -5.32341e-15 0)
(1.62017 1.27752 0)
(1.55903 1.324 0)
(2.40758 0.55147 0)
(3 -3.77568e-12 0)
(3 -3.8649e-11 0)
(3 4.67265e-13 0)
(3 -3.71268e-15 0)
(3 -1.71324e-15 0)
(3 -1.89125e-15 0)
(3 -1.80622e-15 0)
(3 -1.22933e-15 0)
(3 -1.07623e-15 0)
(3 -8.91392e-16 0)
(3 -7.51802e-16 0)
(3 -1.1832e-15 0)
(3 -1.70457e-15 0)
(3 -1.82998e-15 0)
(3 -2.18996e-15 0)
(3 -2.54397e-15 0)
(3 -3.33346e-15 0)
(1.63811 1.26262 0)
(1.63657 1.24579 0)
(2.65469 0.290303 0)
(3 6.58647e-13 0)
(3 -1.1963e-13 0)
(3 -3.16105e-15 0)
(3 9.33048e-17 0)
(3 -6.57788e-16 0)
(3 -5.69478e-16 0)
(3 -5.84182e-16 0)
(3 -4.06504e-16 0)
(3 -3.87885e-16 0)
(3 -4.41542e-16 0)
(3 -1.084e-16 0)
(3 -3.48252e-16 0)
(3 -1.405e-15 0)
(3 -1.68302e-15 0)
(3 -1.88405e-15 0)
(3 -2.12614e-15 0)
(3 -2.58501e-15 0)
(1.65394 1.24115 0)
(1.82478 1.10659 0)
(2.86724 0.102353 0)
(3 -1.78138e-14 0)
(3 8.04725e-16 0)
(3 1.20663e-15 0)
(3 9.13867e-16 0)
(3 3.47603e-16 0)
(3 2.492e-17 0)
(3 -1.32044e-16 0)
(3 -7.20458e-17 0)
(3 -9.49802e-17 0)
(3 1.21211e-16 0)
(3 7.92869e-16 0)
(3 7.33869e-16 0)
(3 2.0461e-16 0)
(3 -4.85853e-16 0)
(3 -1.08906e-15 0)
(3 -1.87966e-15 0)
(3 -2.06002e-15 0)
(1.66231 1.20556 0)
(1.87794 0.984203 0)
(2.97709 0.0159456 0)
(3 1.02052e-15 0)
(3 1.34034e-15 0)
(3 1.1628e-15 0)
(3 1.0006e-15 0)
(3 3.20055e-16 0)
(3 2.94248e-16 0)
(3 -1.04756e-16 0)
(3 -6.39241e-17 0)
(3 5.92193e-17 0)
(3 2.10349e-16 0)
(3 8.89031e-16 0)
(3 1.16656e-15 0)
(3 1.24669e-15 0)
(3 8.34668e-16 0)
(3 5.09792e-16 0)
(3 8.49378e-18 0)
(3 -3.37491e-16 0)
(1.71118 1.16703 0)
(2.06262 0.81515 0)
(3 7.96017e-16 0)
(3 9.76635e-16 0)
(3 1.09861e-15 0)
(3 1.18849e-15 0)
(3 1.17059e-15 0)
(3 9.88491e-16 0)
(3 5.93158e-16 0)
(3 8.93894e-17 0)
(3 -1.44297e-16 0)
(3 -2.08566e-16 0)
(3 -1.78655e-16 0)
(3 -4.90696e-16 0)
(3 1.44999e-16 0)
(3 4.08511e-16 0)
(3 5.72091e-16 0)
(3 2.48327e-16 0)
(3 -4.34804e-16 0)
(3 -7.35483e-16 0)
(1.78228 1.10135 0)
(2.24112 0.649072 0)
(3 1.53444e-15 0)
(3 4.30573e-16 0)
(3 5.48612e-16 0)
(3 9.66594e-16 0)
(3 1.44203e-15 0)
(3 1.44583e-15 0)
(3 7.75899e-16 0)
(3 6.34169e-16 0)
(3 6.61096e-16 0)
(3 8.57189e-16 0)
(3 1.11858e-15 0)
(3 1.29789e-15 0)
(3 9.80504e-16 0)
(3 7.45468e-16 0)
(3 8.84788e-16 0)
(3 9.20295e-16 0)
(3 6.68682e-16 0)
(3 7.70417e-17 0)
(1.8135 1.00582 0)
(2.44727 0.443106 0)
(3 7.74624e-16 0)
(3 -4.65577e-16 0)
(3 -3.49078e-16 0)
(3 5.8386e-16 0)
(3 2.96764e-15 0)
(3 3.58926e-15 0)
(3 3.3802e-15 0)
(3 3.11146e-15 0)
(3 2.18785e-15 0)
(3 2.03345e-15 0)
(3 2.02596e-15 0)
(3 1.9798e-15 0)
(3 1.74925e-15 0)
(3 1.55007e-15 0)
(3 1.68302e-15 0)
(3 1.61363e-15 0)
(3 1.56682e-15 0)
(3 1.73187e-15 0)
(1.92789 0.879636 0)
(2.69722 0.21854 0)
(3 3.58543e-15 0)
(3 3.12016e-15 0)
(3 3.31187e-15 0)
(3 3.64698e-15 0)
(3 3.96467e-15 0)
(3 3.81637e-15 0)
(3 3.08682e-15 0)
(3 2.13827e-15 0)
(3 2.18165e-15 0)
(3 2.4037e-15 0)
(3 2.35142e-15 0)
(3 2.05069e-15 0)
(3 1.94842e-15 0)
(3 2.03769e-15 0)
(3 2.48959e-15 0)
(3 2.90904e-15 0)
(3 2.86015e-15 0)
(3 2.73829e-15 0)
(2.09954 0.660096 0)
(2.99005 0.000120929 0)
(3 4.19621e-15 0)
(3 2.75258e-15 0)
(3 2.28018e-15 0)
(3 2.43534e-15 0)
(3 2.45404e-15 0)
(3 2.03941e-15 0)
(3 1.79796e-15 0)
(3 1.35074e-15 0)
(3 1.03598e-15 0)
(3 7.26316e-16 0)
(3 8.33653e-16 0)
(3 1.04993e-15 0)
(3 1.07657e-15 0)
(3 7.77059e-16 0)
(3 5.41553e-16 0)
(3 1.27811e-15 0)
(3 1.28149e-15 0)
(3 1.38615e-15 0)
(1.99403 0.371485 0)
(2.99992 -8.81066e-06 0)
(3 5.06156e-15 0)
(3 2.91329e-15 0)
(3 2.18458e-15 0)
(3 1.73258e-15 0)
(3 1.70496e-15 0)
(3 1.61263e-15 0)
(3 1.28658e-15 0)
(3 1.24358e-15 0)
(3 1.20778e-15 0)
(3 1.13466e-15 0)
(3 1.25712e-15 0)
(3 1.40596e-15 0)
(3 1.46837e-15 0)
(3 1.38229e-15 0)
(3 1.19259e-15 0)
(3 1.10268e-15 0)
(3 9.5857e-16 0)
(3 9.66532e-16 0)
(1.99433 -0.372366 0)
(2.99992 7.07267e-06 0)
(3 1.95946e-15 0)
(3 2.52751e-15 0)
(3 1.84833e-15 0)
(3 1.31638e-15 0)
(3 1.13694e-15 0)
(3 -2.34462e-16 0)
(3 -2.78054e-16 0)
(3 1.50057e-16 0)
(3 2.80627e-16 0)
(3 4.14506e-16 0)
(3 5.63329e-16 0)
(3 5.8579e-16 0)
(3 6.86069e-16 0)
(3 8.35616e-16 0)
(3 1.24954e-15 0)
(3 1.48821e-15 0)
(3 1.74825e-15 0)
(3 1.96799e-15 0)
(2.10316 -0.656949 0)
(2.99013 -0.000170014 0)
(3 2.4731e-15 0)
(3 2.18116e-15 0)
(3 1.53664e-15 0)
(3 9.65731e-16 0)
(3 9.11764e-16 0)
(3 3.84806e-16 0)
(3 -8.41717e-17 0)
(3 1.9327e-16 0)
(3 2.74767e-16 0)
(3 5.82133e-16 0)
(3 7.2292e-16 0)
(3 2.73911e-16 0)
(3 1.52085e-16 0)
(3 3.25598e-16 0)
(3 5.78383e-16 0)
(3 1.11458e-15 0)
(3 1.02214e-15 0)
(3 1.00072e-15 0)
(1.93198 -0.882932 0)
(2.69635 -0.220026 0)
(3 2.85123e-15 0)
(3 2.27326e-15 0)
(3 1.69434e-15 0)
(3 1.61045e-15 0)
(3 1.70067e-15 0)
(3 1.30408e-15 0)
(3 3.37598e-16 0)
(3 1.93639e-16 0)
(3 8.56502e-16 0)
(3 1.39517e-15 0)
(3 1.47822e-15 0)
(3 1.46089e-15 0)
(3 1.53833e-15 0)
(3 1.65396e-15 0)
(3 1.29642e-15 0)
(3 7.78632e-16 0)
(3 2.98306e-16 0)
(3 -2.05059e-16 0)
(1.80733 -1.00827 0)
(2.43823 -0.448255 0)
(3 2.16804e-15 0)
(3 2.05177e-15 0)
(3 1.88027e-15 0)
(3 1.89506e-15 0)
(3 1.94596e-15 0)
(3 1.86886e-15 0)
(3 1.9099e-15 0)
(3 2.74153e-15 0)
(3 3.953e-15 0)
(3 3.9108e-15 0)
(3 3.34583e-15 0)
(3 2.98816e-15 0)
(3 2.81373e-15 0)
(3 2.60957e-15 0)
(3 2.32219e-15 0)
(3 1.56228e-15 0)
(3 1.57354e-15 0)
(3 1.39192e-15 0)
(1.77841 -1.09729 0)
(2.24038 -0.649518 0)
(3 2.54501e-15 0)
(3 2.37499e-15 0)
(3 2.05442e-15 0)
(3 2.01141e-15 0)
(3 2.20926e-15 0)
(3 2.23013e-15 0)
(3 2.28826e-15 0)
(3 2.69075e-15 0)
(3 3.11573e-15 0)
(3 2.92453e-15 0)
(3 2.65904e-15 0)
(3 2.42272e-15 0)
(3 2.68863e-15 0)
(3 3.19777e-15 0)
(3 2.30685e-15 0)
(3 1.77782e-15 0)
(3 1.11374e-15 0)
(3 5.91032e-16 0)
(1.71959 -1.16668 0)
(2.06945 -0.812865 0)
(3 1.47525e-15 0)
(3 1.37062e-15 0)
(3 1.30757e-15 0)
(3 1.52642e-15 0)
(3 1.85258e-15 0)
(3 1.84459e-15 0)
(3 2.00989e-15 0)
(3 2.3884e-15 0)
(3 2.57412e-15 0)
(3 2.58951e-15 0)
(3 2.53545e-15 0)
(3 2.77151e-15 0)
(3 2.58539e-15 0)
(3 1.59575e-15 0)
(3 3.18568e-16 0)
(3 3.6968e-16 0)
(3 9.65472e-17 0)
(3 4.96696e-17 0)
(1.66091 -1.20654 0)
(1.8793 -0.981519 0)
(2.97726 -0.015307 0)
(3 1.06799e-15 0)
(3 8.16532e-16 0)
(3 1.13308e-15 0)
(3 1.56784e-15 0)
(3 1.92457e-15 0)
(3 2.09431e-15 0)
(3 2.34013e-15 0)
(3 2.63671e-15 0)
(3 2.79888e-15 0)
(3 3.05464e-15 0)
(3 2.59991e-15 0)
(3 1.83597e-15 0)
(3 1.08901e-15 0)
(3 6.81199e-16 0)
(3 9.11254e-16 0)
(3 1.16392e-15 0)
(3 1.51266e-15 0)
(1.65325 -1.24032 0)
(1.81974 -1.10616 0)
(2.86499 -0.103178 0)
(3 8.3563e-15 0)
(3 1.37805e-15 0)
(3 1.20794e-15 0)
(3 1.46734e-15 0)
(3 2.30553e-15 0)
(3 3.10667e-15 0)
(3 3.39727e-15 0)
(3 3.31761e-15 0)
(3 2.61936e-15 0)
(3 2.31469e-15 0)
(3 1.93815e-15 0)
(3 1.90991e-15 0)
(3 1.47685e-15 0)
(3 1.96488e-15 0)
(3 2.63732e-15 0)
(3 2.49654e-15 0)
(3 2.16677e-15 0)
(1.63725 -1.26464 0)
(1.64122 -1.24375 0)
(2.65411 -0.290915 0)
(3 -9.74815e-13 0)
(3 1.64862e-13 0)
(3 4.89463e-15 0)
(3 1.78618e-15 0)
(3 2.99634e-15 0)
(3 3.12406e-15 0)
(3 2.79273e-15 0)
(3 2.2419e-15 0)
(3 2.10627e-15 0)
(3 2.29622e-15 0)
(3 2.10099e-15 0)
(3 2.2925e-15 0)
(3 1.87679e-15 0)
(3 2.79891e-15 0)
(3 3.13723e-15 0)
(3 3.20194e-15 0)
(3 2.90819e-15 0)
(1.61951 -1.27787 0)
(1.55498 -1.32712 0)
(2.40505 -0.55563 0)
(3 4.13435e-12 0)
(3 3.56257e-11 0)
(3 -5.03184e-13 0)
(3 5.45467e-15 0)
(3 2.16889e-15 0)
(3 2.58596e-15 0)
(3 2.48851e-15 0)
(3 1.72264e-15 0)
(3 1.54295e-15 0)
(3 1.8082e-15 0)
(3 2.15264e-15 0)
(3 2.7303e-15 0)
(3 2.71586e-15 0)
(3 3.46802e-15 0)
(3 3.54157e-15 0)
(3 3.36192e-15 0)
(3 3.18999e-15 0)
(1.60241 -1.29022 0)
(1.477 -1.37292 0)
(2.18943 -0.805901 0)
(3.01037 0.00855806 0)
(3 -3.9607e-08 0)
(3 3.69634e-11 0)
(3 -7.09113e-14 0)
(3 1.76516e-15 0)
(3 2.0156e-15 0)
(3 2.00347e-15 0)
(3 9.85985e-16 0)
(3 9.35627e-16 0)
(3 2.00003e-15 0)
(3 2.28338e-15 0)
(3 2.70592e-15 0)
(3 2.34265e-15 0)
(3 3.22107e-15 0)
(3 3.98684e-15 0)
(3 3.10169e-15 0)
(3 2.47902e-15 0)
(1.58921 -1.30514 0)
(1.47532 -1.35453 0)
(1.95063 -1.03274 0)
(2.86579 -0.11574 0)
(3 1.38515e-08 0)
(3 -4.83947e-11 0)
(3 1.24616e-13 0)
(3 9.93375e-16 0)
(3 1.96296e-15 0)
(3 1.92153e-15 0)
(3 7.35811e-16 0)
(3 1.11851e-15 0)
(3 2.77186e-15 0)
(3 2.938e-15 0)
(3 2.99166e-15 0)
(3 2.62182e-15 0)
(3 2.56166e-15 0)
(3 3.09848e-15 0)
(3 1.77001e-15 0)
(3 3.19789e-15 0)
(1.594 -1.33069 0)
(1.49508 -1.33671 0)
(1.73585 -1.18595 0)
(2.3953 -0.555043 0)
(3 2.91024e-07 0)
(3 1.55543e-12 0)
(3 6.85908e-16 0)
(3 3.28472e-15 0)
(3 -2.27128e-15 0)
(3 1.87074e-15 0)
(3 8.64617e-16 0)
(3 1.22711e-15 0)
(3 3.43529e-15 0)
(3 4.23868e-15 0)
(3 3.13606e-15 0)
(3 3.13607e-15 0)
(3 1.823e-15 0)
(3 1.93849e-15 0)
(3 2.76751e-15 0)
(3 3.93942e-15 0)
(1.58075 -1.29514 0)
(1.55209 -1.30827 0)
(1.6803 -1.23852 0)
(2.21424 -0.822221 0)
(3.02279 0.0228342 0)
(3 5.923e-12 0)
(3 -2.93523e-12 0)
(3 -4.77547e-12 0)
(3 2.24623e-12 0)
(3 -5.7929e-15 0)
(3 6.83269e-16 0)
(3 2.21279e-15 0)
(3 4.54399e-15 0)
(3 5.54886e-15 0)
(3 4.23984e-15 0)
(3 1.87787e-15 0)
(3 2.02969e-15 0)
(3 2.22254e-15 0)
(3 3.27338e-15 0)
(3 3.88704e-15 0)
(1.58098 -1.28141 0)
(1.58711 -1.28119 0)
(1.64471 -1.26154 0)
(1.76447 -1.16749 0)
(2.67215 -0.277664 0)
(3 6.03531e-10 0)
(3 -1.40944e-08 0)
(3 1.26915e-08 0)
(3 -5.42722e-10 0)
(3 -2.55117e-12 0)
(3 1.00841e-13 0)
(3 6.98963e-16 0)
(3 5.04801e-15 0)
(3 5.59833e-15 0)
(3 3.29447e-15 0)
(3 1.88739e-15 0)
(3 2.51746e-15 0)
(3 2.97943e-15 0)
(3 3.9475e-15 0)
(3 4.25818e-15 0)
(1.5817 -1.26224 0)
(1.59454 -1.26466 0)
(1.63141 -1.2642 0)
(1.66564 -1.24599 0)
(2.33287 -0.648378 0)
(3.02038 0.0180671 0)
(2.99975 -0.000150476 0)
(3 4.22724e-06 0)
(3 -8.28946e-08 0)
(3 9.17255e-10 0)
(3 -1.76958e-13 0)
(3 3.86384e-15 0)
(3 4.62325e-15 0)
(3 4.64504e-15 0)
(3 3.10672e-15 0)
(3 2.28805e-15 0)
(3 3.08832e-15 0)
(3 3.84091e-15 0)
(3 4.69854e-15 0)
(3 4.19294e-15 0)
(1.58223 -1.25229 0)
(1.60394 -1.25231 0)
(1.62481 -1.2572 0)
(1.64338 -1.26226 0)
(1.91645 -1.05049 0)
(2.77417 -0.201394 0)
(3.00447 0.000974393 0)
(2.99991 -7.37881e-05 0)
(3 9.35309e-07 0)
(3 -8.94063e-10 0)
(3 1.81885e-14 0)
(3 4.16632e-15 0)
(3 4.8626e-15 0)
(3 3.96603e-15 0)
(3 3.94567e-15 0)
(3 3.25975e-15 0)
(3 2.92362e-15 0)
(3 3.88155e-15 0)
(3 4.00839e-15 0)
(3 4.0743e-15 0)
(1.58197 -1.24688 0)
(1.60467 -1.2518 0)
(1.61819 -1.25604 0)
(1.61404 -1.27302 0)
(1.69073 -1.22075 0)
(2.24594 -0.769327 0)
(3.00388 0.00878339 0)
(3.00016 0.000544708 0)
(3 -7.79029e-07 0)
(3 -5.96989e-11 0)
(3 4.56178e-14 0)
(3 3.37274e-15 0)
(3 4.96933e-15 0)
(3 4.32005e-15 0)
(3 4.14908e-15 0)
(3 3.36845e-15 0)
(3 3.30577e-15 0)
(3 3.17168e-15 0)
(3 3.27736e-15 0)
(3 2.71126e-15 0)
(1.58275 -1.24681 0)
(1.59428 -1.25707 0)
(1.60601 -1.26487 0)
(1.61093 -1.27829 0)
(1.63875 -1.27233 0)
(1.71873 -1.21787 0)
(2.23385 -0.757482 0)
(2.99091 -0.0208978 0)
(3 -5.04648e-08 0)
(3 3.02414e-11 0)
(3 5.04506e-15 0)
(3 4.79644e-15 0)
(3 4.83833e-15 0)
(3 3.96929e-15 0)
(3 3.89385e-15 0)
(3 3.29584e-15 0)
(3 2.94829e-15 0)
(3 2.06107e-15 0)
(3 1.08539e-15 0)
(3 2.39902e-15 0)
(1.58095 -1.25834 0)
(1.58515 -1.26391 0)
(1.5931 -1.26852 0)
(1.60069 -1.26683 0)
(1.60455 -1.25711 0)
(1.59155 -1.2694 0)
(1.88995 -1.18187 0)
(2.95735 -0.412836 0)
(3.34507 0.623103 0)
(3 -6.31276e-11 0)
(3 7.44396e-11 0)
(3 -7.85339e-11 0)
(3 -3.77795e-17 0)
(3 4.3039e-13 0)
(3 1.80374e-14 0)
(3 -1.48317e-14 0)
(3 1.30812e-14 0)
(3 3.55882e-15 0)
(3 -9.4781e-16 0)
(3 -1.01441e-15 0)
(1.16523 -0.76598 0)
(1.82876 -1.15431 0)
(1.84276 -1.15351 0)
(1.73674 -1.20228 0)
(1.7081 -1.19746 0)
(1.6611 -1.24096 0)
(1.65623 -1.21458 0)
(1.72857 -1.16716 0)
(1.76462 -1.23479 0)
(1.80437 -1.13984 0)
(2.28169 -0.730903 0)
(2.86518 -0.201534 0)
(3.10016 0.0310475 0)
(3.02129 0.0128152 0)
(3.00457 0.00552925 0)
(3.0018 0.00300518 0)
(3.00005 0.00057181 0)
(2.99998 2.13358e-05 0)
(2.99999 -1.44374e-05 0)
(3 -5.93175e-06 0)
(1.01429 -0.0324267 0)
(1.92169 -0.780968 0)
(2.11482 -0.794027 0)
(2.01352 -0.932446 0)
(1.95625 -0.989072 0)
(1.84888 -1.09969 0)
(1.7885 -1.13452 0)
(1.76532 -1.14417 0)
(1.76445 -1.16093 0)
(1.74361 -1.20139 0)
(1.7233 -1.19326 0)
(1.85983 -1.0674 0)
(2.08922 -0.886258 0)
(2.49538 -0.581657 0)
(2.98433 -0.139048 0)
(3.0739 0.0290898 0)
(3.00823 0.0077243 0)
(3.00295 0.00384966 0)
(3.00123 0.00220197 0)
(3.00008 0.000488837 0)
(0.863991 0.0274743 0)
(1.88438 -0.483651 0)
(2.23841 -0.488158 0)
(2.22653 -0.55928 0)
(2.20134 -0.587654 0)
(2.14394 -0.729971 0)
(2.03251 -0.897034 0)
(1.95852 -0.982438 0)
(1.90666 -1.04058 0)
(1.85151 -1.12894 0)
(1.792 -1.16153 0)
(1.79053 -1.1531 0)
(1.80679 -1.13011 0)
(1.84902 -1.08612 0)
(2.04278 -0.948214 0)
(2.26083 -0.827063 0)
(2.66226 -0.505925 0)
(3.03479 -0.0942755 0)
(3.05546 0.0234798 0)
(3.00405 0.00466662 0)
(1.16091 0.758029 0)
(1.52563 1.29051 0)
(2.18828 0.453796 0)
(2.35296 -0.0178723 0)
(2.36274 -0.097386 0)
(2.34761 -0.319052 0)
(2.27293 -0.51892 0)
(2.21373 -0.631747 0)
(2.14173 -0.743076 0)
(2.09487 -0.884446 0)
(1.98271 -0.99785 0)
(1.92128 -1.05403 0)
(1.88489 -1.07528 0)
(1.86813 -1.08673 0)
(1.87235 -1.05616 0)
(1.89759 -1.04832 0)
(1.96107 -1.02211 0)
(2.16212 -0.906113 0)
(2.3812 -0.794148 0)
(2.78009 -0.441031 0)
(1.24899 1.49508 0)
(1.53012 1.85186 0)
(2.1606 1.33839 0)
(2.2952 0.193607 0)
(2.41792 -0.138336 0)
(2.44532 0.18825 0)
(2.46228 -0.0214216 0)
(2.4043 -0.291474 0)
(2.34946 -0.416993 0)
(2.31789 -0.575833 0)
(2.22733 -0.73305 0)
(2.13443 -0.855854 0)
(2.06952 -0.925159 0)
(2.01078 -0.985091 0)
(1.9764 -0.987542 0)
(1.9535 -0.996255 0)
(1.95431 -1.01641 0)
(1.97012 -0.994563 0)
(1.99575 -0.994272 0)
(2.07104 -0.977963 0)
(1.38106 1.78699 0)
(1.48054 2.13357 0)
(1.93859 1.63164 0)
(2.13441 1.02296 0)
(2.45043 0.726901 0)
(2.50499 0.272719 0)
(2.54945 0.0733047 0)
(2.5357 -0.127535 0)
(2.49373 -0.231191 0)
(2.4684 -0.36607 0)
(2.40753 -0.517938 0)
(2.32423 -0.652418 0)
(2.267 -0.722928 0)
(2.20865 -0.787586 0)
(2.1714 -0.795344 0)
(2.13519 -0.808105 0)
(2.08735 -0.853518 0)
(2.06648 -0.880154 0)
(2.03158 -0.932911 0)
(2.05739 -0.957271 0)
(1.40724 1.75783 0)
(1.5812 2.40039 0)
(1.83153 1.92768 0)
(1.96785 1.74959 0)
(2.23062 1.49409 0)
(2.38488 0.849221 0)
(2.47399 0.760141 0)
(2.54462 0.52425 0)
(2.52491 0.216827 0)
(2.54312 0.116755 0)
(2.52521 -0.0734482 0)
(2.48714 -0.218488 0)
(2.45023 -0.326678 0)
(2.41355 -0.413506 0)
(2.35861 -0.508194 0)
(2.3317 -0.558739 0)
(2.24943 -0.666844 0)
(2.19181 -0.744104 0)
(2.15791 -0.792052 0)
(2.14242 -0.792356 0)
(1.3481 1.55074 0)
(1.76148 2.43203 0)
(1.83498 2.12815 0)
(1.90533 1.91333 0)
(2.08389 1.64619 0)
(2.23053 1.4068 0)
(2.32028 1.19877 0)
(2.41029 0.963167 0)
(2.45376 0.753459 0)
(2.50001 0.586753 0)
(2.55726 0.389643 0)
(2.55458 0.155771 0)
(2.56636 -0.0165286 0)
(2.54538 -0.189199 0)
(2.48878 -0.369327 0)
(2.45493 -0.453226 0)
(2.38025 -0.566715 0)
(2.3573 -0.532065 0)
(2.31917 -0.562172 0)
(2.32909 -0.515173 0)
(1.33456 1.29349 0)
(1.72792 2.03948 0)
(1.96592 2.35912 0)
(1.97935 2.16911 0)
(2.15604 1.75807 0)
(2.22434 1.616 0)
(2.37692 1.31887 0)
(2.48207 1.0858 0)
(2.54821 0.975962 0)
(2.60961 0.692339 0)
(2.68369 0.484359 0)
(2.66387 0.205583 0)
(2.66948 0.0530026 0)
(2.63799 -0.109149 0)
(2.60228 -0.217542 0)
(2.56549 -0.253838 0)
(2.53297 -0.253962 0)
(2.53054 -0.192113 0)
(2.45458 -0.313167 0)
(2.47554 -0.284534 0)
(1.39208 1.17376 0)
(1.58686 1.51684 0)
(1.87419 2.22047 0)
(2.00665 2.3984 0)
(2.34146 1.90095 0)
(2.41266 1.80007 0)
(2.59115 1.3417 0)
(2.7216 1.13964 0)
(2.80605 0.992063 0)
(2.78611 0.67343 0)
(2.78101 0.585433 0)
(2.74608 0.391468 0)
(2.72779 0.352277 0)
(2.71171 0.254798 0)
(2.68393 0.189904 0)
(2.65013 0.150161 0)
(2.63818 0.124362 0)
(2.61708 0.0254925 0)
(2.55736 -0.157521 0)
(2.56452 -0.162371 0)
(1.43775 1.11124 0)
(1.52769 1.31304 0)
(1.60296 1.8883 0)
(1.75857 2.2098 0)
(2.30719 2.02207 0)
(2.49444 1.91253 0)
(2.49334 1.48918 0)
(2.51867 1.33709 0)
(2.59914 1.243 0)
(2.63713 1.18803 0)
(2.636 1.11514 0)
(2.65544 0.931265 0)
(2.63954 0.807672 0)
(2.67579 0.716436 0)
(2.67061 0.54275 0)
(2.69234 0.429928 0)
(2.70987 0.277007 0)
(2.68885 0.0784866 0)
(2.64952 -0.0362653 0)
(2.61414 -0.0193488 0)
(1.45582 1.11616 0)
(1.4986 1.23697 0)
(1.52116 1.80404 0)
(1.58326 2.16449 0)
(1.87128 2.15993 0)
(2.16194 1.97107 0)
(2.22827 1.77552 0)
(2.31038 1.62986 0)
(2.3378 1.59044 0)
(2.36661 1.52363 0)
(2.45059 1.32594 0)
(2.54271 1.21337 0)
(2.58978 0.986063 0)
(2.70852 0.887256 0)
(2.71651 0.624931 0)
(2.76014 0.469442 0)
(2.75811 0.290564 0)
(2.74102 0.171169 0)
(2.70234 0.263248 0)
(2.65821 0.234644 0)
(1.46425 1.18875 0)
(1.53302 1.27443 0)
(1.50769 1.81881 0)
(1.50742 2.15276 0)
(1.64465 2.20404 0)
(1.88121 2.06897 0)
(1.99968 1.99779 0)
(2.11982 1.74854 0)
(2.18441 1.65561 0)
(2.31679 1.5928 0)
(2.44127 1.34792 0)
(2.61265 1.26756 0)
(2.66371 0.981306 0)
(2.75769 0.877273 0)
(2.7749 0.665574 0)
(2.77518 0.642425 0)
(2.77239 0.565527 0)
(2.74732 0.548197 0)
(2.72698 0.657018 0)
(2.6945 0.497733 0)
(1.52859 1.30002 0)
(1.63155 1.37702 0)
(1.58094 1.87091 0)
(1.49151 2.18111 0)
(1.61477 2.21968 0)
(1.82621 2.08038 0)
(1.93459 2.03552 0)
(2.11107 1.75449 0)
(2.22221 1.69007 0)
(2.43051 1.61106 0)
(2.54231 1.40001 0)
(2.66452 1.32188 0)
(2.72224 1.1877 0)
(2.73341 1.17558 0)
(2.75579 1.06199 0)
(2.73429 1.04692 0)
(2.714 0.939204 0)
(2.70606 0.940426 0)