/*--------------------------------*- C++ -*----------------------------------*\
  =========                 |
  \\      /  F ield         | OpenFOAM: The Open Source CFD Toolbox
   \\    /   O peration     | Website:  https://openfoam.org
    \\  /    A nd           | Version:  7
     \\/     M anipulation  |
\*---------------------------------------------------------------------------*/
FoamFile
{
    version     2.0;
    format      ascii;
    class       volScalarField;
    location    "7.1";
    object      p;
}
// * * * * * * * * * * * * * * * * * * * * * * * * * * * * * * * * * * * * * //

dimensions      [1 -1 -2 0 0 0 0];

internalField   nonuniform List<scalar> 
3700
(
0.119118
0.205595
0.262099
0.305189
0.353237
0.399721
0.418244
0.434076
0.436443
0.441229
0.454644
0.46257
0.466129
0.456889
0.471697
0.492863
0.502278
0.517163
0.514137
0.512421
0.0716933
0.0857318
0.112113
0.124085
0.128174
0.137537
0.142227
0.144351
0.122471
0.123137
0.14325
0.166367
0.185265
0.187332
0.188092
0.193333
0.203422
0.205754
0.196336
0.183129
0.0668713
0.0684739
0.073936
0.0715454
0.0611888
0.0500672
0.0500156
0.0516553
0.056169
0.0638008
0.0744942
0.0835239
0.094879
0.106026
0.111055
0.113089
0.11323
0.113262
0.114351
0.121805
0.0696197
0.067475
0.0682882
0.0600044
0.0499317
0.047788
0.0497006
0.052224
0.0571621
0.0660605
0.0775378
0.0878105
0.101555
0.12101
0.138041
0.153213
0.162407
0.164609
0.163514
0.167148
0.0641837
0.0580627
0.0563328
0.0545422
0.0547468
0.0574806
0.0608322
0.0688427
0.0794883
0.0964075
0.0915666
0.0953276
0.102539
0.121792
0.145461
0.169363
0.191521
0.208947
0.222925
0.229228
0.0562785
0.0538349
0.0523979
0.0551924
0.0618802
0.0703479
0.0740328
0.0866807
0.108192
0.132251
0.132907
0.141995
0.136829
0.140554
0.151284
0.176601
0.209987
0.246549
0.278003
0.320208
0.0554101
0.0521744
0.0494225
0.0529961
0.0614778
0.075427
0.0798137
0.0956317
0.126907
0.153011
0.176461
0.194987
0.204604
0.217165
0.218208
0.227198
0.242868
0.281045
0.329646
0.413258
0.0567109
0.0475833
0.0435758
0.0483775
0.0570969
0.0741667
0.0807418
0.0983218
0.13276
0.166885
0.20402
0.2309
0.267277
0.296845
0.321695
0.344491
0.363559
0.386665
0.423598
0.53485
0.0619538
0.0426046
0.0373182
0.046843
0.058769
0.0733177
0.0872814
0.108604
0.135134
0.171324
0.218991
0.257463
0.315798
0.363282
0.412742
0.461862
0.507465
0.551001
0.591152
0.723797
0.0654629
0.0392697
0.0361685
0.0570999
0.0818331
0.0929646
0.11978
0.162938
0.194663
0.220197
0.257415
0.305664
0.37196
0.436483
0.506662
0.58787
0.671901
0.751748
0.828413
0.953701
0.0644104
0.0396139
0.041117
0.07164
0.0997121
0.120479
0.167706
0.227035
0.287336
0.355932
0.413414
0.473635
0.534663
0.598933
0.662122
0.748945
0.869744
0.986593
1.17335
1.14412
0.0631424
0.03945
0.0452421
0.0701909
0.0994164
0.129157
0.197975
0.261806
0.352693
0.476111
0.574183
0.674093
0.772836
0.865557
0.951371
1.05336
1.17696
1.31005
1.54848
1.5217
0.052011
0.0320108
0.0351784
0.0500788
0.0806666
0.124802
0.208767
0.279282
0.4002
0.57562
0.734878
0.891448
1.04586
1.18269
1.3384
1.50298
1.66119
1.8219
2.08126
2.07374
0.0344647
0.0215563
0.0230635
0.0437177
0.0756248
0.152335
0.273231
0.436567
0.663603
0.881833
1.08576
1.26797
1.45378
1.63335
1.86802
2.11224
2.34728
2.57954
2.78573
3.00104
0.0233641
0.0172913
0.0198169
0.0447118
0.11695
0.378317
0.632951
0.924057
1.24986
1.54039
1.76401
1.96905
2.18255
2.40677
2.70552
2.99353
3.26557
3.49644
3.64211
3.77431
0.0129693
0.0187388
0.0241698
0.127258
0.387314
0.771398
1.14828
1.54853
1.97683
2.34508
2.6109
2.8759
3.15019
3.44824
3.77674
3.99385
4.10705
4.13457
4.03797
3.90755
0.00711312
0.0229324
0.133723
0.440255
0.95568
1.44473
1.95684
2.5318
3.14646
3.51741
3.74204
3.98248
4.19854
4.37869
4.47574
4.4014
4.18426
3.64942
2.79082
1.88925
0.0303534
0.159201
0.560708
1.21053
2.0683
2.87254
3.54355
4.22443
4.76061
4.83529
4.73326
4.73685
4.69958
4.53843
4.03276
3.07406
2.09341
1.33185
1.01809
0.992896
0.310626
0.869454
1.95591
3.20389
4.21826
4.83942
5.40413
5.89112
5.75075
5.29377
4.85297
4.31168
3.39515
2.32644
1.42541
1.02933
0.989358
0.994929
0.997326
0.999444
2.32163
3.65211
4.92042
5.73956
6.24973
6.43998
6.57056
6.24416
4.5447
3.21087
2.37879
1.57551
1.08578
0.987753
0.993055
0.996322
0.999149
0.999971
1.00002
1.00001
6.97797
6.9298
6.88088
6.9336
7.05846
6.78865
6.00014
2.24992
0.656486
1
1
1
1
1
1
1
1
1
1
1
6.90749
6.87402
6.77132
6.69281
6.92622
5.76886
2.5757
1.01055
1
1
1
1
1
1
1
1
1
1
1
1
6.77977
6.8448
6.75798
6.56811
6.29058
3.44374
1.05854
0.998965
1
1
1
1
1
1
1
1
1
1
1
1
6.65501
6.84079
6.85937
6.54076
4.74431
1.50065
0.992471
1.00013
0.999999
1
1
1
1
1
1
1
1
1
1
1
6.49463
6.81549
6.86052
6.33144
2.67744
0.975133
1.00037
0.999994
1
1
1
1
1
1
1
1
1
1
1
1
6.39209
6.71608
6.73862
4.86869
1.37921
1
1
1
1
1
1
1
1
1
1
1
1
1
1
1
6.36616
6.67669
6.5773
3.5677
0.998417
1
1
1
1
1
1
1
1
1
1
1
1
1
1
1
6.50693
6.72945
6.16105
2.04325
0.999978
1
1
1
1
1
1
1
1
1
1
1
1
1
1
1
6.94801
6.66012
4.8879
1.20443
1
1
1
1
1
1
1
1
1
1
1
1
1
1
1
1
7.2546
6.37002
3.49435
0.987392
1
1
1
1
1
1
1
1
1
1
1
1
1
1
1
1
7.45741
6.04387
2.26986
1
1
1
1
1
1
1
1
1
1
1
1
1
1
1
1
1
7.52049
5.36675
1.59983
1
1
1
1
1
1
1
1
1
1
1
1
1
1
1
1
1
7.57559
4.70896
1.15964
1
1
1
1
1
1
1
1
1
1
1
1
1
1
1
1
1
7.38071
3.96537
1.00008
1
1
1
1
1
1
1
1
1
1
1
1
1
1
1
1
1
7.1097
3.28274
1
1
1
1
1
1
1
1
1
1
1
1
1
1
1
1
1
1
6.9839
2.55694
1
1
1
1
1
1
1
1
1
1
1
1
1
1
1
1
1
1
6.72977
1.85651
1
1
1
1
1
1
1
1
1
1
1
1
1
1
1
1
1
1
6.2673
1.32739
1
1
1
1
1
1
1
1
1
1
1
1
1
1
1
1
1
1
5.73098
1.0045
1
1
1
1
1
1
1
1
1
1
1
1
1
1
1
1
1
1
4.65899
1.00015
1
1
1
1
1
1
1
1
1
1
1
1
1
1
1
1
1
1
4.6525
1.00014
1
1
1
1
1
1
1
1
1
1
1
1
1
1
1
1
1
1
5.74296
1.00468
1
1
1
1
1
1
1
1
1
1
1
1
1
1
1
1
1
1
6.27093
1.3327
1
1
1
1
1
1
1
1
1
1
1
1
1
1
1
1
1
1
6.70265
1.84847
1
1
1
1
1
1
1
1
1
1
1
1
1
1
1
1
1
1
7.0121
2.53771
1
1
1
1
1
1
1
1
1
1
1
1
1
1
1
1
1
1
7.11528
3.29434
1
1
1
1
1
1
1
1
1
1
1
1
1
1
1
1
1
1
7.36604
3.98054
1.00004
1
1
1
1
1
1
1
1
1
1
1
1
1
1
1
1
1
7.57308
4.7151
1.15727
1
1
1
1
1
1
1
1
1
1
1
1
1
1
1
1
1
7.52332
5.35934
1.60059
1
1
1
1
1
1
1
1
1
1
1
1
1
1
1
1
1
7.45946
6.0368
2.27097
1
1
1
1
1
1
1
1
1
1
1
1
1
1
1
1
1
7.26304
6.37729
3.47909
0.987438
1
1
1
1
1
1
1
1
1
1
1
1
1
1
1
1
6.95416
6.64056
4.86983
1.21051
1
1
1
1
1
1
1
1
1
1
1
1
1
1
1
1
6.52429
6.74192
6.15701
2.03065
0.999927
1
1
1
1
1
1
1
1
1
1
1
1
1
1
1
6.37643
6.68979
6.59349
3.58686
0.999794
1
1
1
1
1
1
1
1
1
1
1
1
1
1
1
6.4035
6.71036
6.71713
4.86897
1.40143
1
1
1
1
1
1
1
1
1
1
1
1
1
1
1
6.49617
6.79922
6.84693
6.29161
2.65678
0.975539
1.00037
0.999994
1
1
1
1
1
1
1
1
1
1
1
1
6.65545
6.84184
6.856
6.5921
4.7344
1.48491
0.99239
1.00013
0.999999
1
1
1
1
1
1
1
1
1
1
1
6.78426
6.84884
6.76916
6.57527
6.27837
3.46518
1.06295
0.998851
1
1
1
1
1
1
1
1
1
1
1
1
6.89925
6.86792
6.75793
6.68875
6.916
5.77419
2.59262
1.012
1
1
1
1
1
1
1
1
1
1
1
1
6.96984
6.92242
6.86621
6.9335
7.06688
6.78658
5.99105
2.23682
0.660379
1
1
1
1
1
1
1
1
1
1
1
2.31857
3.65409
4.91999
5.73578
6.25384
6.43922
6.57364
6.24188
4.54329
3.20882
2.37581
1.57374
1.08575
0.98772
0.993121
0.996354
0.999156
0.999971
1.00002
1.00001
0.307675
0.853311
1.94343
3.20987
4.23708
4.84736
5.40733
5.89244
5.75272
5.2964
4.85584
4.31321
3.39565
2.32616
1.42495
1.02908
0.989348
0.994922
0.997322
0.999442
0.0361061
0.171051
0.555302
1.19523
2.06136
2.87668
3.55172
4.23059
4.76602
4.83735
4.73431
4.73518
4.69775
4.53689
4.03154
3.07377
2.094
1.33239
1.01825
0.992903
0.00641403
0.0289511
0.132492
0.434131
0.954966
1.44513
1.95641
2.52955
3.14267
3.51619
3.74199
3.98195
4.19587
4.37556
4.47647
4.40257
4.18564
3.65118
2.79223
1.88941
0.0107188
0.0185847
0.0256054
0.136051
0.387413
0.772936
1.14488
1.54513
1.97717
2.34743
2.61189
2.87487
3.14801
3.44684
3.77627
3.99527
4.10865
4.13512
4.03837
3.90705
0.0199321
0.0176074
0.0207041
0.0485068
0.119084
0.375707
0.635192
0.926487
1.25095
1.53823
1.76175
1.96739
2.18123
2.40549
2.70321
2.9918
3.26641
3.49789
3.64232
3.77364
0.0299874
0.0206478
0.024472
0.0456948
0.0796533
0.155245
0.275119
0.435087
0.660867
0.879467
1.08512
1.26825
1.45383
1.63255
1.8668
2.11237
2.34936
2.5826
2.78738
3.00047
0.0456638
0.0298673
0.0375772
0.0528342
0.0866306
0.12521
0.206295
0.277934
0.400322
0.578643
0.736947
0.892455
1.04543
1.18181
1.33783
1.50402
1.66416
1.82467
2.08225
2.07375
0.0586216
0.0373219
0.0477303
0.0715486
0.102373
0.129664
0.196415
0.262672
0.353198
0.475703
0.57309
0.672671
0.771038
0.864022
0.950232
1.05286
1.17729
1.31027
1.54817
1.52171
0.0623941
0.0389094
0.043152
0.0710701
0.100908
0.123113
0.167761
0.227753
0.285593
0.352378
0.410656
0.471011
0.531956
0.596352
0.660394
0.748364
0.869452
0.986504
1.17378
1.14338
0.06446
0.0398817
0.0382016
0.0562289
0.0809076
0.0969223
0.120488
0.161388
0.192177
0.216739
0.254353
0.303532
0.370928
0.43629
0.50719
0.588977
0.672699
0.752149
0.828936
0.954295
0.0652185
0.0436939
0.0395829
0.0472426
0.0571771
0.0749198
0.0864448
0.106096
0.132708
0.169217
0.2183
0.258127
0.316811
0.364562
0.414125
0.463088
0.508381
0.551309
0.590758
0.72414
0.0614437
0.050667
0.0463818
0.0485337
0.0559236
0.0743705
0.0789546
0.096148
0.131703
0.167371
0.204795
0.231994
0.268371
0.297547
0.322003
0.344282
0.3633
0.38607
0.422347
0.533886
0.0598434
0.0566295
0.0520661
0.0525473
0.060981
0.0756121
0.0793539
0.0955266
0.128469
0.154852
0.177616
0.195269
0.204516
0.216901
0.217817
0.226541
0.241777
0.279544
0.328367
0.412492
0.0598704
0.0596585
0.0555224
0.0551282
0.0612967
0.0710248
0.0760104
0.0885881
0.110298
0.133228
0.133212
0.141528
0.136444
0.140378
0.150868
0.175678
0.208904
0.24566
0.277404
0.319538
0.0644026
0.0627
0.0591965
0.0552177
0.0543359
0.058656
0.0645699
0.0710725
0.0804173
0.0962851
0.0912085
0.0948082
0.101766
0.120746
0.144468
0.168512
0.190867
0.208647
0.222671
0.228853
0.0698126
0.070758
0.0704804
0.0620655
0.0504655
0.0483014
0.0512621
0.0526214
0.0567066
0.0649398
0.0764783
0.0868799
0.100618
0.120025
0.13717
0.152471
0.162036
0.16457
0.163334
0.166904
0.0675976
0.0699035
0.0769092
0.0745862
0.0624688
0.0504969
0.0509843
0.05162
0.0557955
0.0626159
0.0733048
0.0824602
0.0940429
0.105377
0.110729
0.112948
0.113071
0.113095
0.114347
0.121529
0.0703392
0.0839463
0.10245
0.128533
0.138405
0.122485
0.105725
0.112572
0.131659
0.145094
0.145113
0.153712
0.17782
0.206025
0.230069
0.223769
0.202312
0.195724
0.203441
0.212433
0.112224
0.209674
0.248301
0.300636
0.362502
0.388964
0.395741
0.415081
0.443673
0.459212
0.456762
0.46675
0.4728
0.47304
0.489806
0.497631
0.492406
0.508075
0.524834
0.530319
0.565654
0.635174
0.700823
0.819658
0.846555
0.866803
0.847112
0.845628
0.863887
0.903649
0.943174
0.953539
0.946786
0.937153
0.941222
0.957519
0.965666
0.96504
0.95855
0.955669
0.279307
0.418958
0.556223
0.688071
0.781989
0.845773
0.846967
0.852611
0.870783
0.905486
0.943788
0.958442
0.95432
0.939611
0.940184
0.952753
0.967246
0.970615
0.965327
0.96184
0.137509
0.163941
0.249831
0.345477
0.518819
0.70041
0.771958
0.849706
0.883498
0.899405
0.923771
0.939663
0.942432
0.941791
0.941199
0.945206
0.954937
0.962093
0.96255
0.965302
0.187851
0.21618
0.224293
0.231772
0.251531
0.331649
0.548165
0.746186
0.823375
0.873404
0.905642
0.918442
0.931633
0.946597
0.946576
0.946144
0.948017
0.953123
0.957552
0.964739
0.235197
0.260308
0.275128
0.281849
0.294503
0.298041
0.323826
0.433188
0.63732
0.79868
0.851476
0.893211
0.92937
0.954113
0.954216
0.947855
0.942779
0.941763
0.947904
0.961296
0.311347
0.3302
0.327742
0.315642
0.314045
0.325442
0.341712
0.343793
0.380219
0.499753
0.68911
0.815723
0.91105
0.954999
0.959345
0.955553
0.94476
0.940005
0.94534
0.961736
0.404954
0.41438
0.39124
0.354052
0.35539
0.369711
0.377328
0.390756
0.394716
0.384023
0.446835
0.643503
0.816024
0.945894
0.959262
0.956003
0.945091
0.93492
0.943423
0.963091
0.524125
0.511374
0.477041
0.413121
0.393986
0.403043
0.420663
0.424063
0.418884
0.40803
0.393546
0.439364
0.622085
0.830317
0.943487
0.95347
0.942183
0.936945
0.957486
0.965738
0.676921
0.625683
0.568879
0.475741
0.446993
0.456731
0.4612
0.456763
0.450864
0.438238
0.419085
0.406381
0.440672
0.617384
0.824176
0.942066
0.926723
0.937917
0.969204
0.965978
0.859135
0.769131
0.697681
0.586493
0.516162
0.500885
0.496028
0.489734
0.483052
0.470633
0.454311
0.431359
0.424908
0.456114
0.611094
0.837062
0.885411
0.940862
0.976628
0.962402
1.24178
0.922436
0.849944
0.749391
0.647364
0.578958
0.538914
0.54067
0.540416
0.529346
0.509109
0.489929
0.463461
0.45517
0.474842
0.572678
0.753319
0.895943
0.9417
0.950286
2.0598
1.44381
1.13099
0.994813
0.89671
0.804415
0.68955
0.625057
0.60214
0.579627
0.555652
0.547568
0.528899
0.507241
0.482949
0.487466
0.527035
0.637158
0.781812
0.906192
2.50554
2.18233
1.69016
1.34878
1.09993
0.964655
0.844388
0.722668
0.701786
0.671297
0.653305
0.637407
0.610676
0.573225
0.548454
0.522773
0.524057
0.532108
0.572383
0.746925
2.36767
2.35198
2.23354
1.93068
1.54577
1.25373
1.10236
0.945114
0.877791
0.827969
0.766391
0.713742
0.667409
0.615728
0.594278
0.583452
0.567664
0.555357
0.548512
0.585862
1.68066
2.14629
2.22376
2.19648
2.06515
1.76008
1.48956
1.25149
1.06864
0.959792
0.852479
0.785473
0.759417
0.725575
0.697282
0.675893
0.647345
0.617993
0.575644
0.578732
1.1084
1.43588
1.84843
2.11595
2.11597
2.07273
1.92294
1.6921
1.42891
1.24076
1.07575
0.959245
0.917054
0.867562
0.804616
0.747808
0.691076
0.648381
0.625438
0.604126
1.00452
1.04395
1.20642
1.55196
1.86944
2.0169
2.00948
1.9694
1.83344
1.62084
1.41425
1.21477
1.0752
0.970551
0.881231
0.825911
0.778981
0.726632
0.721728
0.69713
1.00009
1.00109
1.01077
1.07915
1.27282
1.57143
1.82227
1.93599
1.93006
1.88637
1.77211
1.58596
1.38424
1.21845
1.08266
0.99926
0.948429
0.889469
0.830861
0.756035
1
1.00001
1.00015
1.00253
1.01907
1.10217
1.2901
1.55718
1.76487
1.85794
1.85339
1.81874
1.71565
1.55782
1.3818
1.21528
1.09883
1.00588
0.926721
0.831639
1
1
1
1.00003
1.00032
1.00403
1.02438
1.10801
1.28522
1.52346
1.70216
1.78802
1.78405
1.75613
1.67869
1.54019
1.37999
1.2273
1.12375
0.999888
1
1
1
1
1
1.00005
1.00049
1.00463
1.02675
1.10485
1.26392
1.47429
1.64128
1.72369
1.72208
1.70308
1.64272
1.52567
1.39482
1.19613
1
1
1
1
1
1
1
1.00006
1.0006
1.00464
1.02561
1.094
1.23416
1.419
1.57822
1.66908
1.66582
1.65136
1.61598
1.46401
1
1
1
1
1
1
1
1
1.00001
1.00006
1.00059
1.00425
1.02132
1.08231
1.19686
1.37066
1.50514
1.61102
1.61473
1.59131
1
1
1
1
1
1
1
1
1
1
1.00001
1.00006
1.00048
1.0037
1.01686
1.06453
1.16558
1.3146
1.44255
1.54985
1
1
1
1
1
1
1
1
1
1
1
1
1
1.00005
1.00039
1.0026
1.01423
1.05133
1.13595
1.38886
1.62662
2.46586
2.58206
2.08354
1.30983
1.03701
1.00188
1.00005
1
1
1
1
1
1
1
2.34448
2.81869
2.52765
1.54139
1.04837
1.00082
1
1
1
1
1
1
1
1
1
2.93373
2.87177
1.98207
1.15184
1.00513
1.00005
1
1
1
1
1
1
1
1
1
3.25412
2.55739
1.3645
1.01937
1.00019
1
1
1
1
1
1
1
1
1
1
3.31956
1.68648
1.04764
1.00051
1
1
1
1
1
1
1
1
1
1
1
2.06722
1.07352
1.00049
0.999999
1
1
1
1
1
1
1
1
1
1
1
1.10184
1.00055
0.999997
1
1
1
1
1
1
1
1
1
1
1
1
0.998141
0.999864
0.999996
1
1
1
1
1
1
1
1
1
1
1
1
0.999967
1
1
1
1
1
1
1
1
1
1
1
1
1
1
1
1
1
1
1
1
1
1
1
1
1
1
1
1
1
1
1
1
1
1
1
1
1
1
1
1
1
1
1
1
1
1
1
1
1
1
1
1
1
1
1
1
1
1
1
1
1
1
1
1
1
1
1
1
1
1
1
1
1
1
1
1
1
1
1
1
1
1
1
1
1
1
1
1
1
1
1
1
1
1
1
1
1
1
1
1
1
1
1
1
1
1
1
1
1
1
1
1
1
1
1
1
1
1
1
1
1
1
1
1
1
1
1
1
1
1
1
1
1
1
1
1
1
1
1
1
1
1
1
1
1
1
1
1
1
1
1
1
1
1
1
1
1
1
1
1
1
1
1
1
1
1
1
1
1
1
1
1
1
1
1
1
1
1
1
1
1
1
1
1
1
1
1
1
1
1
1
1
1
1
1
1
1
1
1
1
1
1
1
1
1
1
1
1
1
1
1
1
1
1
1
1
1
1
1
1
1
1
1
1
1
1
1
1
1
1
1
1
1
1
1
1
1
1
1
1
1
1
1
1
1
1
1
1
1
1
1
1
1
1
1
1
1
1
1
1
1
1
1
1
1
1
1
1
1
1
1
1
1
1
1
1
1
1
1
1
1
1
1
1
1
1
1
1
1
1
1
1
1
1
1
1
1
1
1
1
1
1
1
1
1
1
1
1
1
1
1
1
1
1
1
1
1
1
1
1
1
1
1
1
1
1
1
1
1
1
1
1
1
1
1
1
1
1
1
1
1
1
1
1
1
1
1
1
1
1
1
1
1
1
1
1
1
1
1
1
1
1
1
1
1
1
1
1
1
1
1
1
1
1
1
1
1
1
1
1
1
1
1
1
1
1
1
1
1
1
1
1
1
1
1
1
1
1
1
1
1
1
1
1
1
1
1
1
1
1
1
1
1
1
1
1
1
1
1
1
1
1
1
1
1
1
1
1
1
1
1
1
1
1
1
1
1
1
1
1
1
1
1
1
1
1
1
1
1
1
1
1
1
1
1
1
1
1
1
1
1
1
1
1
1
1
1
1
1
1
1
1
1
1
1
1
1
1
1
1
1
1
1
1
1
1
1
1
1
1
1
1
1
1
1
1
1
1
1
1
1
1
1
1
1
1
1
1
1
1
1
1
1
1
1
1
1
1
1
1
1
1
1
1
1
1
1
1
1
1
1
1
1
1
1
1
1
1
1
1
1
1
1
1
1
1
1
1
1
1
1
1
1
1
1
1
1
1
1
1
1
1
1
1
1
1
1
1
1
1
1
1
1
1
1
1
1
1
1
1
1
1
1
1
1
1
1
1
1
1
1
1
1
1
1
1
1
1
1
1
1
1
1
1
1
1
1
1
1
1
1
1
1
1
1
1
1
1
1
1
1
1
1
1
1
1
1
1
1
1
1
1
1
1
1
1
1
1
1
1
1
1
1
1
1
1
1
1
1
1
1
1
1
1
1
1
1
1
1
1
1
1
1
1
1
1
1
1
1
1
1
1
1
1
1
1
1
1
1
1
1
1
1
1
1
1
1
1
1
1
1
1
1
1
1
1
1
1
1
1
1
1
1
1
1
1
1
1
1
1
1
1
1
1
1
1
1
1
1
1
1
1
1
1
1
1
1
1
1
1
1
1
1
1
1
1
1
1
1
1
1
1
1
1
1
1
1
1
1
1
1
1
1
1
1
1
1
1
1
1
1
1
1
1
1
1
1
1
1
1
1
1
1
1
1
1
1
1
1
1
1
1
1
1
1
1
1
1
1
1
1
1
1
1
1
1
1
1
1
1
1
1
1
1
1
1
1
1
1
1
1
1
1
1
1
1
1
1
1
1
1
1
1
1
1
1
1
1
1
1
1
1
1
1
1
1
1
1
1
1
1
1
1
1
0.999967
1
1
1
1
1
1
1
1
1
1
1
1
1
1
0.998143
0.999864
0.999996
1
1
1
1
1
1
1
1
1
1
1
1
1.10173
1.00055
0.999997
1
1
1
1
1
1
1
1
1
1
1
1
2.06657
1.07346
1.00049
0.999999
1
1
1
1
1
1
1
1
1
1
1
3.31889
1.68635
1.04769
1.00052
1
1
1
1
1
1
1
1
1
1
1
3.25377
2.55757
1.36464
1.01934
1.00019
1
1
1
1
1
1
1
1
1
1
2.93293
2.87175
1.98263
1.15203
1.00515
1.00005
1
1
1
1
1
1
1
1
1
2.34435
2.81846
2.52748
1.5414
1.04835
1.00081
1
1
1
1
1
1
1
1
1
1.62561
2.466
2.58233
2.08368
1.30983
1.03702
1.00189
1.00005
1
1
1
1
1
1
1
1.24264
2.05883
2.5073
2.36801
1.67983
1.10799
1.00451
1.00009
1
1
1
1
1
1
1
0.9328
1.44359
2.17884
2.35159
2.14684
1.43617
1.04399
1.00109
1.00001
1
1
1
1
1
1
0.847795
1.13898
1.68963
2.23422
2.22419
1.84869
1.20671
1.0108
1.00015
1
1
1
1
1
1
0.740302
1.00197
1.35475
1.9323
2.19667
2.11587
1.5522
1.0792
1.00253
1.00003
1
1
1
1
1
0.636985
0.893652
1.10041
1.54327
2.06565
2.11546
1.86936
1.27273
1.01908
1.00032
1
1
1
1
1
0.57472
0.800721
0.964924
1.25322
1.75726
2.07122
2.01621
1.57174
1.10217
1.00402
1.00005
1
1
1
1
0.549168
0.688979
0.848793
1.1095
1.48503
1.92325
2.00903
1.8222
1.29033
1.02441
1.00049
1
1
1
1
0.54766
0.617198
0.718896
0.963171
1.25788
1.68847
1.96894
1.93586
1.55748
1.10811
1.00463
1.00006
1
1
1
0.547221
0.601464
0.686987
0.871572
1.07728
1.43328
1.83361
1.93005
1.76502
1.28525
1.02676
1.0006
1.00001
1
1
0.534983
0.583656
0.668026
0.817702
0.953821
1.24028
1.62497
1.88699
1.85835
1.52347
1.10473
1.00463
1.00006
1
1
0.509603
0.560331
0.654268
0.764092
0.851089
1.07164
1.41069
1.77249
1.8537
1.70231
1.26377
1.02564
1.0006
1.00001
1
0.485727
0.545904
0.635899
0.714578
0.795069
0.966133
1.21114
1.58432
1.81812
1.7875
1.47471
1.09407
1.00422
1.00006
1
0.465582
0.528605
0.609616
0.662158
0.760049
0.921656
1.07554
1.38172
1.71533
1.78346
1.64021
1.23392
1.02156
1.00048
1
0.457913
0.514293
0.579811
0.614806
0.709475
0.862941
0.973945
1.21753
1.55636
1.75568
1.7239
1.42018
1.08168
1.00368
1.00005
0.475404
0.491529
0.55329
0.594706
0.690899
0.801377
0.88706
1.0833
1.38012
1.67829
1.72203
1.57723
1.19739
1.01688
1.00039
0.570138
0.49114
0.52197
0.585557
0.676577
0.744799
0.82471
1.0023
1.21847
1.53909
1.70285
1.66813
1.37087
1.06466
1.00261
0.753829
0.526511
0.523943
0.571759
0.650089
0.693231
0.77547
0.944423
1.10118
1.38042
1.64315
1.66562
1.50447
1.1652
1.01418
0.890781
0.637608
0.533356
0.559307
0.618408
0.654543
0.732655
0.886353
1.00436
1.22971
1.5272
1.65239
1.61055
1.31407
1.0512
0.94011
0.787071
0.575955
0.547831
0.572199
0.631144
0.725466
0.831575
0.924479
1.12506
1.39591
1.61663
1.61543
1.44277
1.13587
0.952977
0.910501
0.74803
0.581082
0.573795
0.610209
0.69669
0.758724
0.830593
0.999608
1.19596
1.46401
1.59159
1.54996
1.38877
0.854026
0.772804
0.697476
0.573252
0.509438
0.498116
0.495795
0.484615
0.485472
0.475575
0.454901
0.430121
0.425496
0.453716
0.608102
0.835411
0.882625
0.936343
0.97323
0.963578
0.672337
0.627588
0.570423
0.470277
0.448452
0.458354
0.457735
0.452514
0.452029
0.440717
0.415993
0.403992
0.438884
0.609135
0.818707
0.939296
0.91863
0.931641
0.965232
0.966586
0.523536
0.513277
0.47538
0.409642
0.396678
0.412759
0.417765
0.42168
0.417778
0.405476
0.389263
0.434544
0.620036
0.822741
0.912799
0.949445
0.945382
0.935332
0.955937
0.965464
0.40506
0.416746
0.388624
0.350682
0.35348
0.371128
0.372301
0.386349
0.390113
0.382027
0.445212
0.639961
0.800047
0.939508
0.953407
0.955797
0.950239
0.938474
0.94512
0.962099
0.312578
0.327175
0.331565
0.320525
0.319368
0.328939
0.34312
0.343989
0.38354
0.507766
0.691231
0.823343
0.903929
0.953788
0.958717
0.958348
0.951927
0.944466
0.946885
0.960156
0.234424
0.263497
0.268392
0.279051
0.294489
0.296231
0.32467
0.434353
0.640467
0.802586
0.859415
0.901092
0.93058
0.959067
0.962129
0.956893
0.950556
0.946739
0.949981
0.95954
0.18685
0.216448
0.233267
0.237756
0.254279
0.340711
0.560163
0.745665
0.824669
0.874947
0.905656
0.923386
0.936044
0.949925
0.95068
0.947486
0.950294
0.954359
0.957046
0.960702
0.137541
0.161462
0.225646
0.310212
0.506551
0.708117
0.769341
0.845144
0.88238
0.896684
0.918948
0.940296
0.944088
0.94384
0.939124
0.939945
0.949775
0.958705
0.960642
0.960387
0.282805
0.414253
0.526175
0.670729
0.778001
0.849413
0.837607
0.839048
0.85916
0.896251
0.935509
0.954017
0.951744
0.936327
0.931458
0.938048
0.957752
0.965793
0.964201
0.95675
0.56
0.632457
0.695722
0.819868
0.842193
0.848968
0.836969
0.838423
0.859573
0.904835
0.953125
0.965928
0.956189
0.93466
0.937069
0.952281
0.969395
0.972073
0.963637
0.954685
)
;

boundaryField
{
    inlet
    {
        type            fixedValue;
        value           uniform 1;
    }
    outlet
    {
        type            zeroGradient;
    }
    airfoil
    {
        type            zeroGradient;
    }
    top
    {
        type            symmetryPlane;
    }
    bottom
    {
        type            symmetryPlane;
    }
    defaultFaces
    {
        type            empty;
    }
}


// ************************************************************************* //
