/*--------------------------------*- C++ -*----------------------------------*\
  =========                 |
  \\      /  F ield         | OpenFOAM: The Open Source CFD Toolbox
   \\    /   O peration     | Website:  https://openfoam.org
    \\  /    A nd           | Version:  7
     \\/     M anipulation  |
\*---------------------------------------------------------------------------*/
FoamFile
{
    version     2.0;
    format      ascii;
    class       volVectorField;
    location    "7.1";
    object      U;
}
// * * * * * * * * * * * * * * * * * * * * * * * * * * * * * * * * * * * * * //

dimensions      [0 1 -1 0 0 0 0];

internalField   nonuniform List<vector> 
3700
(
(1.45737 -0.417645 0)
(1.36066 -0.549748 0)
(1.35958 -0.268304 0)
(1.48285 -0.312246 0)
(1.60426 -0.365626 0)
(1.53892 -0.214442 0)
(1.55558 -0.109984 0)
(1.55426 -0.128436 0)
(1.58622 -0.253921 0)
(1.57191 -0.31176 0)
(1.52898 -0.267272 0)
(1.55281 -0.137251 0)
(1.63034 -0.116681 0)
(1.67104 -0.17213 0)
(1.72972 -0.236168 0)
(1.72083 -0.228478 0)
(1.71179 -0.166338 0)
(1.75766 -0.128789 0)
(1.80364 -0.171465 0)
(1.87403 -0.292626 0)
(1.89884 -1.35799 0)
(1.78217 -1.31472 0)
(1.78521 -1.03119 0)
(1.9624 -1.10739 0)
(1.98417 -1.38989 0)
(1.83232 -1.29039 0)
(1.76584 -1.15754 0)
(1.79979 -1.24426 0)
(1.89021 -1.5675 0)
(1.87643 -1.60523 0)
(1.81341 -1.54256 0)
(1.85495 -1.29025 0)
(1.99686 -1.20728 0)
(2.1469 -1.27081 0)
(2.20067 -1.2553 0)
(2.20065 -1.1896 0)
(2.21353 -1.08895 0)
(2.2398 -1.0163 0)
(2.31677 -1.06369 0)
(2.39743 -1.28393 0)
(1.78941 -1.40801 0)
(1.84593 -1.35168 0)
(1.86348 -1.41221 0)
(1.91712 -1.58109 0)
(1.9358 -1.93823 0)
(1.91747 -2.191 0)
(1.95283 -2.2614 0)
(1.98724 -2.21204 0)
(2.00283 -2.20393 0)
(2.0862 -2.08328 0)
(2.09626 -2.12534 0)
(2.19452 -1.99469 0)
(2.25822 -1.92265 0)
(2.32821 -1.88064 0)
(2.40595 -1.80764 0)
(2.51894 -1.76101 0)
(2.60113 -1.68012 0)
(2.67505 -1.61401 0)
(2.71215 -1.56673 0)
(2.69257 -1.56727 0)
(1.68924 -1.42325 0)
(1.68925 -1.48141 0)
(1.6965 -1.75706 0)
(1.70004 -2.11472 0)
(1.71123 -2.22758 0)
(1.83455 -2.26599 0)
(1.90388 -2.2874 0)
(2.02624 -2.09418 0)
(2.10568 -2.06283 0)
(2.32836 -1.91936 0)
(2.33668 -1.96549 0)
(2.38509 -1.88386 0)
(2.40136 -1.8348 0)
(2.39543 -1.8117 0)
(2.43997 -1.7087 0)
(2.52726 -1.637 0)
(2.57561 -1.50198 0)
(2.67744 -1.40507 0)
(2.76336 -1.24402 0)
(2.8441 -1.17018 0)
(1.40348 -1.35532 0)
(1.55732 -1.50667 0)
(1.58754 -1.95506 0)
(1.59658 -2.26427 0)
(1.49896 -2.31523 0)
(1.67376 -2.24906 0)
(1.85464 -2.14859 0)
(2.02757 -1.89062 0)
(2.11092 -1.88042 0)
(2.31959 -1.8388 0)
(2.46178 -1.65119 0)
(2.52793 -1.61483 0)
(2.57137 -1.55435 0)
(2.54906 -1.58758 0)
(2.57205 -1.53604 0)
(2.5722 -1.53456 0)
(2.5795 -1.398 0)
(2.61963 -1.32421 0)
(2.69267 -1.2608 0)
(2.79491 -1.0139 0)
(1.26775 -1.27195 0)
(1.45286 -1.65652 0)
(1.58813 -2.10802 0)
(1.63418 -2.37088 0)
(1.74313 -2.40033 0)
(1.9103 -2.21144 0)
(1.94799 -2.04935 0)
(1.98215 -1.91459 0)
(2.03179 -1.85524 0)
(2.24196 -1.74851 0)
(2.38749 -1.56773 0)
(2.56521 -1.50854 0)
(2.65195 -1.32622 0)
(2.69924 -1.26509 0)
(2.71676 -1.17235 0)
(2.70676 -1.18521 0)
(2.69457 -1.15457 0)
(2.68334 -1.07559 0)
(2.67269 -1.14745 0)
(2.71039 -0.96883 0)
(1.20723 -1.27402 0)
(1.41623 -1.82175 0)
(1.73357 -2.21904 0)
(1.91937 -2.42552 0)
(2.05356 -2.40529 0)
(2.18779 -2.20472 0)
(2.16077 -1.97808 0)
(2.07698 -1.89905 0)
(2.09736 -1.83729 0)
(2.21203 -1.76064 0)
(2.34377 -1.55055 0)
(2.50393 -1.46719 0)
(2.56887 -1.25671 0)
(2.71397 -1.1744 0)
(2.73897 -0.944319 0)
(2.78243 -0.803302 0)
(2.76841 -0.732101 0)
(2.77209 -0.633168 0)
(2.72372 -0.771537 0)
(2.70887 -0.713016 0)
(1.15917 -1.38921 0)
(1.52639 -2.03222 0)
(2.01899 -2.33561 0)
(2.14835 -2.47194 0)
(2.30273 -2.32586 0)
(2.4313 -2.10238 0)
(2.44991 -1.78974 0)
(2.38618 -1.72631 0)
(2.38274 -1.71477 0)
(2.4129 -1.65724 0)
(2.46146 -1.50997 0)
(2.52999 -1.38898 0)
(2.56046 -1.20477 0)
(2.64664 -1.12705 0)
(2.68285 -0.930214 0)
(2.74938 -0.788751 0)
(2.78627 -0.624544 0)
(2.80456 -0.404748 0)
(2.75735 -0.392294 0)
(2.71452 -0.378289 0)
(1.27348 -1.59791 0)
(1.71475 -2.22391 0)
(2.12382 -2.37548 0)
(2.1915 -2.47841 0)
(2.35301 -2.25766 0)
(2.46381 -2.04582 0)
(2.59225 -1.63034 0)
(2.67902 -1.49463 0)
(2.73873 -1.43033 0)
(2.73814 -1.25054 0)
(2.70896 -1.27735 0)
(2.72226 -1.07525 0)
(2.67872 -0.998422 0)
(2.68834 -0.903789 0)
(2.68835 -0.776359 0)
(2.69928 -0.670354 0)
(2.73218 -0.570586 0)
(2.74211 -0.388414 0)
(2.72736 -0.209503 0)
(2.67881 -0.106083 0)
(1.43764 -1.79155 0)
(1.78892 -2.26891 0)
(2.08302 -2.35256 0)
(2.06809 -2.29384 0)
(2.13492 -2.07663 0)
(2.23351 -1.79189 0)
(2.40088 -1.57508 0)
(2.48061 -1.47741 0)
(2.64322 -1.36586 0)
(2.71493 -0.948124 0)
(2.77552 -0.834221 0)
(2.78171 -0.600616 0)
(2.76944 -0.551073 0)
(2.75553 -0.441054 0)
(2.73938 -0.385748 0)
(2.70979 -0.347141 0)
(2.69024 -0.325852 0)
(2.69124 -0.296589 0)
(2.64798 -0.130302 0)
(2.6115 0.0287239 0)
(1.51578 -1.86769 0)
(1.70096 -2.25021 0)
(1.82844 -2.17968 0)
(1.86946 -2.10347 0)
(1.98824 -1.95665 0)
(2.13903 -1.55082 0)
(2.21906 -1.52535 0)
(2.32918 -1.35422 0)
(2.39926 -1.24401 0)
(2.49032 -1.0282 0)
(2.61836 -0.831746 0)
(2.67038 -0.559181 0)
(2.70371 -0.347872 0)
(2.70473 -0.157938 0)
(2.67455 0.00412547 0)
(2.65365 0.0512038 0)
(2.6309 0.0922144 0)
(2.62203 -0.00237141 0)
(2.5572 0.0946774 0)
(2.58092 0.0652821 0)
(1.49812 -1.87043 0)
(1.63141 -2.21172 0)
(1.74167 -2.10006 0)
(1.87347 -1.92396 0)
(2.03854 -1.86253 0)
(2.22721 -1.36116 0)
(2.21235 -1.42946 0)
(2.3516 -1.23277 0)
(2.43632 -0.997242 0)
(2.46363 -0.884097 0)
(2.53684 -0.694746 0)
(2.57863 -0.491849 0)
(2.60737 -0.299478 0)
(2.63161 -0.130862 0)
(2.58565 0.0964151 0)
(2.57868 0.204949 0)
(2.52167 0.365292 0)
(2.48898 0.341611 0)
(2.44055 0.364983 0)
(2.47635 0.278239 0)
(1.3243 -1.72773 0)
(1.52126 -2.00401 0)
(1.79054 -1.85573 0)
(2.02608 -1.44611 0)
(2.1632 -1.51192 0)
(2.29108 -1.0308 0)
(2.39234 -1.07598 0)
(2.54863 -0.781517 0)
(2.57539 -0.446868 0)
(2.58764 -0.390835 0)
(2.59364 -0.206015 0)
(2.58967 -0.0799732 0)
(2.56672 0.0393587 0)
(2.54425 0.133217 0)
(2.48844 0.258151 0)
(2.48092 0.301893 0)
(2.41826 0.425838 0)
(2.35743 0.535552 0)
(2.29561 0.605608 0)
(2.30056 0.564338 0)
(1.10533 -1.46524 0)
(1.51888 -1.66561 0)
(1.91665 -1.42255 0)
(2.04419 -1.26975 0)
(2.17675 -1.20189 0)
(2.45374 -0.749707 0)
(2.60245 -0.466299 0)
(2.61455 -0.146145 0)
(2.60849 -0.079516 0)
(2.57255 0.103932 0)
(2.54401 0.247483 0)
(2.49332 0.38777 0)
(2.45264 0.475755 0)
(2.39431 0.562616 0)
(2.34467 0.599334 0)
(2.31257 0.598406 0)
(2.2729 0.62145 0)
(2.2374 0.663489 0)
(2.16739 0.756904 0)
(2.12976 0.794887 0)
(0.977394 -1.25672 0)
(1.50253 -1.47358 0)
(1.90533 -0.969256 0)
(2.23621 -1.20257 0)
(2.56743 -0.291067 0)
(2.47759 -0.6924 0)
(2.52453 -0.42889 0)
(2.50646 -0.10214 0)
(2.47447 0.0287075 0)
(2.45969 0.201895 0)
(2.41984 0.386371 0)
(2.34932 0.563095 0)
(2.2964 0.677067 0)
(2.21212 0.794814 0)
(2.15264 0.845583 0)
(2.10787 0.862399 0)
(2.06843 0.898605 0)
(2.06878 0.889891 0)
(2.04325 0.9191 0)
(2.06026 0.948929 0)
(1.17354 -1.08213 0)
(1.37452 -1.37353 0)
(2.34515 -0.104649 0)
(2.43424 -0.6995 0)
(2.47418 -0.323587 0)
(2.45772 -0.24948 0)
(2.42555 0.0329012 0)
(2.38712 0.212263 0)
(2.32549 0.391115 0)
(2.30257 0.540137 0)
(2.21369 0.703386 0)
(2.14804 0.81145 0)
(2.09487 0.877369 0)
(2.03297 0.945914 0)
(1.98645 0.970076 0)
(1.94877 0.996916 0)
(1.95342 1.02024 0)
(1.9689 0.997317 0)
(1.99517 0.995326 0)
(2.07192 0.976744 0)
(1.2699 -0.582089 0)
(1.86312 -0.444401 0)
(2.33392 -0.358454 0)
(2.31647 -0.109984 0)
(2.34864 -0.0576105 0)
(2.35241 0.295847 0)
(2.28013 0.565647 0)
(2.18758 0.722894 0)
(2.13208 0.790499 0)
(2.06865 0.917973 0)
(1.96329 1.02168 0)
(1.9125 1.06809 0)
(1.88752 1.07868 0)
(1.87217 1.08661 0)
(1.87222 1.05593 0)
(1.89543 1.04911 0)
(1.96073 1.02212 0)
(2.16377 0.903864 0)
(2.38179 0.792543 0)
(2.77935 0.440951 0)
(1.05593 -0.0863097 0)
(1.85223 0.0253913 0)
(2.24275 0.0658154 0)
(2.22527 0.487201 0)
(2.19823 0.671767 0)
(2.14076 0.786417 0)
(2.05478 0.89527 0)
(1.96719 0.969447 0)
(1.90841 1.03589 0)
(1.8423 1.12725 0)
(1.78452 1.15874 0)
(1.78968 1.15236 0)
(1.81359 1.13025 0)
(1.85481 1.08609 0)
(2.04005 0.951102 0)
(2.2557 0.830667 0)
(2.66341 0.505673 0)
(3.03712 0.0918135 0)
(3.05531 -0.0239576 0)
(3.00401 -0.00465922 0)
(1.01545 0.0358807 0)
(1.9392 0.731736 0)
(2.08384 0.882227 0)
(1.99737 0.963689 0)
(1.97237 0.979718 0)
(1.87877 1.08665 0)
(1.79176 1.14667 0)
(1.7582 1.14766 0)
(1.75451 1.16274 0)
(1.72998 1.20369 0)
(1.70845 1.19824 0)
(1.86113 1.074 0)
(2.10381 0.887415 0)
(2.51034 0.575807 0)
(2.99023 0.133698 0)
(3.07397 -0.030026 0)
(3.00816 -0.00773949 0)
(3.00293 -0.00385015 0)
(3.00122 -0.00219637 0)
(3.00008 -0.000483576 0)
(1.17116 0.745103 0)
(1.81576 1.16238 0)
(1.83887 1.14275 0)
(1.73867 1.18761 0)
(1.71921 1.19264 0)
(1.67385 1.24116 0)
(1.66279 1.21463 0)
(1.72717 1.16478 0)
(1.75446 1.22771 0)
(1.77869 1.14158 0)
(2.25465 0.751013 0)
(2.84524 0.220808 0)
(3.09456 -0.0239173 0)
(3.02078 -0.0122637 0)
(3.00439 -0.00527215 0)
(3.00186 -0.00297922 0)
(3.00006 -0.000597235 0)
(2.99998 -2.5159e-05 0)
(2.99999 1.4326e-05 0)
(3 5.9027e-06 0)
(1.57423 1.254 0)
(1.58039 1.26039 0)
(1.58579 1.26591 0)
(1.59683 1.25928 0)
(1.62099 1.24179 0)
(1.61171 1.2632 0)
(1.91158 1.15613 0)
(2.98348 0.351405 0)
(3.33423 -0.576702 0)
(3 6.19983e-11 0)
(3 -7.25811e-11 0)
(3 7.77299e-11 0)
(3 2.92269e-15 0)
(3 -4.31271e-13 0)
(3 -1.50996e-14 0)
(3 1.8069e-14 0)
(3 -9.96051e-15 0)
(3 -1.02952e-16 0)
(3 4.10008e-15 0)
(3 3.71819e-15 0)
(1.57644 1.25026 0)
(1.58902 1.26134 0)
(1.59299 1.27554 0)
(1.58691 1.27604 0)
(1.66729 1.24872 0)
(1.75271 1.22719 0)
(2.31418 0.720081 0)
(3.00281 0.00820107 0)
(3 6.26137e-08 0)
(3 -2.96827e-11 0)
(3 6.21069e-14 0)
(3 1.55713e-15 0)
(3 -1.64509e-16 0)
(3 -7.71428e-16 0)
(3 -6.96148e-16 0)
(3 3.83534e-16 0)
(3 1.55879e-15 0)
(3 3.51326e-16 0)
(3 3.17315e-15 0)
(3 5.56436e-15 0)
(1.58438 1.25496 0)
(1.60122 1.25862 0)
(1.60157 1.27243 0)
(1.57515 1.30623 0)
(1.7078 1.22455 0)
(2.18314 0.833888 0)
(2.98366 0.0118606 0)
(3.00033 -0.000696032 0)
(3 5.71713e-07 0)
(3 6.09571e-11 0)
(3 6.39529e-14 0)
(3 4.20643e-16 0)
(3 -1.39265e-16 0)
(3 -7.58258e-16 0)
(3 -1.00681e-15 0)
(3 -8.55934e-17 0)
(3 1.41902e-15 0)
(3 1.73273e-16 0)
(3 3.42069e-15 0)
(3 3.99777e-15 0)
(1.58724 1.25692 0)
(1.60972 1.25874 0)
(1.62889 1.26357 0)
(1.61243 1.29992 0)
(1.8219 1.11002 0)
(2.7065 0.252679 0)
(3.00575 -0.00272298 0)
(2.99991 8.06886e-05 0)
(3 -7.72996e-07 0)
(3 8.65087e-10 0)
(3 5.08922e-14 0)
(3 9.7917e-16 0)
(3 7.80335e-16 0)
(3 -5.75983e-17 0)
(3 -2.68901e-16 0)
(3 -6.45354e-16 0)
(3 1.61173e-15 0)
(3 7.27964e-16 0)
(3 3.39243e-15 0)
(3 2.5817e-15 0)
(1.58828 1.2688 0)
(1.60719 1.26275 0)
(1.63538 1.24874 0)
(1.74375 1.19828 0)
(2.36416 0.63066 0)
(3.02065 -0.0193699 0)
(2.99974 0.000179083 0)
(3 -4.29328e-06 0)
(3 8.48724e-08 0)
(3 -8.91989e-10 0)
(3 3.13808e-13 0)
(3 2.94947e-15 0)
(3 1.3887e-15 0)
(3 6.28402e-16 0)
(3 4.26009e-16 0)
(3 -4.0447e-16 0)
(3 4.4027e-16 0)
(3 1.81805e-15 0)
(3 2.82958e-15 0)
(3 5.77466e-16 0)
(1.58514 1.28054 0)
(1.58161 1.27124 0)
(1.63566 1.24194 0)
(1.82931 1.1087 0)
(2.74493 0.220948 0)
(3 -5.82324e-10 0)
(3 1.41674e-08 0)
(3 -1.28109e-08 0)
(3 5.59176e-10 0)
(3 2.77516e-12 0)
(3 -1.06604e-13 0)
(3 1.5502e-15 0)
(3 2.03326e-15 0)
(3 1.45312e-15 0)
(3 1.29547e-15 0)
(3 5.02892e-16 0)
(3 1.07939e-15 0)
(3 1.88059e-15 0)
(3 2.23632e-15 0)
(3 -9.81475e-16 0)
(1.58256 1.29179 0)
(1.55014 1.28267 0)
(1.64875 1.25029 0)
(2.08048 0.878523 0)
(3.00233 0.000639608 0)
(3 4.34967e-12 0)
(3 -1.21245e-11 0)
(3 1.01132e-11 0)
(3 -2.29487e-12 0)
(3 3.3425e-14 0)
(3 1.40176e-15 0)
(3 2.00292e-15 0)
(3 2.04021e-15 0)
(3 1.73422e-15 0)
(3 1.45166e-15 0)
(3 1.24864e-15 0)
(3 1.93433e-15 0)
(3 2.33374e-15 0)
(3 1.63689e-15 0)
(3 -1.62808e-15 0)
(1.58138 1.32066 0)
(1.5113 1.32298 0)
(1.79135 1.18347 0)
(2.44836 0.535572 0)
(3 -4.65789e-06 0)
(3 1.90112e-11 0)
(3 3.21557e-13 0)
(3 -3.2062e-14 0)
(3 7.95831e-15 0)
(3 1.23441e-15 0)
(3 2.04276e-15 0)
(3 2.24197e-15 0)
(3 2.12218e-15 0)
(3 1.7686e-15 0)
(3 1.70732e-15 0)
(3 1.68498e-15 0)
(3 2.44824e-15 0)
(3 2.84241e-15 0)
(3 1.56122e-15 0)
(3 -1.26105e-15 0)
(1.58985 1.30796 0)
(1.46579 1.34867 0)
(1.93809 1.04685 0)
(2.85905 0.134337 0)
(3 -1.59414e-08 0)
(3 -1.19908e-11 0)
(3 -3.60374e-14 0)
(3 1.46818e-15 0)
(3 1.28388e-15 0)
(3 1.69989e-15 0)
(3 2.12477e-15 0)
(3 2.05705e-15 0)
(3 2.57347e-15 0)
(3 2.48859e-15 0)
(3 2.55054e-15 0)
(3 2.24137e-15 0)
(3 2.73179e-15 0)
(3 2.60366e-15 0)
(3 2.26932e-15 0)
(3 -4.78231e-16 0)
(1.60511 1.29665 0)
(1.48411 1.39197 0)
(2.13228 0.842205 0)
(3.01134 -0.00956703 0)
(3 4.19878e-09 0)
(3 -6.27283e-12 0)
(3 2.0027e-14 0)
(3 1.60112e-16 0)
(3 1.08125e-15 0)
(3 1.59579e-15 0)
(3 2.46883e-15 0)
(3 2.30206e-15 0)
(3 2.95507e-15 0)
(3 3.35025e-15 0)
(3 3.15892e-15 0)
(3 3.18473e-15 0)
(3 3.32575e-15 0)
(3 3.87834e-15 0)
(3 3.84608e-15 0)
(3 2.66667e-15 0)
(1.62044 1.28223 0)
(1.58422 1.30562 0)
(2.43379 0.521903 0)
(3 5.6143e-15 0)
(3 -3.61659e-12 0)
(3 6.23796e-14 0)
(3 -8.64512e-16 0)
(3 8.32187e-16 0)
(3 1.43102e-15 0)
(3 1.38411e-15 0)
(3 1.09755e-15 0)
(3 1.54577e-15 0)
(3 2.73576e-15 0)
(3 3.6127e-15 0)
(3 3.99894e-15 0)
(3 3.84554e-15 0)
(3 3.82601e-15 0)
(3 4.43805e-15 0)
(3 4.26526e-15 0)
(3 3.98487e-15 0)
(1.63768 1.26356 0)
(1.62874 1.24532 0)
(2.64814 0.290991 0)
(3 2.67793e-13 0)
(3 9.89002e-15 0)
(3 -8.89297e-16 0)
(3 2.18009e-16 0)
(3 7.18073e-16 0)
(3 8.8062e-16 0)
(3 1.37303e-15 0)
(3 1.24166e-15 0)
(3 1.41129e-15 0)
(3 1.93552e-15 0)
(3 3.28989e-15 0)
(3 3.25905e-15 0)
(3 3.59144e-15 0)
(3 4.02587e-15 0)
(3 4.82865e-15 0)
(3 5.1897e-15 0)
(3 5.27702e-15 0)
(1.65974 1.23948 0)
(1.81455 1.09811 0)
(2.87766 0.0859911 0)
(3 -7.90613e-13 0)
(3 -9.79321e-16 0)
(3 -2.51513e-16 0)
(3 -1.18714e-16 0)
(3 -1.70247e-16 0)
(3 8.11054e-17 0)
(3 7.92326e-16 0)
(3 1.32115e-15 0)
(3 1.34753e-15 0)
(3 1.56878e-15 0)
(3 2.30259e-15 0)
(3 1.99824e-15 0)
(3 1.73489e-15 0)
(3 2.58485e-15 0)
(3 3.90785e-15 0)
(3 5.12151e-15 0)
(3 5.46246e-15 0)
(1.68635 1.19235 0)
(1.9182 0.970871 0)
(2.99994 1.48793e-05 0)
(3 -1.4226e-15 0)
(3 -2.08903e-15 0)
(3 -1.91827e-15 0)
(3 -2.05792e-15 0)
(3 -2.19473e-15 0)
(3 -1.88344e-15 0)
(3 -7.97211e-16 0)
(3 -7.00021e-18 0)
(3 5.72933e-16 0)
(3 8.33019e-16 0)
(3 1.47962e-15 0)
(3 2.03002e-15 0)
(3 1.97735e-15 0)
(3 1.53595e-15 0)
(3 1.64888e-15 0)
(3 3.27389e-15 0)
(3 4.33058e-15 0)
(1.68744 1.17083 0)
(2.03122 0.83819 0)
(3 -3.16958e-15 0)
(3 -3.33469e-15 0)
(3 -2.76096e-15 0)
(3 -2.40637e-15 0)
(3 -2.74795e-15 0)
(3 -3.24411e-15 0)
(3 -3.13701e-15 0)
(3 -2.40103e-15 0)
(3 -1.49656e-15 0)
(3 -1.10948e-15 0)
(3 -7.58676e-16 0)
(3 -4.629e-16 0)
(3 8.31834e-17 0)
(3 -3.37591e-17 0)
(3 4.54021e-16 0)
(3 8.27603e-16 0)
(3 1.07463e-15 0)
(3 1.98909e-15 0)
(1.74674 1.1036 0)
(2.21162 0.654735 0)
(3 -3.16582e-15 0)
(3 -3.88053e-15 0)
(3 -4.0472e-15 0)
(3 -3.91509e-15 0)
(3 -3.30161e-15 0)
(3 -3.11015e-15 0)
(3 -3.18843e-15 0)
(3 -3.21472e-15 0)
(3 -2.52974e-15 0)
(3 -1.69254e-15 0)
(3 -1.43067e-15 0)
(3 -1.30332e-15 0)
(3 -1.17566e-15 0)
(3 -9.54703e-16 0)
(3 -8.32511e-16 0)
(3 -8.24764e-16 0)
(3 -5.61714e-16 0)
(3 -1.15436e-16 0)
(1.85369 1.0177 0)
(2.46043 0.440599 0)
(3 -2.55704e-15 0)
(3 -3.17783e-15 0)
(3 -3.57471e-15 0)
(3 -4.1733e-15 0)
(3 -4.41309e-15 0)
(3 -4.09407e-15 0)
(3 -3.56992e-15 0)
(3 -3.12731e-15 0)
(3 -2.93834e-15 0)
(3 -2.70214e-15 0)
(3 -1.32662e-15 0)
(3 -1.16375e-15 0)
(3 -9.82735e-16 0)
(3 -7.31534e-16 0)
(3 -5.80333e-16 0)
(3 -3.94812e-16 0)
(3 1.47279e-16 0)
(3 3.79055e-16 0)
(1.94758 0.860227 0)
(2.73726 0.188935 0)
(3 -8.55479e-16 0)
(3 -7.55182e-16 0)
(3 -6.4864e-16 0)
(3 3.55733e-17 0)
(3 1.32469e-16 0)
(3 3.21239e-16 0)
(3 -1.55957e-17 0)
(3 -2.26951e-16 0)
(3 -4.44957e-16 0)
(3 -9.3191e-16 0)
(3 -1.10291e-15 0)
(3 -3.65719e-18 0)
(3 1.0844e-15 0)
(3 1.29399e-15 0)
(3 1.14749e-15 0)
(3 1.15868e-15 0)
(3 1.01295e-15 0)
(3 9.72027e-16 0)
(2.0874 0.653097 0)
(2.99289 6.38631e-05 0)
(3 2.1271e-15 0)
(3 1.7081e-15 0)
(3 1.6704e-15 0)
(3 1.58061e-15 0)
(3 1.16343e-15 0)
(3 3.25065e-16 0)
(3 1.37878e-16 0)
(3 -3.56003e-16 0)
(3 -8.14706e-16 0)
(3 -9.18412e-16 0)
(3 -1.12214e-15 0)
(3 -9.2417e-16 0)
(3 -4.60378e-16 0)
(3 -8.17313e-17 0)
(3 -1.01183e-16 0)
(3 -7.81895e-17 0)
(3 2.29632e-16 0)
(3 2.38571e-16 0)
(1.99102 0.377194 0)
(2.9998 -3.22898e-05 0)
(3 2.65475e-15 0)
(3 1.33871e-15 0)
(3 9.14919e-16 0)
(3 1.29027e-15 0)
(3 1.14763e-15 0)
(3 7.8598e-16 0)
(3 4.66937e-17 0)
(3 -1.18448e-15 0)
(3 -1.41158e-15 0)
(3 -1.73064e-15 0)
(3 -2.21212e-15 0)
(3 -3.16852e-15 0)
(3 -3.79239e-15 0)
(3 -3.7746e-15 0)
(3 -3.74939e-15 0)
(3 -3.66608e-15 0)
(3 -3.37955e-15 0)
(3 -3.18292e-15 0)
(1.99139 -0.376054 0)
(2.99981 2.83255e-05 0)
(3 1.72503e-15 0)
(3 2.04647e-15 0)
(3 1.02531e-15 0)
(3 3.86625e-16 0)
(3 2.09423e-16 0)
(3 -3.97408e-17 0)
(3 -8.19329e-17 0)
(3 1.83194e-16 0)
(3 3.13438e-16 0)
(3 -4.37877e-16 0)
(3 -1.18712e-15 0)
(3 -1.79211e-15 0)
(3 -1.87007e-15 0)
(3 -1.87926e-15 0)
(3 -1.74764e-15 0)
(3 -1.47433e-15 0)
(3 -1.51815e-15 0)
(3 -1.6126e-15 0)
(2.08735 -0.656413 0)
(2.99258 -3.61847e-05 0)
(3 5.95117e-16 0)
(3 1.04673e-15 0)
(3 9.85578e-16 0)
(3 4.5862e-16 0)
(3 1.14408e-16 0)
(3 -2.52184e-18 0)
(3 2.30291e-17 0)
(3 1.48649e-16 0)
(3 -2.15869e-16 0)
(3 -6.17196e-16 0)
(3 -9.63769e-16 0)
(3 -1.30692e-15 0)
(3 -1.454e-15 0)
(3 -1.39523e-15 0)
(3 -9.65967e-16 0)
(3 -9.99009e-16 0)
(3 -1.30447e-15 0)
(3 -1.67218e-15 0)
(1.94134 -0.860628 0)
(2.73251 -0.191852 0)
(3 4.22527e-16 0)
(3 1.46606e-16 0)
(3 -5.11462e-16 0)
(3 -1.29299e-15 0)
(3 -1.65465e-15 0)
(3 -1.82808e-15 0)
(3 -1.66783e-15 0)
(3 -1.46672e-15 0)
(3 -1.57908e-15 0)
(3 -1.66722e-15 0)
(3 -1.90803e-15 0)
(3 -2.00893e-15 0)
(3 -1.6365e-15 0)
(3 -1.68262e-15 0)
(3 -2.26972e-15 0)
(3 -2.6255e-15 0)
(3 -2.81398e-15 0)
(3 -2.88897e-15 0)
(1.85494 -1.01437 0)
(2.46516 -0.437705 0)
(3 1.89503e-15 0)
(3 2.54848e-16 0)
(3 -3.33021e-16 0)
(3 -8.65011e-16 0)
(3 -1.73798e-15 0)
(3 -1.9581e-15 0)
(3 -2.31944e-15 0)
(3 -2.69239e-15 0)
(3 -2.80343e-15 0)
(3 -2.67621e-15 0)
(3 -2.86514e-15 0)
(3 -3.10782e-15 0)
(3 -2.95325e-15 0)
(3 -2.73789e-15 0)
(3 -2.97125e-15 0)
(3 -3.37153e-15 0)
(3 -4.43319e-15 0)
(3 -4.67815e-15 0)
(1.75473 -1.10354 0)
(2.21834 -0.651707 0)
(3 -2.38485e-15 0)
(3 -2.30066e-15 0)
(3 -3.44822e-15 0)
(3 -3.75754e-15 0)
(3 -4.18262e-15 0)
(3 -4.18737e-15 0)
(3 -4.22145e-15 0)
(3 -4.12552e-15 0)
(3 -4.09559e-15 0)
(3 -4.61311e-15 0)
(3 -4.8256e-15 0)
(3 -4.68085e-15 0)
(3 -4.49288e-15 0)
(3 -4.38717e-15 0)
(3 -5.00552e-15 0)
(3 -5.89071e-15 0)
(3 -6.26863e-15 0)
(3 -6.02874e-15 0)
(1.68451 -1.17391 0)
(2.02907 -0.837671 0)
(3 -2.10407e-15 0)
(3 -3.47585e-15 0)
(3 -3.83161e-15 0)
(3 -4.09451e-15 0)
(3 -4.23384e-15 0)
(3 -4.49358e-15 0)
(3 -4.31561e-15 0)
(3 -4.059e-15 0)
(3 -3.96146e-15 0)
(3 -4.40603e-15 0)
(3 -5.21058e-15 0)
(3 -5.58512e-15 0)
(3 -5.53662e-15 0)
(3 -5.28586e-15 0)
(3 -5.35261e-15 0)
(3 -4.46828e-15 0)
(3 -3.81595e-15 0)
(3 -3.35176e-15 0)
(1.68258 -1.1925 0)
(1.91211 -0.974195 0)
(2.99997 -7.5723e-06 0)
(3 -3.32527e-15 0)
(3 -3.01943e-15 0)
(3 -3.07925e-15 0)
(3 -3.23437e-15 0)
(3 -3.48428e-15 0)
(3 -3.34513e-15 0)
(3 -3.237e-15 0)
(3 -3.13497e-15 0)
(3 -3.77066e-15 0)
(3 -3.68576e-15 0)
(3 -2.47596e-15 0)
(3 -1.76229e-15 0)
(3 -1.72205e-15 0)
(3 -2.30363e-15 0)
(3 -2.86946e-15 0)
(3 -2.49101e-15 0)
(3 -1.60798e-15 0)
(1.65897 -1.23957 0)
(1.8206 -1.09818 0)
(2.87918 -0.0858328 0)
(3 6.40372e-13 0)
(3 -2.29708e-15 0)
(3 -2.15953e-15 0)
(3 -1.96634e-15 0)
(3 -2.36273e-15 0)
(3 -2.11623e-15 0)
(3 -2.15327e-15 0)
(3 -1.81269e-15 0)
(3 -1.74129e-15 0)
(3 -1.85642e-15 0)
(3 -1.37946e-15 0)
(3 -6.63779e-16 0)
(3 -8.56093e-16 0)
(3 -2.22187e-15 0)
(3 -2.32523e-15 0)
(3 -2.44982e-15 0)
(3 -1.98932e-15 0)
(1.63899 -1.26186 0)
(1.62545 -1.24795 0)
(2.64824 -0.291276 0)
(3 -1.96354e-13 0)
(3 -7.10163e-15 0)
(3 -1.65908e-15 0)
(3 -1.99562e-15 0)
(3 -6.35933e-16 0)
(3 -6.25871e-16 0)
(3 -2.32625e-16 0)
(3 -2.06439e-17 0)
(3 -8.82646e-16 0)
(3 -8.6254e-16 0)
(3 -7.70538e-16 0)
(3 -5.18927e-16 0)
(3 -1.22523e-15 0)
(3 -2.02895e-15 0)
(3 -2.23634e-15 0)
(3 -2.30992e-15 0)
(3 -2.36432e-15 0)
(1.62109 -1.28211 0)
(1.58314 -1.3067 0)
(2.43076 -0.524803 0)
(3 3.14021e-13 0)
(3 5.16547e-12 0)
(3 -7.731e-14 0)
(3 -4.23378e-16 0)
(3 -9.70635e-16 0)
(3 -1.55423e-16 0)
(3 4.62731e-16 0)
(3 4.40604e-16 0)
(3 -4.24915e-16 0)
(3 -5.64108e-16 0)
(3 -5.06035e-16 0)
(3 -5.55836e-16 0)
(3 -1.54815e-15 0)
(3 -2.47629e-15 0)
(3 -3.07396e-15 0)
(3 -2.89652e-15 0)
(3 -1.86278e-15 0)
(1.60507 -1.29642 0)
(1.48276 -1.38844 0)
(2.14492 -0.833496 0)
(3.01123 0.00948538 0)
(3 -5.41407e-09 0)
(3 1.06922e-12 0)
(3 -1.1573e-14 0)
(3 -4.06469e-16 0)
(3 -4.49714e-17 0)
(3 5.54708e-16 0)
(3 3.35972e-16 0)
(3 -7.62169e-16 0)
(3 -7.45758e-16 0)
(3 -6.652e-16 0)
(3 -8.88955e-16 0)
(3 -1.44433e-15 0)
(3 -2.10379e-15 0)
(3 -2.79701e-15 0)
(3 -2.17482e-15 0)
(3 1.78712e-15 0)
(1.59076 -1.30821 0)
(1.46541 -1.35357 0)
(1.92611 -1.04789 0)
(2.85355 -0.134653 0)
(3 1.82116e-08 0)
(3 1.99693e-11 0)
(3 -9.97352e-14 0)
(3 -1.8506e-15 0)
(3 8.59361e-17 0)
(3 2.34706e-16 0)
(3 -6.91668e-17 0)
(3 -6.34569e-16 0)
(3 -9.24497e-16 0)
(3 -1.64913e-15 0)
(3 -1.5005e-15 0)
(3 -2.37326e-15 0)
(3 -2.58928e-15 0)
(3 -2.72124e-15 0)
(3 8.98993e-16 0)
(3 2.93787e-15 0)
(1.58299 -1.32108 0)
(1.51201 -1.324 0)
(1.79682 -1.18195 0)
(2.45324 -0.532195 0)
(2.99999 0.000202173 0)
(3 -2.33572e-11 0)
(3 -1.63868e-14 0)
(3 3.04593e-14 0)
(3 -1.05554e-14 0)
(3 6.18368e-16 0)
(3 -7.67691e-17 0)
(3 -1.15547e-15 0)
(3 -1.07701e-15 0)
(3 -1.52442e-15 0)
(3 -1.20364e-15 0)
(3 -1.72291e-15 0)
(3 -2.15073e-15 0)
(3 5.50748e-16 0)
(3 1.63005e-15 0)
(3 3.00868e-15 0)
(1.58137 -1.29203 0)
(1.55044 -1.28406 0)
(1.65091 -1.24996 0)
(2.09378 -0.874087 0)
(3.00122 -0.000945225 0)
(3 -2.82176e-12 0)
(3 1.06426e-11 0)
(3 -1.06422e-11 0)
(3 2.4852e-12 0)
(3 -3.7857e-14 0)
(3 2.24321e-16 0)
(3 -1.76915e-16 0)
(3 -4.82146e-16 0)
(3 -1.77226e-15 0)
(3 -1.16533e-15 0)
(3 -1.06681e-15 0)
(3 -1.12832e-15 0)
(3 1.25462e-15 0)
(3 1.43938e-15 0)
(3 2.45987e-15 0)
(1.58464 -1.2782 0)
(1.58006 -1.27046 0)
(1.63263 -1.24782 0)
(1.80812 -1.12704 0)
(2.73059 -0.234295 0)
(3 5.87354e-10 0)
(3 -1.42985e-08 0)
(3 1.29322e-08 0)
(3 -5.65336e-10 0)
(3 -3.01567e-12 0)
(3 9.2855e-14 0)
(3 -4.23299e-16 0)
(3 -1.08821e-15 0)
(3 -1.61234e-15 0)
(3 -1.60634e-15 0)
(3 -1.89472e-15 0)
(3 -1.03565e-16 0)
(3 9.00159e-16 0)
(3 5.29186e-16 0)
(3 9.78164e-16 0)
(1.5879 -1.2673 0)
(1.60471 -1.26192 0)
(1.63345 -1.24493 0)
(1.75041 -1.19498 0)
(2.3733 -0.628868 0)
(3.02008 0.0187691 0)
(2.99974 -0.000187857 0)
(3 4.33375e-06 0)
(3 -8.56852e-08 0)
(3 8.99714e-10 0)
(3 -1.56973e-13 0)
(3 -3.19384e-16 0)
(3 -1.55186e-15 0)
(3 -1.24657e-15 0)
(3 -1.95625e-15 0)
(3 -3.34445e-15 0)
(3 -1.33902e-15 0)
(3 -6.93026e-16 0)
(3 -2.95222e-16 0)
(3 7.67151e-17 0)
(1.58764 -1.25581 0)
(1.61114 -1.25706 0)
(1.62914 -1.26117 0)
(1.62353 -1.28781 0)
(1.82737 -1.10289 0)
(2.71826 -0.239427 0)
(3.00577 0.00290486 0)
(2.99991 -8.68448e-05 0)
(3 7.97328e-07 0)
(3 -8.71407e-10 0)
(3 9.18019e-15 0)
(3 -2.04861e-15 0)
(3 -2.16033e-15 0)
(3 -1.80162e-15 0)
(3 -2.24618e-15 0)
(3 -3.98535e-15 0)
(3 -3.23287e-15 0)
(3 -1.42845e-15 0)
(3 -5.86449e-16 0)
(3 1.06687e-15 0)
(1.58571 -1.25415 0)
(1.60355 -1.25703 0)
(1.60614 -1.27028 0)
(1.5784 -1.30372 0)
(1.69706 -1.22992 0)
(2.17711 -0.831464 0)
(2.98196 -0.012963 0)
(3.0004 0.000813085 0)
(3 -5.95922e-07 0)
(3 -6.08291e-11 0)
(3 1.08411e-14 0)
(3 -3.51489e-15 0)
(3 -3.03887e-15 0)
(3 -2.56254e-15 0)
(3 -2.2168e-15 0)
(3 -2.92763e-15 0)
(3 -2.20808e-15 0)
(3 -8.25536e-16 0)
(3 -8.73227e-16 0)
(3 1.2329e-15 0)
(1.57786 -1.25164 0)
(1.58965 -1.26216 0)
(1.59189 -1.27796 0)
(1.58772 -1.28126 0)
(1.66487 -1.25327 0)
(1.74581 -1.23175 0)
(2.30732 -0.72713 0)
(3.00177 -0.00979544 0)
(3 -6.07048e-08 0)
(3 3.05804e-11 0)
(3 7.54698e-15 0)
(3 -2.90709e-15 0)
(3 -5.10669e-15 0)
(3 -4.54596e-15 0)
(3 -2.77087e-15 0)
(3 -1.82649e-15 0)
(3 -2.25821e-15 0)
(3 1.08614e-16 0)
(3 -1.53986e-16 0)
(3 1.42262e-15 0)
(1.57416 -1.25488 0)
(1.58031 -1.26172 0)
(1.58453 -1.26834 0)
(1.59402 -1.25963 0)
(1.6177 -1.24079 0)
(1.61078 -1.26362 0)
(1.91763 -1.15787 0)
(2.98775 -0.352324 0)
(3.32623 0.569308 0)
(3 -6.30282e-11 0)
(3 7.34911e-11 0)
(3 -7.8038e-11 0)
(3 -7.68012e-15 0)
(3 4.28144e-13 0)
(3 1.01668e-14 0)
(3 -1.79344e-14 0)
(3 7.73752e-15 0)
(3 -7.40905e-16 0)
(3 -2.22435e-15 0)
(3 1.65827e-15 0)
(1.16951 -0.744161 0)
(1.81415 -1.16446 0)
(1.84002 -1.14033 0)
(1.73598 -1.18675 0)
(1.71622 -1.19028 0)
(1.67214 -1.24044 0)
(1.66499 -1.21334 0)
(1.72979 -1.1649 0)
(1.7579 -1.22669 0)
(1.78224 -1.13916 0)
(2.25675 -0.747378 0)
(2.84681 -0.218588 0)
(3.09524 0.0246174 0)
(3.02087 0.0123542 0)
(3.00432 0.00522248 0)
(3.00183 0.00295287 0)
(3.00006 0.00059267 0)
(2.99998 2.50606e-05 0)
(2.99999 -1.43489e-05 0)
(3 -5.90776e-06 0)
(1.02697 -0.0184171 0)
(1.93524 -0.762137 0)
(2.08156 -0.898765 0)
(1.9921 -0.968779 0)
(1.97377 -0.971333 0)
(1.87913 -1.08059 0)
(1.79364 -1.1439 0)
(1.75998 -1.1477 0)
(1.75583 -1.16294 0)
(1.73092 -1.20321 0)
(1.70822 -1.19778 0)
(1.85826 -1.07417 0)
(2.10086 -0.888504 0)
(2.50966 -0.576696 0)
(2.99068 -0.133782 0)
(3.07398 0.0300113 0)
(3.00815 0.00773454 0)
(3.00293 0.00385535 0)
(3.00123 0.00220035 0)
(3.00008 0.000484895 0)
(1.08084 0.0726351 0)
(1.83183 0.124193 0)
(2.24002 -0.0627062 0)
(2.22685 -0.497135 0)
(2.19911 -0.683491 0)
(2.14111 -0.791585 0)
(2.05505 -0.898286 0)
(1.96805 -0.970981 0)
(1.90918 -1.03635 0)
(1.84348 -1.1266 0)
(1.78392 -1.15861 0)
(1.78837 -1.15282 0)
(1.81245 -1.13101 0)
(1.85503 -1.08634 0)
(2.04148 -0.950304 0)
(2.25683 -0.829842 0)
(2.66335 -0.505617 0)
(3.03695 -0.0920638 0)
(3.05533 0.0239007 0)
(3.00401 0.00465659 0)
(1.39471 0.494878 0)
(1.88425 0.737427 0)
(2.33068 0.287555 0)
(2.31004 0.0736819 0)
(2.34262 0.0571984 0)
(2.35357 -0.29388 0)
(2.28031 -0.568646 0)
(2.19029 -0.722781 0)
(2.13239 -0.792441 0)
(2.06874 -0.919277 0)
(1.96261 -1.02209 0)
(1.91125 -1.06855 0)
(1.88717 -1.07865 0)
(1.87274 -1.08585 0)
(1.87307 -1.05535 0)
(1.89566 -1.04884 0)
(1.96025 -1.02237 0)
(2.16314 -0.904586 0)
(2.38163 -0.793246 0)
(2.77959 -0.44114 0)
(1.52476 1.34248 0)
(1.53138 1.57143 0)
(2.36772 0.125383 0)
(2.3596 0.827871 0)
(2.45679 0.309339 0)
(2.45121 0.256611 0)
(2.42494 -0.0302241 0)
(2.38728 -0.213551 0)
(2.32583 -0.3895 0)
(2.30424 -0.536743 0)
(2.21398 -0.700719 0)
(2.14667 -0.811147 0)
(2.094 -0.877594 0)
(2.03314 -0.945388 0)
(1.98723 -0.969491 0)
(1.94837 -0.997272 0)
(1.95303 -1.02078 0)
(1.96865 -0.997828 0)
(1.99518 -0.995628 0)
(2.07231 -0.976549 0)
(1.14358 1.44967 0)
(1.6487 1.73042 0)
(2.01603 1.01244 0)
(2.32862 1.17407 0)
(2.56968 0.3366 0)
(2.48 0.669164 0)
(2.52278 0.434057 0)
(2.50394 0.103569 0)
(2.47472 -0.0233194 0)
(2.46093 -0.202509 0)
(2.41858 -0.390367 0)
(2.3464 -0.567796 0)
(2.29482 -0.679238 0)
(2.21232 -0.79476 0)
(2.15389 -0.844264 0)
(2.10789 -0.862689 0)
(2.06819 -0.899371 0)
(2.06858 -0.890477 0)
(2.04356 -0.91913 0)
(2.06057 -0.948559 0)
(1.13704 1.56868 0)
(1.71498 1.78511 0)
(2.02679 1.52189 0)
(2.11211 1.23633 0)
(2.22402 1.18468 0)
(2.46719 0.717927 0)
(2.60682 0.457059 0)
(2.61588 0.150203 0)
(2.60808 0.0753192 0)
(2.57309 -0.105795 0)
(2.54336 -0.248054 0)
(2.49219 -0.387362 0)
(2.45226 -0.474371 0)
(2.39593 -0.558723 0)
(2.34618 -0.59614 0)
(2.3131 -0.597274 0)
(2.27247 -0.622229 0)
(2.23729 -0.664161 0)
(2.16788 -0.756726 0)
(2.12984 -0.794853 0)
(1.31471 1.72746 0)
(1.62656 2.01439 0)
(1.84814 1.94574 0)
(2.096 1.40136 0)
(2.20837 1.48974 0)
(2.2901 1.00586 0)
(2.38488 1.06295 0)
(2.54506 0.791269 0)
(2.57413 0.448197 0)
(2.58887 0.403204 0)
(2.5928 0.210896 0)
(2.58789 0.083056 0)
(2.56653 -0.0353094 0)
(2.54575 -0.128245 0)
(2.48911 -0.256263 0)
(2.4804 -0.303166 0)
(2.41819 -0.427146 0)
(2.3573 -0.537417 0)
(2.29585 -0.606154 0)
(2.30098 -0.564188 0)
(1.53525 1.86075 0)
(1.64225 2.1929 0)
(1.68871 2.09585 0)
(1.84577 1.87922 0)
(2.02184 1.81713 0)
(2.23132 1.35545 0)
(2.21306 1.41706 0)
(2.34516 1.23601 0)
(2.43119 1.00523 0)
(2.46224 0.886536 0)
(2.53598 0.695027 0)
(2.57789 0.490711 0)
(2.60921 0.30057 0)
(2.63439 0.131156 0)
(2.58666 -0.0993835 0)
(2.57844 -0.20882 0)
(2.52121 -0.369112 0)
(2.48865 -0.343342 0)
(2.44059 -0.365349 0)
(2.4759 -0.278352 0)
(1.6005 1.86905 0)
(1.73542 2.23098 0)
(1.77117 2.14616 0)
(1.80017 2.0576 0)
(1.97386 1.89979 0)
(2.10779 1.59408 0)
(2.21825 1.50381 0)
(2.32029 1.35606 0)
(2.39869 1.24925 0)
(2.49387 1.01896 0)
(2.61981 0.82758 0)
(2.66943 0.552794 0)
(2.705 0.346 0)
(2.70637 0.155228 0)
(2.67551 -0.00705576 0)
(2.65358 -0.0524504 0)
(2.63063 -0.0931216 0)
(2.62181 0.00336844 0)
(2.55706 -0.0926973 0)
(2.58061 -0.0644111 0)
(1.54052 1.80312 0)
(1.81539 2.24444 0)
(2.05772 2.29019 0)
(1.99568 2.27704 0)
(2.11791 2.01654 0)
(2.19594 1.81588 0)
(2.39567 1.53878 0)
(2.48317 1.46542 0)
(2.65043 1.35989 0)
(2.71431 0.941564 0)
(2.76904 0.831338 0)
(2.77602 0.601689 0)
(2.76857 0.556233 0)
(2.7568 0.444366 0)
(2.73992 0.387457 0)
(2.70875 0.347603 0)
(2.68947 0.327445 0)
(2.69135 0.299052 0)
(2.64732 0.130128 0)
(2.61414 -0.0243899 0)
(1.40598 1.67534 0)
(1.79046 2.22143 0)
(2.12277 2.31762 0)
(2.17275 2.4331 0)
(2.35617 2.18658 0)
(2.45835 2.0082 0)
(2.58516 1.6023 0)
(2.65498 1.49002 0)
(2.69775 1.43 0)
(2.72946 1.2493 0)
(2.70785 1.27342 0)
(2.72169 1.07999 0)
(2.67979 1.00073 0)
(2.68908 0.903093 0)
(2.68822 0.776021 0)
(2.6981 0.669621 0)
(2.73291 0.572491 0)
(2.74375 0.391245 0)
(2.72888 0.207176 0)
(2.68126 0.10758 0)
(1.23307 1.47122 0)
(1.63049 2.09344 0)
(2.03413 2.32182 0)
(2.15374 2.42092 0)
(2.32598 2.26023 0)
(2.43944 2.09525 0)
(2.4375 1.79742 0)
(2.3797 1.71984 0)
(2.40018 1.7091 0)
(2.42219 1.65357 0)
(2.46932 1.50861 0)
(2.53679 1.38816 0)
(2.56464 1.20557 0)
(2.64862 1.12595 0)
(2.68407 0.93066 0)
(2.75083 0.788462 0)
(2.79039 0.624785 0)
(2.8086 0.404011 0)
(2.76052 0.389034 0)
(2.71471 0.377605 0)
(1.22446 1.34583 0)
(1.48521 1.88672 0)
(1.75347 2.22385 0)
(1.95787 2.38715 0)
(2.06231 2.36797 0)
(2.15547 2.23341 0)
(2.15318 2.00007 0)