/*--------------------------------*- C++ -*----------------------------------*\
  =========                 |
  \\      /  F ield         | OpenFOAM: The Open Source CFD Toolbox
   \\    /   O peration     | Website:  https://openfoam.org
    \\  /    A nd           | Version:  7
     \\/     M anipulation  |
\*---------------------------------------------------------------------------*/
FoamFile
{
    version     2.0;
    format      ascii;
    class       volScalarField;
    location    "4.7";
    object      p;
}
// * * * * * * * * * * * * * * * * * * * * * * * * * * * * * * * * * * * * * //

dimensions      [1 -1 -2 0 0 0 0];

internalField   nonuniform List<scalar> 
3700
(
0.136294
0.215857
0.254416
0.268666
0.280237
0.30793
0.338973
0.362856
0.400211
0.427514
0.443768
0.460475
0.476215
0.491429
0.504114
0.520263
0.532639
0.537889
0.535529
0.51243
0.111509
0.0906027
0.0953664
0.0858265
0.0835419
0.0925749
0.109077
0.122974
0.120713
0.111942
0.108584
0.115569
0.132493
0.159721
0.188718
0.213852
0.239441
0.261706
0.26776
0.236511
0.13156
0.0929335
0.0790305
0.0677219
0.060916
0.0589852
0.0576697
0.0625193
0.066388
0.066762
0.0652936
0.0669912
0.0705826
0.0788983
0.0898932
0.10233
0.114613
0.124256
0.132136
0.135136
0.141039
0.0923388
0.0689008
0.0554926
0.052516
0.0572091
0.0614162
0.078929
0.0927236
0.100808
0.099573
0.101439
0.101576
0.102767
0.107526
0.118787
0.132294
0.14964
0.16939
0.192659
0.137986
0.0834126
0.0537221
0.0456985
0.0462367
0.0512271
0.0592303
0.0806448
0.099151
0.115109
0.129518
0.137254
0.144896
0.14724
0.147187
0.143919
0.145867
0.161011
0.188267
0.234455
0.122378
0.0706454
0.044912
0.0415283
0.0446555
0.0496668
0.0572041
0.0764901
0.0953447
0.117682
0.142681
0.15808
0.178363
0.195887
0.210913
0.213497
0.214537
0.218511
0.22922
0.278652
0.0947867
0.0610274
0.0408341
0.0401069
0.0462552
0.0548345
0.0682746
0.0826459
0.0953354
0.114239
0.14338
0.165987
0.19877
0.229688
0.256329
0.284179
0.305165
0.326273
0.335457
0.381912
0.0762767
0.0519052
0.037902
0.0389502
0.0532238
0.0762691
0.0995918
0.1191
0.129872
0.141671
0.151595
0.173267
0.213139
0.255193
0.295561
0.342758
0.389494
0.438109
0.469785
0.544777
0.0611363
0.0429463
0.0346077
0.0377996
0.0556891
0.0891035
0.11972
0.152717
0.185323
0.215692
0.232652
0.255643
0.278615
0.315412
0.3557
0.408066
0.474886
0.554953
0.620338
0.74981
0.0455698
0.0357238
0.0326442
0.0374764
0.0544344
0.0910551
0.121257
0.158922
0.216381
0.27668
0.325801
0.373287
0.423878
0.475198
0.511532
0.557223
0.61457
0.705084
0.818104
0.969777
0.032747
0.0279503
0.0313919
0.0383125
0.0537264
0.088797
0.114045
0.14834
0.218114
0.307535
0.391517
0.472086
0.565434
0.641408
0.718581
0.796324
0.872675
0.951604
1.13902
1.13518
0.024745
0.0220336
0.0250338
0.0375415
0.0583656
0.10966
0.136901
0.176202
0.25126
0.353619
0.476737
0.593923
0.72325
0.831022
0.958729
1.09306
1.22339
1.33336
1.53514
1.48732
0.0203472
0.0180513
0.0190328
0.0380668
0.091711
0.18299
0.253334
0.36437
0.509414
0.64842
0.779613
0.897225
1.02012
1.13752
1.28859
1.48273
1.67871
1.85779
2.09728
2.07783
0.0175954
0.0158115
0.0167836
0.0603474
0.170818
0.288293
0.421708
0.600508
0.810808
1.02851
1.19892
1.3574
1.51375
1.67161
1.87096
2.10218
2.34073
2.58645
2.80062
2.99002
0.0151013
0.0154205
0.0293049
0.11549
0.255945
0.385589
0.593838
0.850488
1.15462
1.46368
1.70644
1.93703
2.16101
2.40369
2.70979
3.00169
3.27661
3.52574
3.66617
3.77788
0.0118253
0.0231874
0.0740017
0.187189
0.364688
0.624032
0.984282
1.40084
1.8822
2.27442
2.5698
2.84267
3.1159
3.42371
3.75451
3.96208
4.08743
4.13117
4.03756
3.91054
0.0100106
0.0403543
0.157397
0.359865
0.793973
1.43808
2.02287
2.60693
3.1954
3.57127
3.79291
4.0239
4.23259
4.40242
4.49047
4.41453
4.19373
3.65243
2.78756
1.8859
0.0252945
0.129304
0.485674
1.19773
2.1296
2.89409
3.54401
4.24279
4.77174
4.81063
4.72213
4.73507
4.6989
4.53991
4.04141
3.08763
2.10457
1.33591
1.01846
0.992909
0.314674
0.897761
2.0232
3.21905
4.24148
4.85192
5.39372
5.8591
5.7206
5.27803
4.84708
4.30593
3.39059
2.32778
1.42789
1.02993
0.989281
0.994896
0.997316
0.999444
2.32476
3.64403
4.90372
5.73378
6.30343
6.40887
6.54342
6.23372
4.5536
3.21902
2.37357
1.56413
1.08048
0.987438
0.992839
0.996237
0.999141
0.999972
1.00002
1.00001
6.98077
6.93669
6.89481
6.95467
7.06922
6.75101
5.99319
2.29745
0.646193
1
1
1
1
1
1
1
1
1
1
1
6.91265
6.87631
6.77282
6.68885
6.91815
5.77125
2.58082
1.01315
1
1
1
1
1
1
1
1
1
1
1
1
6.77675
6.84427
6.75192
6.55417
6.28868
3.39858
1.04284
0.99927
1
1
1
1
1
1
1
1
1
1
1
1
6.6613
6.84283
6.86254
6.49794
4.71664
1.50557
0.993079
1.00011
0.999999
1
1
1
1
1
1
1
1
1
1
1
6.51129
6.8263
6.86922
6.34409
2.69304
0.974829
1.00037
0.999994
1
1
1
1
1
1
1
1
1
1
1
1
6.40168
6.72852
6.75724
4.88131
1.3779
1
1
1
1
1
1
1
1
1
1
1
1
1
1
1
6.36755
6.67051
6.57624
3.56334
0.993464
1
1
1
1
1
1
1
1
1
1
1
1
1
1
1
6.48756
6.70015
6.14859
2.06177
0.999985
1
1
1
1
1
1
1
1
1
1
1
1
1
1
1
6.95539
6.67556
4.89698
1.1941
1
1
1
1
1
1
1
1
1
1
1
1
1
1
1
1
7.26056
6.36596
3.49069
0.987503
1
1
1
1
1
1
1
1
1
1
1
1
1
1
1
1
7.4627
6.03928
2.26923
1
1
1
1
1
1
1
1
1
1
1
1
1
1
1
1
1
7.51404
5.37521
1.59618
1
1
1
1
1
1
1
1
1
1
1
1
1
1
1
1
1
7.55504
4.72452
1.1607
1
1
1
1
1
1
1
1
1
1
1
1
1
1
1
1
1
7.37161
3.98962
1.00369
1
1
1
1
1
1
1
1
1
1
1
1
1
1
1
1
1
7.15206
3.25404
1
1
1
1
1
1
1
1
1
1
1
1
1
1
1
1
1
1
6.96059
2.56407
1
1
1
1
1
1
1
1
1
1
1
1
1
1
1
1
1
1
6.74023
1.85111
1
1
1
1
1
1
1
1
1
1
1
1
1
1
1
1
1
1
6.25499
1.32286
1
1
1
1
1
1
1
1
1
1
1
1
1
1
1
1
1
1
5.73706
1.00431
1
1
1
1
1
1
1
1
1
1
1
1
1
1
1
1
1
1
4.66093
1.00021
1
1
1
1
1
1
1
1
1
1
1
1
1
1
1
1
1
1
4.65959
1.0002
1
1
1
1
1
1
1
1
1
1
1
1
1
1
1
1
1
1
5.73945
1.00434
1
1
1
1
1
1
1
1
1
1
1
1
1
1
1
1
1
1
6.25572
1.32379
1
1
1
1
1
1
1
1
1
1
1
1
1
1
1
1
1
1
6.7351
1.85
1
1
1
1
1
1
1
1
1
1
1
1
1
1
1
1
1
1
6.9671
2.55968
1
1
1
1
1
1
1
1
1
1
1
1
1
1
1
1
1
1
7.14501
3.25998
1
1
1
1
1
1
1
1
1
1
1
1
1
1
1
1
1
1
7.37662
3.9915
1.00071
1
1
1
1
1
1
1
1
1
1
1
1
1
1
1
1
1
7.55958
4.71731
1.1619
1
1
1
1
1
1
1
1
1
1
1
1
1
1
1
1
1
7.51525
5.36854
1.59145
1
1
1
1
1
1
1
1
1
1
1
1
1
1
1
1
1
7.46532
6.04059
2.2601
1
1
1
1
1
1
1
1
1
1
1
1
1
1
1
1
1
7.26594
6.3702
3.48823
0.987487
1
1
1
1
1
1
1
1
1
1
1
1
1
1
1
1
6.95975
6.6803
4.89874
1.19653
1
1
1
1
1
1
1
1
1
1
1
1
1
1
1
1
6.48677
6.70489
6.15499
2.06358
0.999982
1
1
1
1
1
1
1
1
1
1
1
1
1
1
1
6.36092
6.66688
6.5717
3.57147
0.995624
1
1
1
1
1
1
1
1
1
1
1
1
1
1
1
6.39387
6.7213
6.74705
4.87553
1.37681
1
1
1
1
1
1
1
1
1
1
1
1
1
1
1
6.50721
6.82583
6.86652
6.34059
2.68454
0.974933
1.00037
0.999994
1
1
1
1
1
1
1
1
1
1
1
1
6.66374
6.84204
6.86191
6.50918
4.72399
1.50725
0.992922
1.00011
0.999999
1
1
1
1
1
1
1
1
1
1
1
6.78107
6.84449
6.75335
6.55641
6.2922
3.40879
1.04597
0.999217
1
1
1
1
1
1
1
1
1
1
1
1
6.91164
6.8772
6.77182
6.68429
6.91547
5.77931
2.58064
1.01261
1
1
1
1
1
1
1
1
1
1
1
1
6.98323
6.93959
6.8935
6.94863
7.06898
6.75666
5.98837
2.29243
0.6468
1
1
1
1
1
1
1
1
1
1
1
2.32868
3.65322
4.92584
5.75378
6.31504
6.41062
6.53643
6.22591
4.54543
3.21475
2.37247
1.56494
1.08111
0.987487
0.992849
0.996241
0.999141
0.999972
1.00002
1.00001
0.300967
0.857103
1.96769
3.17893
4.24469
4.8749
5.41559
5.86689
5.72416
5.2764
4.8444
4.30354
3.38928
2.32765
1.42827
1.03002
0.989269
0.994891
0.997315
0.999444
0.0454724
0.169164
0.500813
1.20435
2.11957
2.88351
3.54108
4.24149
4.7806
4.81061
4.71996
4.73206
4.6959
4.537
4.0394
3.08751
2.10582
1.33674
1.01858
0.99292
0.00922479
0.0583954
0.169063
0.326809
0.775185
1.4401
2.03186
2.61813
3.20472
3.57684
3.79464
4.02305
4.23026
4.39971
4.48981
4.41449
4.1949
3.65417
2.78839
1.88538
0.00816311
0.0263806
0.0819475
0.186783
0.340832
0.610023
0.984144
1.40707
1.8916
2.28346
2.57687
2.8478
3.11897
3.42369
3.75343
3.96106
4.08713
4.1318
4.03831
3.91117
0.010879
0.0152198
0.040848
0.135422
0.23977
0.35816
0.567911
0.82903
1.13794
1.45047
1.69949
1.93343
2.15804
2.39993
2.70584
2.99849
3.27524
3.52688
3.66883
3.78007
0.0178743
0.0152351
0.020364
0.0802375
0.173405
0.286325
0.414067
0.589548
0.800227
1.02238
1.19509
1.35613
1.51285
1.67108
1.87072
2.10189
2.33978
2.58625
2.80107
2.98956
0.0245318
0.0169004
0.0171083
0.0442555
0.109856
0.199853
0.266109
0.378182
0.522209
0.661417
0.78961
0.904519
1.02443
1.13926
1.28664
1.47957
1.6768
1.85755
2.09871
2.07973
0.0298787
0.019898
0.0190218
0.0368004
0.0735029
0.122141
0.145734
0.187923
0.263779
0.359374
0.477799
0.592393
0.720563
0.828687
0.956823
1.09347
1.22572
1.33629
1.53693
1.4874
0.037233
0.0257187
0.0235096
0.0388146
0.0625244
0.0881576
0.113495
0.143854
0.210887
0.300662
0.385703
0.467289
0.56321
0.640499
0.719915
0.798508
0.875743
0.953249
1.13723
1.1338
0.0480306
0.033188
0.0294551
0.0401332
0.0610782
0.088595
0.120896
0.153544
0.210616
0.272121
0.323612
0.37287
0.426041
0.47823
0.514607
0.559405
0.613471
0.70126
0.813504
0.968822
0.0630948
0.0423039
0.0346066
0.0416943
0.058944
0.0871843
0.120585
0.149365
0.183838
0.216386
0.236447
0.261014
0.282695
0.316915
0.353867
0.40372
0.468824
0.55092
0.61852
0.750381
0.0820202
0.0534842
0.0390624
0.0448169
0.0538045
0.075348
0.102029
0.118804
0.13089
0.145122
0.152301
0.170226
0.207597
0.250306
0.291183
0.339126
0.387313
0.437234
0.471948
0.547098
0.101973
0.0635062
0.0422999
0.0435534
0.046037
0.0533104
0.0689389
0.0818468
0.0934801
0.109831
0.136556
0.161246
0.195628
0.227671
0.255128
0.284563
0.307422
0.330563
0.340303
0.384847
0.120889
0.0702748
0.0450449
0.042868
0.0434205
0.0470976
0.0563562
0.0741084
0.0911645
0.111432
0.139193
0.156682
0.178627
0.197231
0.213067
0.217972
0.219859
0.224164
0.233381
0.278461
0.134958
0.0758696
0.0494103
0.0445297
0.0444557
0.0479738
0.0577318
0.0779337
0.0955593
0.11311
0.130989
0.139628
0.148424
0.151347
0.151721
0.147593
0.148739
0.160719
0.186454
0.232055
0.141962
0.0857148
0.0598251
0.0510328
0.0497444
0.0547856
0.061554
0.0781723
0.0925522
0.103988
0.104054
0.105532
0.105387
0.10575
0.108437
0.118286
0.131362
0.148164
0.167353
0.191072
0.139965
0.0924712
0.0736112
0.0630576
0.0593237
0.0614013
0.0601934
0.0659364
0.0710032
0.0709719
0.0667511
0.067923
0.0694907
0.076308
0.0875111
0.100353
0.1129
0.122661
0.130985
0.134454
0.131159
0.105127
0.110455
0.122939
0.139565
0.141209
0.140682
0.156675
0.185493
0.20289
0.206802
0.198403
0.17925
0.164653
0.157875
0.159523
0.164057
0.173952
0.191652
0.202715
0.173596
0.233807
0.261797
0.313409
0.357592
0.363269
0.361884
0.386833
0.43851
0.468056
0.481245
0.480182
0.477509
0.474827
0.46913
0.478111
0.490633
0.515617
0.530278
0.530008
0.53898
0.641041
0.719084
0.801407
0.8021
0.828224
0.856726
0.89794
0.907376
0.914239
0.911016
0.914107
0.932711
0.964294
0.969615
0.95486
0.939509
0.941459
0.958128
0.962754
0.265167
0.404675
0.539809
0.680375
0.746704
0.810483
0.844874
0.887225
0.911956
0.918458
0.917686
0.917256
0.922508
0.941699
0.954439
0.956315
0.955838
0.957512
0.961136
0.9575
0.136923
0.158733
0.231417
0.337945
0.535191
0.687617
0.766636
0.845334
0.899754
0.923998
0.926938
0.926744
0.923302
0.925618
0.937161
0.953058
0.962794
0.967654
0.966918
0.959169
0.192974
0.210729
0.239304
0.242322
0.262219
0.343277
0.534638
0.714419
0.832399
0.894554
0.938786
0.930905
0.920518
0.914376
0.923435
0.946808
0.966553
0.969708
0.966823
0.955693
0.243228
0.256545
0.27241
0.295604
0.298421
0.289273
0.306189
0.392464
0.589037
0.786363
0.898442
0.919505
0.928563
0.917442
0.917717
0.943657
0.966012
0.965811
0.959748
0.952425
0.310761
0.320287
0.339573
0.348988
0.34352
0.335386
0.332709
0.326765
0.352854
0.485557
0.704833
0.881338
0.924696
0.929166
0.921199
0.94322
0.961898
0.957896
0.951314
0.952955
0.393304
0.399239
0.392728
0.393306
0.394745
0.388079
0.374585
0.366372
0.357318
0.367047
0.44523
0.654204
0.864295
0.93362
0.930691
0.950273
0.950804
0.942722
0.947471
0.956167
0.525745
0.495649
0.458006
0.438636
0.441794
0.437557
0.416347
0.404722
0.394669
0.381039
0.384994
0.436402
0.622176
0.858189
0.934846
0.959077
0.942703
0.936485
0.95366
0.960881
0.685117
0.612847
0.533378
0.483485
0.489727
0.492949
0.474027
0.45616
0.429318
0.412393
0.397266
0.400574
0.438625
0.622649
0.859868
0.950026
0.920547
0.931124
0.96362
0.96278
0.873609
0.768356
0.635237
0.558302
0.545485
0.545385
0.52789
0.503052
0.47163
0.429667
0.426941
0.416164
0.42215
0.459981
0.625222
0.837732
0.879002
0.933589
0.970375
0.961259
1.25668
0.992514
0.816357
0.650172
0.586698
0.59361
0.609041
0.600448
0.570688
0.514739
0.470025
0.464846
0.459469
0.460742
0.479191
0.566495
0.74352
0.882859
0.943991
0.952212
2.03045
1.47489
1.22298
0.994312
0.770054
0.720283
0.705106
0.688645
0.642805
0.591735
0.557834
0.544564
0.5288
0.508864
0.480363
0.484822
0.525458
0.636366
0.79407
0.911178
2.5112
2.15947
1.71245
1.37718
1.11363
0.923075
0.787007
0.750945
0.712849
0.665329
0.658766
0.648043
0.621444
0.584703
0.546439
0.519719
0.524939
0.534442
0.576983
0.745619
2.36591
2.34965
2.22866
1.91838
1.57733
1.2983
1.05892
0.942061
0.883847
0.813845
0.756715
0.70782
0.669442
0.629353
0.600463
0.578612
0.563801
0.552354
0.548165
0.583531
1.68026
2.14408
2.22096
2.19626
2.06378
1.78562
1.49264
1.2309
1.07848
0.968496
0.86284
0.776198
0.740384
0.720635
0.707832
0.681707
0.648587
0.621805
0.581463
0.578614
1.10883
1.43789
1.85062
2.1158
2.11505
2.07374
1.93552
1.68302
1.42591
1.24015
1.08309
0.971703
0.90278
0.853048
0.811323
0.746625
0.691049
0.655106
0.632759
0.605025
1.00452
1.04481
1.20658
1.54953
1.86125
2.0205
2.01567
1.97178
1.83316
1.62205
1.40303
1.22452
1.07684
0.958495
0.893607
0.828015
0.765469
0.736078
0.732898
0.702697
1.00009
1.00114
1.01046
1.07898
1.26855
1.57217
1.82378
1.93291
1.9268
1.8864
1.76981
1.58269
1.38847
1.21139
1.08297
1.01512
0.936566
0.875352
0.83123
0.763238
1
1.00001
1.00015
1.00249
1.0192
1.09888
1.29131
1.55663
1.76803
1.85774
1.85267
1.81474
1.71744
1.55963
1.37242
1.22334
1.1059
0.997046
0.917766
0.831211
1
1
1
1.00003
1.00033
1.00379
1.02457
1.10986
1.28594
1.52257
1.70375
1.78772
1.78367
1.7573
1.67616
1.53498
1.3829
1.23095
1.12091
0.996447
1
1
1
1
1
1.00005
1.00049
1.00481
1.02668
1.10471
1.26492
1.47649
1.6371
1.72602
1.72314
1.70278
1.64353
1.52782
1.39483
1.19521
1
1
1
1
1
1
1
1.00006
1.00058
1.00471
1.02534
1.09536
1.23236
1.42552
1.57188
1.6659
1.66514
1.65301
1.61592
1.46349
1
1
1
1
1
1
1
1
1.00001
1.00006
1.00058
1.00425
1.0222
1.07902
1.19866
1.37056
1.51169
1.60354
1.6136
1.59079
1
1
1
1
1
1
1
1
1
1
1.00001
1.00006
1.00053
1.00325
1.01823
1.06388
1.16378
1.31409
1.4452
1.55005
1
1
1
1
1
1
1
1
1
1
1
1
1.00001
1.00004
1.00042
1.00257
1.01404
1.05133
1.13666
1.38858
1.62289
2.46304
2.58619
2.08761
1.3102
1.03683
1.00186
1.00005
1
1
1
1
1
1
1
2.33943
2.81417
2.52833
1.54105
1.04814
1.00081
1
1
1
1
1
1
1
1
1
2.92675
2.86831
1.9807
1.15263
1.00521
1.00005
1
1
1
1
1
1
1
1
1
3.24614
2.55289
1.36443
1.01927
1.00018
1
1
1
1
1
1
1
1
1
1
3.31519
1.68286
1.04733
1.00052
1
1
1
1
1
1
1
1
1
1
1
2.06728
1.07311
1.00047
0.999999
1
1
1
1
1
1
1
1
1
1
1
1.1017
1.00057
0.999997
1
1
1
1
1
1
1
1
1
1
1
1
0.998143
0.999865
0.999996
1
1
1
1
1
1
1
1
1
1
1
1
0.999967
1
1
1
1
1
1
1
1
1
1
1
1
1
1
1
1
1
1
1
1
1
1
1
1
1
1
1
1
1
1
1
1
1
1
1
1
1
1
1
1
1
1
1
1
1
1
1
1
1
1
1
1
1
1
1
1
1
1
1
1
1
1
1
1
1
1
1
1
1
1
1
1
1
1
1
1
1
1
1
1
1
1
1
1
1
1
1
1
1
1
1
1
1
1
1
1
1
1
1
1
1
1
1
1
1
1
1
1
1
1
1
1
1
1
1
1
1
1
1
1
1
1
1
1
1
1
1
1
1
1
1
1
1
1
1
1
1
1
1
1
1
1
1
1
1
1
1
1
1
1
1
1
1
1
1
1
1
1
1
1
1
1
1
1
1
1
1
1
1
1
1
1
1
1
1
1
1
1
1
1
1
1
1
1
1
1
1
1
1
1
1
1
1
1
1
1
1
1
1
1
1
1
1
1
1
1
1
1
1
1
1
1
1
1
1
1
1
1
1
1
1
1
1
1
1
1
1
1
1
1
1
1
1
1
1
1
1
1
1
1
1
1
1
1
1
1
1
1
1
1
1
1
1
1
1
1
1
1
1
1
1
1
1
1
1
1
1
1
1
1
1
1
1
1
1
1
1
1
1
1
1
1
1
1
1
1
1
1
1
1
1
1
1
1
1
1
1
1
1
1
1
1
1
1
1
1
1
1
1
1
1
1
1
1
1
1
1
1
1
1
1
1
1
1
1
1
1
1
1
1
1
1
1
1
1
1
1
1
1
1
1
1
1
1
1
1
1
1
1
1
1
1
1
1
1
1
1
1
1
1
1
1
1
1
1
1
1
1
1
1
1
1
1
1
1
1
1
1
1
1
1
1
1
1
1
1
1
1
1
1
1
1
1
1
1
1
1
1
1
1
1
1
1
1
1
1
1
1
1
1
1
1
1
1
1
1
1
1
1
1
1
1
1
1
1
1
1
1
1
1
1
1
1
1
1
1
1
1
1
1
1
1
1
1
1
1
1
1
1
1
1
1
1
1
1
1
1
1
1
1
1
1
1
1
1
1
1
1
1
1
1
1
1
1
1
1
1
1
1
1
1
1
1
1
1
1
1
1
1
1
1
1
1
1
1
1
1
1
1
1
1
1
1
1
1
1
1
1
1
1
1
1
1
1
1
1
1
1
1
1
1
1
1
1
1
1
1
1
1
1
1
1
1
1
1
1
1
1
1
1
1
1
1
1
1
1
1
1
1
1
1
1
1
1
1
1
1
1
1
1
1
1
1
1
1
1
1
1
1
1
1
1
1
1
1
1
1
1
1
1
1
1
1
1
1
1
1
1
1
1
1
1
1
1
1
1
1
1
1
1
1
1
1
1
1
1
1
1
1
1
1
1
1
1
1
1
1
1
1
1
1
1
1
1
1
1
1
1
1
1
1
1
1
1
1
1
1
1
1
1
1
1
1
1
1
1
1
1
1
1
1
1
1
1
1
1
1
1
1
1
1
1
1
1
1
1
1
1
1
1
1
1
1
1
1
1
1
1
1
1
1
1
1
1
1
1
1
1
1
1
1
1
1
1
1
1
1
1
1
1
1
1
1
1
1
1
1
1
1
1
1
1
1
1
1
1
1
1
1
1
1
1
1
1
1
1
1
1
1
1
1
1
1
1
1
1
1
1
1
1
1
1
1
1
1
1
1
1
1
1
1
1
1
1
1
1
1
1
1
1
1
1
1
1
1
1
1
1
1
1
1
1
1
1
1
1
1
1
1
1
1
1
1
1
1
1
1
1
1
1
1
1
1
1
1
1
1
1
1
1
1
1
1
1
1
1
1
1
1
1
1
1
1
1
1
1
1
1
1
1
1
1
1
1
1
1
1
1
1
1
1
1
1
1
1
1
1
1
1
1
1
1
1
1
0.999967
1
1
1
1
1
1
1
1
1
1
1
1
1
1
0.998145
0.999865
0.999996
1
1
1
1
1
1
1
1
1
1
1
1
1.10152
1.00057
0.999997
1
1
1
1
1
1
1
1
1
1
1
1
2.06746
1.07313
1.00047
0.999999
1
1
1
1
1
1
1
1
1
1
1
3.31635
1.68299
1.04745
1.00053
1
1
1
1
1
1
1
1
1
1
1
3.2467
2.55319
1.36419
1.01923
1.00018
1
1
1
1
1
1
1
1
1
1
2.927
2.86858
1.98144
1.15271
1.00521
1.00005
1
1
1
1
1
1
1
1
1
2.33834
2.81451
2.5288
1.54173
1.04826
1.00081
1
1
1
1
1
1
1
1
1
1.62411
2.46294
2.58618
2.08789
1.31045
1.03687
1.00187
1.00005
1
1
1
1
1
1
1
1.24824
2.0332
2.51142
2.3665
1.68025
1.1088
1.00452
1.00009
1
1
1
1
1
1
1
0.993652
1.45979
2.1613
2.34979
2.14545
1.43806
1.04477
1.00114
1.00001
1
1
1
1
1
1
0.835066
1.21934
1.7089
2.22829
2.22073
1.8508
1.20655
1.01045
1.00015
1
1
1
1
1
1
0.661548
1.01392
1.37629
1.91697
2.19495
2.11536
1.54959
1.079
1.00249
1.00003
1
1
1
1
1
0.584062
0.785323
1.10786
1.5769
2.06285
2.11474
1.86106
1.26856
1.01919
1.00033
1
1
1
1
1
0.588551
0.727583
0.915768
1.29062
1.78735
2.07347
2.02063
1.57215
1.09887
1.00379
1.00005
1
1
1
1
0.6031
0.709926
0.797482
1.03923
1.48989
1.93677
2.01611
1.82406
1.29121
1.02455
1.00049
1
1
1
1
0.590139
0.678508
0.762666
0.949596
1.22863
1.68523
1.97238
1.93339
1.55671
1.10979
1.0048
1.00006
1
1
1
0.559713
0.621184
0.716361
0.902745
1.07929
1.42578
1.83331
1.92719
1.76821
1.28598
1.02668
1.00059
1.00001
1
1
0.517174
0.576164
0.663216
0.828597
0.967807
1.23667
1.62308
1.88674
1.85796
1.52271
1.10476
1.00471
1.00006
1
1
0.481524
0.545128
0.652568
0.759857
0.861209
1.08455
1.404
1.77058
1.85293
1.70397
1.26504
1.02535
1.00058
1.00001
1
0.475372
0.540681
0.641802
0.704848
0.772945
0.976082
1.22487
1.58357
1.81503
1.78793
1.47664
1.09538
1.00425
1.00006
1
0.469526
0.529746
0.616083
0.666098
0.744298
0.908723
1.0764
1.38885
1.7174
1.78381
1.63722
1.2324
1.02221
1.00053
1.00001
0.473814
0.510788
0.58026
0.626418
0.723926
0.857114
0.956598
1.21181
1.55973
1.75736
1.72608
1.42554
1.07902
1.00325
1.00004
0.486884
0.482578
0.545527
0.597786
0.706264
0.812501
0.891277
1.08213
1.37254
1.67631
1.72317
1.57185
1.19863
1.01823
1.00042
0.567316
0.487887
0.521927
0.576744
0.677783
0.745559
0.826286
1.0139
1.22287
1.53515
1.70278
1.66585
1.3705
1.06385
1.00257
0.741998
0.528543
0.527747
0.561739
0.645387
0.690635
0.765219
0.936235
1.10598
1.3828
1.64338
1.66506
1.51162
1.16377
1.01404
0.881558
0.636884
0.536106
0.551954
0.619958
0.655568
0.736449
0.875622
0.997615
1.23073
1.52757
1.65291
1.60343
1.31406
1.05134
0.943074
0.791034
0.575491
0.547793
0.580768
0.633759
0.733208
0.831292
0.917958
1.12062
1.39467
1.61585
1.61357
1.44519
1.13667
0.951552
0.909467
0.743417
0.582935
0.577896
0.605697
0.703043
0.762957
0.831204
0.9962
1.19517
1.46349
1.59079
1.55005
1.38858
0.878128
0.771286
0.638134
0.54583
0.532574
0.542703
0.536557
0.510214
0.480744
0.443161
0.43575
0.431264
0.433191
0.462821
0.629952
0.845321
0.878375
0.930839
0.970413
0.960915
0.690079
0.615758
0.522224
0.466234
0.476469
0.490816
0.482147
0.463095
0.435911
0.417465
0.411845
0.410938
0.447418
0.63028
0.85735
0.940039
0.914062
0.926137
0.96348
0.962649
0.52684
0.496024
0.43959
0.427009
0.433646
0.435777
0.419981
0.404433
0.39337
0.381483
0.387327
0.445889
0.637941
0.869378
0.912492
0.944955
0.933197
0.934006
0.952521
0.960927
0.396841
0.393022
0.382272
0.387487
0.395473
0.389529
0.374838
0.362866
0.354344
0.364201
0.45265
0.669315
0.8759
0.921218
0.915961
0.938723
0.948986
0.94339
0.949435
0.957252
0.310209
0.318702
0.334183
0.346761
0.343789
0.335602
0.332945
0.325368
0.347584
0.478375
0.708204
0.879212
0.915653
0.914166
0.916079
0.946172
0.968188
0.963961
0.954845
0.95439
0.242677
0.255804
0.27005
0.296978
0.302757
0.292652
0.309679
0.392169
0.578134
0.780656
0.898071
0.916013
0.917523
0.909083
0.92041
0.950895
0.973208
0.970814
0.961576
0.953163
0.192325
0.210337
0.240669
0.245209
0.261567
0.341081
0.536953
0.713512
0.827021
0.89737
0.939009
0.929304
0.920481
0.920333
0.931269
0.953322
0.969601
0.971785
0.966494
0.954577
0.136969
0.158164
0.226881
0.332713
0.52745
0.690313
0.763487
0.835607
0.895226
0.927853
0.926726
0.926892
0.928414
0.936279
0.947743
0.959195
0.966569
0.968862
0.964658
0.954871
0.314536
0.42349
0.546525
0.681725
0.751688
0.813901
0.84197
0.875437
0.90708
0.916115
0.91713
0.921765
0.933945
0.955607
0.964426
0.959444
0.954137
0.95367
0.956517
0.957026
0.563756
0.638034
0.717852
0.801572
0.806125
0.834689
0.855821
0.886335
0.913437
0.90222
0.898029
0.908582
0.936623
0.967871
0.966797
0.94584
0.933218
0.938996
0.957347
0.963524
)
;

boundaryField
{
    inlet
    {
        type            fixedValue;
        value           uniform 1;
    }
    outlet
    {
        type            zeroGradient;
    }
    airfoil
    {
        type            zeroGradient;
    }
    top
    {
        type            symmetryPlane;
    }
    bottom
    {
        type            symmetryPlane;
    }
    defaultFaces
    {
        type            empty;
    }
}


// ************************************************************************* //
