/*--------------------------------*- C++ -*----------------------------------*\
  =========                 |
  \\      /  F ield         | OpenFOAM: The Open Source CFD Toolbox
   \\    /   O peration     | Website:  https://openfoam.org
    \\  /    A nd           | Version:  7
     \\/     M anipulation  |
\*---------------------------------------------------------------------------*/
FoamFile
{
    version     2.0;
    format      ascii;
    class       volScalarField;
    location    "4.7";
    object      rho;
}
// * * * * * * * * * * * * * * * * * * * * * * * * * * * * * * * * * * * * * //

dimensions      [1 -3 0 0 0 0 0];

internalField   nonuniform List<scalar> 
3700
(
0.189686
0.299814
0.353374
0.373336
0.389454
0.427621
0.470193
0.502817
0.554263
0.592081
0.614655
0.637824
0.65947
0.680262
0.697781
0.720153
0.737309
0.744614
0.741422
0.709712
0.155726
0.126612
0.133232
0.119994
0.116804
0.129256
0.151983
0.171249
0.16818
0.156084
0.151486
0.161204
0.184666
0.222426
0.262703
0.297647
0.333189
0.364122
0.372555
0.32934
0.183595
0.129853
0.110508
0.0947403
0.0852462
0.082568
0.0807484
0.0875417
0.0929688
0.0935175
0.0914835
0.0938636
0.098884
0.110502
0.125861
0.143232
0.160401
0.173879
0.184893
0.189105
0.196748
0.129012
0.0963659
0.0776681
0.0735146
0.0800783
0.0859658
0.110429
0.129717
0.141039
0.139349
0.141994
0.142224
0.143912
0.150563
0.166273
0.185135
0.20936
0.236943
0.269434
0.192489
0.116567
0.0752085
0.0640211
0.0647755
0.0717499
0.0829232
0.11282
0.138671
0.16097
0.181111
0.191942
0.202642
0.205957
0.205928
0.201408
0.204142
0.225289
0.263324
0.327774
0.170807
0.098815
0.0629358
0.0582158
0.062585
0.0695904
0.0801129
0.107046
0.133379
0.16456
0.199474
0.220992
0.249307
0.273801
0.294815
0.298463
0.299972
0.305554
0.320532
0.389494
0.132475
0.085428
0.0572507
0.0562385
0.0648347
0.0768376
0.0956184
0.115675
0.133393
0.159782
0.200476
0.232044
0.277789
0.320938
0.358132
0.397002
0.426313
0.4558
0.468635
0.533426
0.106719
0.0727088
0.0531573
0.0546252
0.0745849
0.106796
0.139376
0.166623
0.181677
0.198131
0.211985
0.242248
0.29789
0.356552
0.412853
0.478662
0.543819
0.611618
0.655799
0.760233
0.0856161
0.0602024
0.0485514
0.0530128
0.0780065
0.124674
0.167414
0.213476
0.258995
0.301369
0.325063
0.357158
0.389235
0.440578
0.496748
0.569729
0.662815
0.774342
0.865433
1.04562
0.0638881
0.0501147
0.0458036
0.0525563
0.0762372
0.127355
0.169512
0.222083
0.302233
0.386307
0.454797
0.521023
0.59153
0.663079
0.713733
0.777428
0.857326
0.983348
1.14063
1.35157
0.0459614
0.0392453
0.0440485
0.0537122
0.0752079
0.124136
0.159412
0.207299
0.304609
0.429256
0.546285
0.658549
0.788552
0.894408
1.00187
1.1101
1.21635
1.32617
1.58676
1.58146
0.0347576
0.0309585
0.0351377
0.0526049
0.0815991
0.153151
0.191212
0.24604
0.350702
0.49342
0.664966
0.828168
1.00819
1.15822
1.33589
1.52269
1.70386
1.85666
2.13688
2.07054
0.0285933
0.0253728
0.0267219
0.0533013
0.128099
0.255394
0.3535
0.508137
0.710066
0.903519
1.08619
1.24993
1.42102
1.58439
1.79443
2.06414
2.33623
2.58477
2.91706
2.89009
0.0247332
0.0222274
0.0235615
0.0843851
0.238413
0.402108
0.587904
0.836698
1.12917
1.43186
1.66894
1.88934
2.10674
2.32611
2.60291
2.92382
3.25477
3.59556
3.89266
4.15555
0.0212344
0.0216659
0.0410593
0.161289
0.357024
0.537573
0.827336
1.18423
1.60692
2.03639
2.37381
2.69418
3.00519
3.34187
3.76626
4.17088
4.55205
4.89764
5.09295
5.24845
0.0166354
0.0325341
0.103524
0.261258
0.508392
0.869122
1.36996
1.94871
2.61706
3.16171
3.5718
3.95044
4.32927
4.75565
5.21394
5.50159
5.67576
5.7369
5.60835
5.43434
0.0140887
0.0565665
0.219845
0.501667
1.10513
1.99955
2.81138
3.62179
4.43821
4.95956
5.26682
5.58679
5.87565
6.11105
6.23332
6.12855
5.82499
5.07895
3.88261
2.633
0.0355896
0.180856
0.676869
1.66585
2.95869
4.01919
4.92052
5.88918
6.62244
6.67602
6.55321
6.5711
6.52099
6.3018
5.61457
4.29579
2.93573
1.86835
1.42576
1.39011
0.440026
1.25026
2.81164
4.4691
5.88579
6.73188
7.48268
8.1279
7.93608
7.32277
6.72579
5.97809
4.71264
3.24365
1.99612
1.44176
1.38505
1.39288
1.39626
1.39923
3.23212
5.05927
6.80302
7.95166
8.74075
8.88792
9.07456
8.64699
6.32168
4.47249
3.30395
2.18467
1.51222
1.38248
1.39001
1.39475
1.39881
1.39997
1.40003
1.40002
9.67636
9.61542
9.55769
9.641
9.80074
9.36338
8.31801
3.20219
0.90604
1.40001
1.40001
1.40001
1.40001
1.40001
1.40001
1.40001
1.40001
1.40001
1.40001
1.40001
9.58221
9.53201
9.38922
9.27388
9.59305
8.01114
3.59592
1.41825
1.40001
1.40001
1.40001
1.40001
1.40001
1.40001
1.40001
1.40001
1.40001
1.40001
1.40001
1.40001
9.39462
9.488
9.36053
9.08816
8.72326
4.72744
1.45942
1.39899
1.40001
1.40001
1.40001
1.40001
1.40001
1.40001
1.40001
1.40001
1.40001
1.40001
1.40001
1.40001
9.23507
9.48617
9.5138
9.01143
6.55103
2.10213
1.39037
1.40016
1.4
1.40001
1.40001
1.40001
1.40001
1.40001
1.40001
1.40001
1.40001
1.40001
1.40001
1.40001
9.02759
9.46342
9.52344
8.80053
3.74943
1.36487
1.40052
1.4
1.40001
1.40001
1.40001
1.40001
1.40001
1.40001
1.40001
1.40001
1.40001
1.40001
1.40001
1.40001
8.87586
9.3281
9.36863
6.77816
1.9246
1.40001
1.40001
1.40001
1.40001
1.40001
1.40001
1.40001
1.40001
1.40001
1.40001
1.40001
1.40001
1.40001
1.40001
1.40001
8.82856
9.24788
9.11839
4.95351
1.39073
1.40001
1.40001
1.40001
1.40001
1.40001
1.40001
1.40001
1.40001
1.40001
1.40001
1.40001
1.40001
1.40001
1.40001
1.40001
8.99405
9.2889
8.52876
2.87281
1.40001
1.40001
1.40001
1.40001
1.40001
1.40001
1.40001
1.40001
1.40001
1.40001
1.40001
1.40001
1.40001
1.40001
1.40001
1.40001
9.64097
9.25592
6.79979
1.66933
1.40001
1.40001
1.40001
1.40001
1.40001
1.40001
1.40001
1.40001
1.40001
1.40001
1.40001
1.40001
1.40001
1.40001
1.40001
1.40001
10.0628
8.82937
4.85389
1.38256
1.40001
1.40001
1.40001
1.40001
1.40001
1.40001
1.40001
1.40001
1.40001
1.40001
1.40001
1.40001
1.40001
1.40001
1.40001
1.40001
10.342
8.37914
3.1612
1.40001
1.40001
1.40001
1.40001
1.40001
1.40001
1.40001
1.40001
1.40001
1.40001
1.40001
1.40001
1.40001
1.40001
1.40001
1.40001
1.40001
10.4127
7.46189
2.22765
1.40001
1.40001
1.40001
1.40001
1.40001
1.40001
1.40001
1.40001
1.40001
1.40001
1.40001
1.40001
1.40001
1.40001
1.40001
1.40001
1.40001
10.469
6.56226
1.62319
1.40001
1.40001
1.40001
1.40001
1.40001
1.40001
1.40001
1.40001
1.40001
1.40001
1.40001
1.40001
1.40001
1.40001
1.40001
1.40001
1.40001
10.2148
5.54486
1.40513
1.40001
1.40001
1.40001
1.40001
1.40001
1.40001
1.40001
1.40001
1.40001
1.40001
1.40001
1.40001
1.40001
1.40001
1.40001
1.40001
1.40001
9.91233
4.52517
1.40001
1.40001
1.40001
1.40001
1.40001
1.40001
1.40001
1.40001
1.40001
1.40001
1.40001
1.40001
1.40001
1.40001
1.40001
1.40001
1.40001
1.40001
9.64959
3.56885
1.40001
1.40001
1.40001
1.40001
1.40001
1.40001
1.40001
1.40001
1.40001
1.40001
1.40001
1.40001
1.40001
1.40001
1.40001
1.40001
1.40001
1.40001
9.34778
2.58064
1.40001
1.40001
1.40001
1.40001
1.40001
1.40001
1.40001
1.40001
1.40001
1.40001
1.40001
1.40001
1.40001
1.40001
1.40001
1.40001
1.40001
1.40001
8.67909
1.84815
1.40001
1.40001
1.40001
1.40001
1.40001
1.40001
1.40001
1.40001
1.40001
1.40001
1.40001
1.40001
1.40001
1.40001
1.40001
1.40001
1.40001
1.40001
7.96288
1.40599
1.40001
1.40001
1.40001
1.40001
1.40001
1.40001
1.40001
1.40001
1.40001
1.40001
1.40001
1.40001
1.40001
1.40001
1.40001
1.40001
1.40001
1.40001
6.47249
1.40029
1.40001
1.40001
1.40001
1.40001
1.40001
1.40001
1.40001
1.40001
1.40001
1.40001
1.40001
1.40001
1.40001
1.40001
1.40001
1.40001
1.40001
1.40001
6.47065
1.40029
1.40001
1.40001
1.40001
1.40001
1.40001
1.40001
1.40001
1.40001
1.40001
1.40001
1.40001
1.40001
1.40001
1.40001
1.40001
1.40001
1.40001
1.40001
7.96617
1.40603
1.40001
1.40001
1.40001
1.40001
1.40001
1.40001
1.40001
1.40001
1.40001
1.40001
1.40001
1.40001
1.40001
1.40001
1.40001
1.40001
1.40001
1.40001
8.68007
1.84944
1.40001
1.40001
1.40001
1.40001
1.40001
1.40001
1.40001
1.40001
1.40001
1.40001
1.40001
1.40001
1.40001
1.40001
1.40001
1.40001
1.40001
1.40001
9.34069
2.57911
1.40001
1.40001
1.40001
1.40001
1.40001
1.40001
1.40001
1.40001
1.40001
1.40001
1.40001
1.40001
1.40001
1.40001
1.40001
1.40001
1.40001
1.40001
9.65861
3.56279
1.40001
1.40001
1.40001
1.40001
1.40001
1.40001
1.40001
1.40001
1.40001
1.40001
1.40001
1.40001
1.40001
1.40001
1.40001
1.40001
1.40001
1.40001
9.90263
4.53337
1.40001
1.40001
1.40001
1.40001
1.40001
1.40001
1.40001
1.40001
1.40001
1.40001
1.40001
1.40001
1.40001
1.40001
1.40001
1.40001
1.40001
1.40001
10.2216
5.54747
1.40099
1.40001
1.40001
1.40001
1.40001
1.40001
1.40001
1.40001
1.40001
1.40001
1.40001
1.40001
1.40001
1.40001
1.40001
1.40001
1.40001
1.40001
10.4753
6.55229
1.62486
1.40001
1.40001
1.40001
1.40001
1.40001
1.40001
1.40001
1.40001
1.40001
1.40001
1.40001
1.40001
1.40001
1.40001
1.40001
1.40001
1.40001
10.4144
7.45268
2.22111
1.40001
1.40001
1.40001
1.40001
1.40001
1.40001
1.40001
1.40001
1.40001
1.40001
1.40001
1.40001
1.40001
1.40001
1.40001
1.40001
1.40001
10.3457
8.381
3.14855
1.40001
1.40001
1.40001
1.40001
1.40001
1.40001
1.40001
1.40001
1.40001
1.40001
1.40001
1.40001
1.40001
1.40001
1.40001
1.40001
1.40001
10.0703
8.83528
4.85049
1.38254
1.40001
1.40001
1.40001
1.40001
1.40001
1.40001
1.40001
1.40001
1.40001
1.40001
1.40001
1.40001
1.40001
1.40001
1.40001
1.40001
9.64702
9.26248
6.80219
1.67271
1.40001
1.40001
1.40001
1.40001
1.40001
1.40001
1.40001
1.40001
1.40001
1.40001
1.40001
1.40001
1.40001
1.40001
1.40001
1.40001
8.99296
9.29544
8.53756
2.87533
1.40001
1.40001
1.40001
1.40001
1.40001
1.40001
1.40001
1.40001
1.40001
1.40001
1.40001
1.40001
1.40001
1.40001
1.40001
1.40001
8.81937
9.24283
9.11207
4.96472
1.39374
1.40001
1.40001
1.40001
1.40001
1.40001
1.40001
1.40001
1.40001
1.40001
1.40001
1.40001
1.40001
1.40001
1.40001
1.40001
8.86504
9.31811
9.35452
6.77013
1.92308
1.40001
1.40001
1.40001
1.40001
1.40001
1.40001
1.40001
1.40001
1.40001
1.40001
1.40001
1.40001
1.40001
1.40001
1.40001
9.02193
9.46275
9.51971
8.79577
3.73768
1.36502
1.40052
1.4
1.40001
1.40001
1.40001
1.40001
1.40001
1.40001
1.40001
1.40001
1.40001
1.40001
1.40001
1.40001
9.23843
9.48508
9.51294
9.027
6.56126
2.10447
1.39015
1.40016
1.4
1.40001
1.40001
1.40001
1.40001
1.40001
1.40001
1.40001
1.40001
1.40001
1.40001
1.40001
9.40061
9.48833
9.36253
9.09126
8.72809
4.74152
1.46378
1.39892
1.40001
1.40001
1.40001
1.40001
1.40001
1.40001
1.40001
1.40001
1.40001
1.40001
1.40001
1.40001
9.58086
9.53328
9.38786
9.26755
9.58924
8.02216
3.59565
1.41751
1.40001
1.40001
1.40001
1.40001
1.40001
1.40001
1.40001
1.40001
1.40001
1.40001
1.40001
1.40001
9.67976
9.61944
9.55587
9.63264
9.80036
9.37108
8.31129
3.1952
0.906886
1.40001
1.40001
1.40001
1.40001
1.40001
1.40001
1.40001
1.40001
1.40001
1.40001
1.40001
3.23758
5.07202
6.83365
7.97927
8.75681
8.89034
9.06493
8.63622
6.31038
4.46658
3.30244
2.18579
1.5131
1.38254
1.39002
1.39476
1.39881
1.39997
1.40003
1.40002
0.420808
1.19366
2.73464
4.41354
5.89025
6.76371
7.51299
8.13872
7.94105
7.32054
6.7221
5.9748
4.71084
3.24348
1.99665
1.44189
1.38503
1.39287
1.39626
1.39923
0.0639165
0.236498
0.697918
1.67492
2.94462
4.00442
4.91641
5.88739
6.63476
6.676
6.55023
6.56694
6.51684
6.29777
5.61178
4.29561
2.93746
1.86951
1.42594
1.39012
0.0129929
0.0818653
0.236207
0.45579
1.07904
2.00226
2.82377
3.6373
4.45112
4.96727
5.26919
5.5856
5.87242
6.1073
6.2324
6.1285
5.82659
5.08134
3.88377
2.63229
0.0114944
0.037051
0.114684
0.260815
0.475288
0.849634
1.36969
1.95728
2.63003
3.17421
3.5816
3.95755
4.33353
4.75564
5.21246
5.50016
5.67534
5.73777
5.60939
5.43522
0.0152996
0.0213915
0.0572103
0.189205
0.334588
0.499438
0.791267
1.15439
1.58373
2.01806
2.36417
2.68919
3.00109
3.33666
3.76079
4.16644
4.55013
4.8992
5.09664
5.25147
0.0250951
0.0214114
0.0285562
0.112219
0.242066
0.399387
0.577273
0.821459
1.11447
1.42335
1.66363
1.88758
2.1055
2.32537
2.60257
2.9234
3.25343
3.5953
3.89328
4.15491
0.0344025
0.0237416
0.0240229
0.0619649
0.153427
0.278923
0.371322
0.527401
0.727908
0.92162
1.1001
1.26008
1.42701
1.5868
1.79173
2.05977
2.33359
2.58445
2.91904
2.89272
0.0418666
0.0279329
0.0267107
0.0515658
0.102734
0.170577
0.203551
0.262394
0.368155
0.501445
0.666465
0.826063
1.00448
1.15499
1.33325
1.52326
1.7071
1.86073
2.13937
2.07066
0.052136
0.0360769
0.0330047
0.0544017
0.0874866
0.123224
0.15864
0.201045
0.294546
0.419696
0.538209
0.651886
0.785465
0.893145
1.00372
1.11314
1.22062
1.32845
1.58428
1.57954
0.0672166
0.0465268
0.0413327
0.0562601
0.0855252
0.123912
0.169007
0.214588
0.294207
0.379967
0.451758
0.520449
0.594544
0.667302
0.718011
0.780461
0.855793
0.97803
1.13423
1.35024
0.0882424
0.0592702
0.0485408
0.0584501
0.0825642
0.121992
0.168621
0.208807
0.256929
0.302346
0.330362
0.364655
0.394922
0.442674
0.4942
0.563682
0.654382
0.768729
0.862902
1.04642
0.11462
0.074881
0.0547705
0.0628235
0.0754032
0.105512
0.142786
0.166224
0.183115
0.202969
0.212989
0.238013
0.29017
0.349747
0.406756
0.473604
0.54078
0.610394
0.658809
0.763465
0.142373
0.0888527
0.0592895
0.0610522
0.064538
0.074716
0.0965614
0.114578
0.13082
0.15364
0.190962
0.225435
0.273411
0.318124
0.356453
0.397531
0.429451
0.461773
0.475382
0.537508
0.168662
0.0982696
0.0631145
0.0600868
0.0608636
0.0660054
0.0789381
0.103734
0.12756
0.155845
0.194609
0.219042
0.24967
0.275664
0.297808
0.304695
0.307386
0.313433
0.326331
0.389234
0.188268
0.106045
0.0691913
0.0623935
0.062295
0.0672146
0.0808427
0.109045
0.133661
0.15818
0.183159
0.195247
0.207551
0.211673
0.212245
0.206532
0.208159
0.224891
0.260806
0.324433
0.198081
0.119786
0.0837044
0.0714491
0.0696535
0.0766959
0.0861597
0.109375
0.129472
0.145469
0.145592
0.147695
0.147532
0.148075
0.151841
0.165588
0.183842
0.207307
0.234106
0.267227
0.195434
0.129246
0.102946
0.0882278
0.0830202
0.0859363
0.0842688
0.0923067
0.0994067
0.0993915
0.0935145
0.0951643
0.0973608
0.106888
0.122539
0.140478
0.158014
0.171655
0.183292
0.188159
0.183181
0.146862
0.154213
0.171471
0.194486
0.19674
0.195948
0.217972
0.257673
0.28173
0.287182
0.275625
0.249234
0.22925
0.22011
0.222577
0.228983
0.242755
0.267343
0.282638
0.24156
0.324863
0.36362
0.435002
0.496142
0.503949
0.501886
0.536005
0.606924
0.647677
0.665956
0.664564
0.660972
0.657423
0.649788
0.662433
0.679916
0.714529
0.734707
0.734204
0.747022
0.888458
0.996679
1.11097
1.11234
1.14887
1.18863
1.24582
1.25899
1.26868
1.26443
1.2689
1.2948
1.33863
1.34605
1.32576
1.30465
1.30745
1.33063
1.33713
0.369347
0.563071
0.7505
0.945613
1.03742
1.12576
1.17347
1.23219
1.26637
1.27539
1.27442
1.27396
1.28131
1.30793
1.32561
1.32825
1.32766
1.33005
1.33513
1.33016
0.191642
0.222101
0.323456
0.471818
0.74601
0.957649
1.06716
1.17627
1.25154
1.28485
1.28889
1.28866
1.28387
1.28702
1.30293
1.32489
1.33835
1.34508
1.34406
1.33332
0.269941
0.294759
0.334693
0.33893
0.366643
0.479538
0.745812
0.995859
1.1597
1.24563
1.30689
1.29596
1.28148
1.27287
1.28529
1.31759
1.3449
1.34922
1.34517
1.32966
0.340061
0.358681
0.380874
0.413274
0.417246
0.404464
0.428008
0.548179
0.821813
1.09611
1.25179
1.28096
1.29351
1.27802
1.27832
1.31424
1.34521
1.34489
1.33642
1.32617
0.434262
0.447608
0.474543
0.487695
0.480078
0.468727
0.464997
0.456731
0.493101
0.677916
0.982994
1.22826
1.2885
1.29472
1.28363
1.3142
1.34011
1.33454
1.32537
1.32761
0.54933
0.557663
0.54864
0.549456
0.55146
0.542158
0.523335
0.511917
0.49937
0.512954
0.621877
0.912675
1.20474
1.30114
1.29708
1.3243
1.32504
1.31381
1.3204
1.33247
0.733801
0.691969
0.63957
0.612594
0.616991
0.611088
0.581527
0.565357
0.551415
0.532512
0.53804
0.609669
0.868256
1.19648
1.30308
1.33675
1.314
1.30537
1.32924
1.33928
0.955631
0.855086
0.744478
0.675028
0.683742
0.688256
0.661911
0.637037
0.599693
0.576199
0.5552
0.55982
0.612861
0.869088
1.19908
1.32443
1.28343
1.29812
1.34328
1.34212
1.21777
1.07137
0.886201
0.77917
0.761402
0.761311
0.736971
0.702389
0.658651
0.600276
0.596566
0.581613
0.589958
0.642725
0.872853
1.16858
1.2259
1.30174
1.35287
1.34021
1.75006
1.3831
1.13823
0.907095
0.818872
0.828533
0.850059
0.838121
0.796714
0.718854
0.656652
0.649504
0.642056
0.643864
0.669664
0.791329
1.03774
1.23159
1.31663
1.32805
2.8252
2.05377
1.70382
1.38594
1.07406
1.00498
0.983963
0.961115
0.897327
0.826242
0.779093
0.760695
0.7388
0.711086
0.671416
0.677709
0.734405
0.888971
1.10861
1.27158
3.49442
3.00567
2.38464
1.91876
1.55234
1.28737
1.0982
1.04809
0.995083
0.928915
0.919876
0.90505
0.868086
0.81696
0.76369
0.726511
0.73388
0.747246
0.806609
1.04158
3.2962
3.27163
3.10337
2.672
2.19785
1.8099
1.47697
1.31446
1.23349
1.13608
1.05661
0.988614
0.935232
0.879423
0.839206
0.808834
0.788289
0.772415
0.766656
0.816062
2.34651
2.99043
3.09555
3.05999
2.87565
2.4887
2.08117
1.71708
1.50499
1.35191
1.20483
1.08422
1.0344
1.00695
0.98917
0.952832
0.906751
0.869504
0.813278
0.809458
1.5517
2.01013
2.58432
2.95219
2.94962
2.89127
2.6988
2.34733
1.98948
1.73091
1.51222
1.3571
1.26115
1.19194
1.13386
1.04374
0.966304
0.916238
0.88512
0.846523
1.40631
1.46252
1.68811
2.16599
2.59969
2.82054
2.81267
2.75091
2.55777
2.26373
1.9587
1.71007
1.50434
1.33946
1.24905
1.15764
1.07046
1.02951
1.02514
0.983096
1.40013
1.4016
1.4146
1.5102
1.7746
2.19778
2.54799
2.69935
2.69002
2.63331
2.47078
2.21003
1.93943
1.69264
1.51364
1.41907
1.30956
1.22422
1.16273
1.06793
1.40001
1.40002
1.40021
1.40349
1.4268
1.53797
1.80638
2.17626
2.47062
2.59522
2.58751
2.53448
2.39877
2.17877
1.91784
1.71001
1.54625
1.39445
1.28388
1.16314
1.40001
1.40001
1.40001
1.40004
1.40047
1.4053
1.43429
1.55329
1.79891
2.12887
2.38123
2.49802
2.49191
2.45508
2.34191
2.14507
1.93305
1.72117
1.56771
1.39408
1.40001
1.40001
1.40001
1.40001
1.40001
1.40007
1.40069
1.40671
1.43724
1.54611
1.7696
2.06465
2.28842
2.41225
2.40793
2.37952
2.29688
2.13552
1.9501
1.67168
1.40001
1.40001
1.40001
1.40001
1.40001
1.40001
1.40001
1.40009
1.40082
1.40658
1.43537
1.53306
1.72419
1.99359
2.19756
2.32856
2.32729
2.31037
2.25864
2.04606
1.40001
1.40001
1.40001
1.40001
1.40001
1.40001
1.40001
1.40001
1.40001
1.40009
1.40082
1.40593
1.43099
1.51028
1.67718
1.91694
2.11368
2.24169
2.25557
2.22375
1.40001
1.40001
1.40001
1.40001
1.40001
1.40001
1.40001
1.40001
1.40001
1.40001
1.40001
1.40008
1.40074
1.40454
1.42545
1.48914
1.62852
1.83817
2.021
2.1671
1.40001
1.40001
1.40001
1.40001
1.40001
1.40001
1.40001
1.40001
1.40001
1.40001
1.40001
1.40001
1.40001
1.40007
1.4006
1.40359
1.4196
1.47163
1.59069
1.94198
2.2586
3.42591
3.59874
2.91057
1.83169
1.45132
1.40261
1.40007
1.40001
1.40001
1.40001
1.40001
1.40001
1.40001
1.40001
3.25341
3.91395
3.52142
2.15279
1.46708
1.40113
1.40001
1.4
1.40001
1.40001
1.40001
1.40001
1.40001
1.40001
1.40001
4.06882
3.99028
2.76264
1.61249
1.40727
1.40007
1.40001
1.40001
1.40001
1.40001
1.40001
1.40001
1.40001
1.40001
1.40001
4.51219
3.55564
1.90702
1.42685
1.40026
1.40001
1.40001
1.40001
1.40001
1.40001
1.40001
1.40001
1.40001
1.40001
1.40001
4.61134
2.34936
1.46591
1.40073
1.40001
1.40001
1.40001
1.40001
1.40001
1.40001
1.40001
1.40001
1.40001
1.40001
1.40001
2.88284
1.50179
1.40067
1.4
1.4
1.4
1.40001
1.40001
1.40001
1.40001
1.40001
1.40001
1.40001
1.40001
1.40001
1.54173
1.4008
1.4
1.4
1.40001
1.40001
1.40001
1.40001
1.40001
1.40001
1.40001
1.40001
1.40001
1.40001
1.40001
1.39741
1.39982
1.4
1.40001
1.40001
1.40001
1.40001
1.40001
1.40001
1.40001
1.40001
1.40001
1.40001
1.40001
1.40001
1.39996
1.40001
1.40001
1.40001
1.40001
1.40001
1.40001
1.40001
1.40001
1.40001
1.40001
1.40001
1.40001
1.40001
1.40001
1.40001
1.40001
1.40001
1.40001
1.40001
1.40001
1.40001
1.40001
1.40001
1.40001
1.40001
1.40001
1.40001
1.40001
1.40001
1.40001
1.40001
1.40001
1.40001
1.40001
1.40001
1.40001
1.40001
1.40001
1.40001
1.40001
1.40001
1.40001
1.40001
1.40001
1.40001
1.40001
1.40001
1.40001
1.40001
1.40001
1.40001
1.40001
1.40001
1.40001
1.40001
1.40001
1.40001
1.40001
1.40001
1.40001
1.40001
1.40001
1.40001
1.40001
1.40001
1.40001
1.40001
1.40001
1.40001
1.40001
1.40001
1.40001
1.40001
1.40001
1.40001
1.40001
1.40001
1.40001
1.40001
1.40001
1.40001
1.40001
1.40001
1.40001
1.40001
1.40001
1.40001
1.40001
1.40001
1.40001
1.40001
1.40001
1.40001
1.40001
1.40001
1.40001
1.40001
1.40001
1.40001
1.40001
1.40001
1.40001
1.40001
1.40001
1.40001
1.40001
1.40001
1.40001
1.40001
1.40001
1.40001
1.40001
1.40001
1.40001
1.40001
1.40001
1.40001
1.40001
1.40001
1.40001
1.40001
1.40001
1.40001
1.40001
1.40001
1.40001
1.40001
1.40001
1.40001
1.40001
1.40001
1.40001
1.40001
1.40001
1.40001
1.40001
1.40001
1.40001
1.40001
1.40001
1.40001
1.40001
1.40001
1.40001
1.40001
1.40001
1.40001
1.40001
1.40001
1.40001
1.40001
1.40001
1.40001
1.40001
1.40001
1.40001
1.40001
1.40001
1.40001
1.40001
1.40001
1.40001
1.40001
1.40001
1.40001
1.40001
1.40001
1.40001
1.40001
1.40001
1.40001
1.40001
1.40001
1.40001
1.40001
1.40001
1.40001
1.40001
1.40001
1.40001
1.40001
1.40001
1.40001
1.40001
1.40001
1.40001
1.40001
1.40001
1.40001
1.40001
1.40001
1.40001
1.40001
1.40001
1.40001
1.40001
1.40001
1.40001
1.40001
1.40001
1.40001
1.40001
1.40001
1.40001
1.40001
1.40001
1.40001
1.40001
1.40001
1.40001
1.40001
1.40001
1.40001
1.40001
1.40001
1.40001
1.40001
1.40001
1.40001
1.40001
1.40001
1.40001
1.40001
1.40001
1.40001
1.40001
1.40001
1.40001
1.40001
1.40001
1.40001
1.40001
1.40001
1.40001
1.40001
1.40001
1.40001
1.40001
1.40001
1.40001
1.40001
1.40001
1.40001
1.40001
1.40001
1.40001
1.40001
1.40001
1.40001
1.40001
1.40001
1.40001
1.40001
1.40001
1.40001
1.40001
1.40001
1.40001
1.40001
1.40001
1.40001
1.40001
1.40001
1.40001
1.40001
1.40001
1.40001
1.40001
1.40001
1.40001
1.40001
1.40001
1.40001
1.40001
1.40001
1.40001
1.40001
1.40001
1.40001
1.40001
1.40001
1.40001
1.40001
1.40001
1.40001
1.40001
1.40001
1.40001
1.40001
1.40001
1.40001
1.40001
1.40001
1.40001
1.40001
1.40001
1.40001
1.40001
1.40001
1.40001
1.40001
1.40001
1.40001
1.40001
1.40001
1.40001
1.40001
1.40001
1.40001
1.40001
1.40001
1.40001
1.40001
1.40001
1.40001
1.40001
1.40001
1.40001
1.40001
1.40001
1.40001
1.40001
1.40001
1.40001
1.40001
1.40001
1.40001
1.40001
1.40001
1.40001
1.40001
1.40001
1.40001
1.40001
1.40001
1.40001
1.40001
1.40001
1.40001
1.40001
1.40001
1.40001
1.40001
1.40001
1.40001
1.40001
1.40001
1.40001
1.40001
1.40001
1.40001
1.40001
1.40001
1.40001
1.40001
1.40001
1.40001
1.40001
1.40001
1.40001
1.40001
1.40001
1.40001
1.40001
1.40001
1.40001
1.40001
1.40001
1.40001
1.40001
1.40001
1.40001
1.40001
1.40001
1.40001
1.40001
1.40001
1.40001
1.40001
1.40001
1.40001
1.40001
1.40001
1.40001
1.40001
1.40001
1.40001
1.40001
1.40001
1.40001
1.40001
1.40001
1.40001
1.40001
1.40001
1.40001
1.40001
1.40001
1.40001
1.40001
1.40001
1.40001
1.40001
1.40001
1.40001
1.40001
1.40001
1.40001
1.40001
1.40001
1.40001
1.40001
1.40001
1.40001
1.40001
1.40001
1.40001
1.40001
1.40001
1.40001
1.40001
1.40001
1.40001
1.40001
1.40001
1.40001
1.40001
1.40001
1.40001
1.40001
1.40001
1.40001
1.40001
1.40001
1.40001
1.40001
1.40001
1.40001
1.40001
1.40001
1.40001
1.40001
1.40001
1.40001
1.40001
1.40001
1.40001
1.40001
1.40001
1.40001
1.40001
1.40001
1.40001
1.40001
1.40001
1.40001
1.40001
1.40001
1.40001
1.40001
1.40001
1.40001
1.40001
1.40001
1.40001
1.40001
1.40001
1.40001
1.40001
1.40001
1.40001
1.40001
1.40001
1.40001
1.40001
1.40001
1.40001
1.40001
1.40001
1.40001
1.40001
1.40001
1.40001
1.40001
1.40001
1.40001
1.40001
1.40001
1.40001
1.40001
1.40001
1.40001
1.40001
1.40001
1.40001
1.40001
1.40001
1.40001
1.40001
1.40001
1.40001
1.40001
1.40001
1.40001
1.40001
1.40001
1.40001
1.40001
1.40001
1.40001
1.40001
1.40001
1.40001
1.40001
1.40001
1.40001
1.40001
1.40001
1.40001
1.40001
1.40001
1.40001
1.40001
1.40001
1.40001
1.40001
1.40001
1.40001
1.40001
1.40001
1.40001
1.40001
1.40001
1.40001
1.40001
1.40001
1.40001
1.40001
1.40001
1.40001
1.40001
1.40001
1.40001
1.40001
1.40001
1.40001
1.40001
1.40001
1.40001
1.40001
1.40001
1.40001
1.40001
1.40001
1.40001
1.40001
1.40001
1.40001
1.40001
1.40001
1.40001
1.40001
1.40001
1.40001
1.40001
1.40001
1.40001
1.40001
1.40001
1.40001
1.40001
1.40001
1.40001
1.40001
1.40001
1.40001
1.40001
1.40001
1.40001
1.40001
1.40001
1.40001
1.40001
1.40001
1.40001
1.40001
1.40001
1.40001
1.40001
1.40001
1.40001
1.40001
1.40001
1.40001
1.40001
1.40001
1.40001
1.40001
1.40001
1.40001
1.40001
1.40001
1.40001
1.40001
1.40001
1.40001
1.40001
1.40001
1.40001
1.40001
1.40001
1.40001
1.40001
1.40001
1.40001
1.40001
1.40001
1.40001
1.40001
1.40001
1.40001
1.40001
1.40001
1.40001
1.40001
1.40001
1.40001
1.40001
1.40001
1.40001
1.40001
1.40001
1.40001
1.40001
1.40001
1.40001
1.40001
1.40001
1.40001
1.40001
1.40001
1.40001
1.40001
1.40001
1.40001
1.40001
1.40001
1.40001
1.40001
1.40001
1.40001
1.40001
1.40001
1.40001
1.40001
1.40001
1.40001
1.40001
1.40001
1.40001
1.40001
1.40001
1.40001
1.40001
1.40001
1.40001
1.40001
1.40001
1.40001
1.40001
1.40001
1.40001
1.40001
1.40001
1.40001
1.40001
1.40001
1.40001
1.40001
1.40001
1.40001
1.40001
1.40001
1.40001
1.40001
1.40001
1.40001
1.40001
1.40001
1.40001
1.40001
1.40001
1.40001
1.40001
1.40001
1.40001
1.40001
1.40001
1.40001
1.40001
1.40001
1.40001
1.40001
1.40001
1.40001
1.40001
1.40001
1.40001
1.40001
1.40001
1.40001
1.40001
1.40001
1.40001
1.40001
1.40001
1.40001
1.40001
1.40001
1.40001
1.40001
1.40001
1.40001
1.40001
1.40001
1.40001
1.40001
1.40001
1.40001
1.40001
1.40001
1.40001
1.40001
1.40001
1.40001
1.40001
1.40001
1.40001
1.40001
1.40001
1.40001
1.40001
1.40001
1.40001
1.40001
1.40001
1.40001
1.40001
1.40001
1.40001
1.40001
1.40001
1.40001
1.40001
1.40001
1.40001
1.40001
1.40001
1.40001
1.40001
1.40001
1.40001
1.40001
1.40001
1.40001
1.40001
1.40001
1.40001
1.40001
1.40001
1.40001
1.40001
1.40001
1.40001
1.40001
1.40001
1.40001
1.40001
1.40001
1.40001
1.40001
1.40001
1.40001
1.40001
1.40001
1.40001
1.40001
1.40001
1.40001
1.40001
1.40001
1.40001
1.40001
1.40001
1.40001
1.40001
1.40001
1.40001
1.40001
1.40001
1.40001
1.40001
1.40001
1.40001
1.40001
1.40001
1.40001
1.40001
1.40001
1.40001
1.40001
1.40001
1.40001
1.40001
1.40001
1.40001
1.40001
1.40001
1.40001
1.40001
1.40001
1.40001
1.40001
1.40001
1.40001
1.40001
1.40001
1.40001
1.40001
1.40001
1.40001
1.40001
1.40001
1.40001
1.40001
1.40001
1.40001
1.40001
1.40001
1.40001
1.40001
1.40001
1.40001
1.40001
1.39996
1.40001
1.40001
1.40001
1.40001
1.40001
1.40001
1.40001
1.40001
1.40001
1.40001
1.40001
1.40001
1.40001
1.40001
1.39742
1.39982
1.4
1.40001
1.40001
1.40001
1.40001
1.40001
1.40001
1.40001
1.40001
1.40001
1.40001
1.40001
1.40001
1.54149
1.40079
1.4
1.4
1.40001
1.40001
1.40001
1.40001
1.40001
1.40001
1.40001
1.40001
1.40001
1.40001
1.40001
2.88308
1.50181
1.40066
1.4
1.4
1.4
1.40001
1.40001
1.40001
1.40001
1.40001
1.40001
1.40001
1.40001
1.40001
4.61294
2.34954
1.46607
1.40075
1.40001
1.40001
1.40001
1.40001
1.40001
1.40001
1.40001
1.40001
1.40001
1.40001
1.40001
4.51297
3.55607
1.90669
1.4268
1.40026
1.40001
1.40001
1.40001
1.40001
1.40001
1.40001
1.40001
1.40001
1.40001
1.40001
4.06917
3.99064
2.76368
1.6126
1.40727
1.40007
1.40001
1.40001
1.40001
1.40001
1.40001
1.40001
1.40001
1.40001
1.40001
3.2519
3.91441
3.52207
2.15374
1.46725
1.40113
1.40001
1.4
1.40001
1.40001
1.40001
1.40001
1.40001
1.40001
1.40001
2.26029
3.42577
3.59872
2.91095
1.83204
1.45138
1.40261
1.40007
1.40001
1.40001
1.40001
1.40001
1.40001
1.40001
1.40001
1.73834
2.829
3.49473
3.29702
2.3465
1.55166
1.40631
1.40013
1.40001
1.40001
1.40001
1.40001
1.40001
1.40001
1.40001
1.3847
2.0328
3.00821
3.27182
2.99235
2.01036
1.46247
1.40159
1.40002
1.40001
1.40001
1.40001
1.40001
1.40001
1.40001
1.16425
1.69877
2.37971
3.10286
3.09523
2.58455
1.68807
1.41459
1.40021
1.40001
1.40001
1.40001
1.40001
1.40001
1.40001
0.922915
1.41324
1.91754
2.67004
3.05817
2.95158
2.16607
1.51022
1.40348
1.40004
1.40001
1.40001
1.40001
1.40001
1.40001
0.815194
1.09532
1.54432
2.19725
2.87436
2.94918
2.59943
1.7746
1.42679
1.40047
1.40001
1.40001
1.40001
1.40001
1.40001
0.821488
1.01513
1.27722
1.79921
2.49111
2.89089
2.82072
2.19775
1.53796
1.40529
1.40007
1.40001
1.40001
1.40001
1.40001
0.841783
0.990665
1.11278
1.44958
2.07734
2.70054
2.81327
2.54838
1.80625
1.43426
1.40069
1.40001
1.40001
1.40001
1.40001
0.823773
0.947006
1.06439
1.32494
1.71391
2.35042
2.75175
2.70002
2.17637
1.5532
1.40671
1.40009
1.40001
1.40001
1.40001
0.781447
0.867221
0.999938
1.25979
1.50612
1.98932
2.55797
2.69056
2.47087
1.79896
1.43724
1.40082
1.40001
1.40001
1.40001
0.722264
0.804555
0.925944
1.15661
1.35097
1.72607
2.26517
2.63377
2.59553
2.12906
1.54618
1.40658
1.40009
1.40001
1.40001
0.672685
0.761401
0.911234
1.06098
1.20257
1.51425
1.96006
2.47185
2.58787
2.38153
1.76977
1.43539
1.40082
1.40001
1.40001
0.664179
0.75529
0.896351
0.984472
1.07968
1.36321
1.71056
2.21125
2.53488
2.49832
2.06487
1.5331
1.40593
1.40008
1.40001
0.656068
0.740122
0.860614
0.930563
1.03984
1.26944
1.50374
1.93995
2.39871
2.49211
2.28859
1.72425
1.43099
1.40074
1.40001
0.662089
0.713771
0.810766
0.875322
1.01152
1.19761
1.33682
1.69322
2.17891
2.45517
2.41232
1.99362
1.51027
1.40454
1.40007
0.680396
0.674507
0.76242
0.835468
0.986978
1.13551
1.24581
1.51248
1.918
2.34213
2.40797
2.19752
1.67713
1.42545
1.4006
0.792461
0.681985
0.729592
0.806227
0.947361
1.04225
1.15523
1.41738
1.70934
2.14531
2.37952
2.3285
1.91686
1.48911
1.40359
1.0356
0.738705
0.737801
0.785414
0.90229
0.965728
1.07011
1.3091
1.54637
1.93292
2.29667
2.32719
2.11357
1.6285
1.4196
1.22977
0.88969
0.749572
0.77186
0.866928
0.916884
1.03003
1.2246
1.39524
1.72087
2.13518
2.31023
2.24153
1.83814
1.47164
1.31536
1.10438
0.80453
0.766139
0.812311
0.886516
1.02557
1.16281
1.28414
1.56731
1.94989
2.25854
2.25553
2.02098
1.59069
1.32713
1.26919
1.0385
0.815232
0.808456
0.84746
0.983579
1.06754
1.16313
1.39373
1.67162
2.04606
2.22375
2.1671
1.94198
1.22405
1.07544
0.89022
0.761795
0.743438
0.757574
0.749035
0.71237
0.671371
0.619092
0.608853
0.602646
0.605348
0.646666
0.879424
1.1791
1.22502
1.29792
1.35293
1.33974
0.962533
0.859136
0.728945
0.651003
0.665282
0.685287
0.67322
0.646699
0.608883
0.583271
0.575508
0.574268
0.625112
0.879699
1.19556
1.31054
1.27441
1.29119
1.34309
1.34194
0.735324
0.692489
0.613922
0.596398
0.605643
0.608612
0.586598
0.564955
0.549605
0.533129
0.541285
0.622879
0.89019
1.21205
1.27201
1.31713
1.3008
1.30193
1.32767
1.33935
0.55426
0.549
0.534073
0.541347
0.552474
0.544183
0.523697
0.507037
0.49523
0.508983
0.632201
0.933683
1.22089
1.28392
1.27662
1.30825
1.32252
1.31475
1.32314
1.33399
0.433498