/*--------------------------------*- C++ -*----------------------------------*\
  =========                 |
  \\      /  F ield         | OpenFOAM: The Open Source CFD Toolbox
   \\    /   O peration     | Website:  https://openfoam.org
    \\  /    A nd           | Version:  7
     \\/     M anipulation  |
\*---------------------------------------------------------------------------*/
FoamFile
{
    version     2.0;
    format      ascii;
    class       volScalarField;
    location    "4.7";
    object      T;
}
// * * * * * * * * * * * * * * * * * * * * * * * * * * * * * * * * * * * * * //

dimensions      [0 0 0 1 0 0 0];

internalField   nonuniform List<scalar> 
3700
(
100.594
100.796
100.795
100.749
100.739
100.815
100.93
101.031
101.089
101.088
101.077
101.073
101.097
101.138
101.144
101.141
101.138
101.132
101.122
101.084
100.249
100.183
100.212
100.136
100.133
100.27
100.477
100.534
100.487
100.406
100.351
100.368
100.447
100.532
100.572
100.587
100.609
100.623
100.62
100.539
100.321
100.196
100.122
100.075
100.043
100.014
99.987
99.9837
99.9728
99.9461
99.9212
99.9195
99.9312
99.96
99.992
100.021
100.036
100.046
100.053
100.046
100.359
100.204
100.099
100.028
100.011
100.018
100.02
100.065
100.074
100.066
100.039
100.014
99.9879
99.9741
99.9826
100.018
100.041
100.065
100.086
100.107
100.36
100.181
100.004
99.933
99.9323
99.9558
99.9994
100.074
100.102
100.114
100.119
100.111
100.105
100.087
100.065
100.039
100.036
100.057
100.095
100.142
100.307
100.09
99.9066
99.8695
99.8929
99.9187
99.9664
100.038
100.078
100.119
100.14
100.145
100.161
100.162
100.158
100.146
100.127
100.119
100.118
100.159
100.171
100.012
99.8554
99.8423
99.8809
99.9101
99.9649
100.026
100.057
100.096
100.128
100.146
100.176
100.195
100.204
100.214
100.215
100.216
100.215
100.235
100.064
99.9432
99.8228
99.8266
99.9045
99.982
100.038
100.071
100.08
100.105
100.118
100.135
100.17
100.202
100.226
100.251
100.271
100.284
100.29
100.323
99.9708
99.8715
99.793
99.8243
99.9469
100.058
100.116
100.154
100.177
100.199
100.2
100.208
100.213
100.227
100.248
100.275
100.306
100.335
100.352
100.394
99.8589
99.7981
99.7783
99.8306
99.9623
100.096
100.146
100.184
100.232
100.271
100.291
100.303
100.321
100.332
100.338
100.346
100.359
100.384
100.414
100.453
99.7488
99.7076
99.7736
99.8612
100.013
100.145
100.158
100.183
100.247
100.302
100.337
100.36
100.388
100.399
100.414
100.428
100.444
100.459
100.496
100.493
99.6705
99.6403
99.743
99.9114
100.139
100.244
100.235
100.262
100.303
100.334
100.371
100.402
100.432
100.45
100.474
100.499
100.522
100.541
100.577
100.565
99.6256
99.6022
99.7161
99.9858
100.232
100.31
100.331
100.39
100.439
100.473
100.485
100.495
100.504
100.514
100.535
100.566
100.598
100.625
100.656
100.654
99.5978
99.5894
99.727
100.12
100.308
100.374
100.423
100.48
100.528
100.563
100.573
100.584
100.594
100.609
100.632
100.658
100.684
100.708
100.725
100.734
99.5644
99.644
99.9214
100.247
100.364
100.419
100.488
100.545
100.595
100.627
100.641
100.656
100.673
100.698
100.729
100.755
100.774
100.784
100.78
100.774
99.5199
99.7796
100.076
100.309
100.427
100.521
100.587
100.64
100.689
100.711
100.726
100.742
100.762
100.79
100.813
100.824
100.822
100.815
100.789
100.744
99.4763
99.8758
100.233
100.428
100.582
100.688
100.734
100.771
100.797
100.811
100.822
100.836
100.851
100.857
100.856
100.845
100.794
100.679
100.515
100.276
99.5023
100.094
100.455
100.659
100.769
100.81
100.836
100.862
100.876
100.882
100.882
100.883
100.882
100.859
100.774
100.626
100.364
100.103
100.006
99.9978
100.118
100.529
100.741
100.841
100.889
100.904
100.916
100.921
100.917
100.908
100.894
100.84
100.726
100.47
100.147
100.01
99.9966
99.9985
99.9992
99.9998
100.698
100.838
100.915
100.952
100.962
100.951
100.951
100.928
100.844
100.764
100.577
100.235
100.03
99.9958
99.9977
99.9989
99.9998
100
100
100
101
100.998
100.995
100.991
100.982
100.94
100.871
100.445
99.8492
100
100
100
100
100
100
100
100
100
100
100
100.997
100.995
100.988
100.976
100.963
100.857
100.48
100.011
100
100
100
100
100
100
100
100
100
100
100
100
100.988
100.991
100.985
100.965
100.928
100.647
100.038
99.9994
100
100
100
100
100
100
100
100
100
100
100
100
100.983
100.989
100.986
100.951
100.798
100.27
99.996
100
100
100
100
100
100
100
100
100
100
100
100
100
100.978
100.987
100.982
100.923
100.556
99.9921
100
100
100
100
100
100
100
100
100
100
100
100
100
100
100.975
100.985
100.977
100.822
100.232
100
100
100
100
100
100
100
100
100
100
100
100
100
100
100
100.975
100.983
100.969
100.71
100.009
100
100
100
100
100
100
100
100
100
100
100
100
100
100
100
100.985
100.983
100.93
100.476
99.9984
100
100
100
100
100
100
100
100
100
100
100
100
100
100
100
101.002
100.971
100.824
100.144
100
100
100
100
100
100
100
100
100
100
100
100
100
100
100
100
101.014
100.94
100.682
99.9964
100
100
100
100
100
100
100
100
100
100
100
100
100
100
100
100
101.023
100.906
100.498
100
100
100
100
100
100
100
100
100
100
100
100
100
100
100
100
100
101.027
100.85
100.314
100
100
100
100
100
100
100
100
100
100
100
100
100
100
100
100
100
101.032
100.794
100.11
100
100
100
100
100
100
100
100
100
100
100
100
100
100
100
100
100
101.033
100.733
100.003
100
100
100
100
100
100
100
100
100
100
100
100
100
100
100
100
100
101.015
100.674
100
100
100
100
100
100
100
100
100
100
100
100
100
100
100
100
100
100
100.987
100.585
100
100
100
100
100
100
100
100
100
100
100
100
100
100
100
100
100
100
100.948
100.423
100
100
100
100
100
100
100
100
100
100
100
100
100
100
100
100
100
100
100.898
100.209
100
100
100
100
100
100
100
100
100
100
100
100
100
100
100
100
100
100
100.867
100.004
100
100
100
100
100
100
100
100
100
100
100
100
100
100
100
100
100
100
100.816
100
100
100
100
100
100
100
100
100
100
100
100
100
100
100
100
100
100
100
100.816
100
100
100
100
100
100
100
100
100
100
100
100
100
100
100
100
100
100
100
100.867
100.004
100
100
100
100
100
100
100
100
100
100
100
100
100
100
100
100
100
100
100.898
100.209
100
100
100
100
100
100
100
100
100
100
100
100
100
100
100
100
100
100
100.947
100.423
100
100
100
100
100
100
100
100
100
100
100
100
100
100
100
100
100
100
100.987
100.583
100
100
100
100
100
100
100
100
100
100
100
100
100
100
100
100
100
100
101.014
100.675
100
100
100
100
100
100
100
100
100
100
100
100
100
100
100
100
100
100
101.034
100.733
100.001
100
100
100
100
100
100
100
100
100
100
100
100
100
100
100
100
100
101.033
100.793
100.111
100
100
100
100
100
100
100
100
100
100
100
100
100
100
100
100
100
101.028
100.849
100.312
100
100
100
100
100
100
100
100
100
100
100
100
100
100
100
100
100
101.023
100.905
100.495
100
100
100
100
100
100
100
100
100
100
100
100
100
100
100
100
100
101.013
100.94
100.681
99.9964
100
100
100
100
100
100
100
100
100
100
100
100
100
100
100
100
101.002
100.971
100.824
100.146
100
100
100
100
100
100
100
100
100
100
100
100
100
100
100
100
100.985
100.984
100.931
100.477
99.9982
100
100
100
100
100
100
100
100
100
100
100
100
100
100
100
100.975
100.983
100.97
100.712
100.01
100
100
100
100
100
100
100
100
100
100
100
100
100
100
100
100.975
100.985
100.977
100.822
100.232
100
100
100
100
100
100
100
100
100
100
100
100
100
100
100
100.978
100.987
100.982
100.922
100.554
99.9922
100
100
100
100
100
100
100
100
100
100
100
100
100
100
100.983
100.989
100.986
100.951
100.798
100.27
99.996
100
100
100
100
100
100
100
100
100
100
100
100
100
100.988
100.991
100.985
100.965
100.928
100.65
100.04
99.9993
100
100
100
100
100
100
100
100
100
100
100
100
100.996
100.995
100.988
100.976
100.964
100.859
100.48
100.011
100
100
100
100
100
100
100
100
100
100
100
100
101
100.998
100.995
100.991
100.982
100.942
100.872
100.445
99.8497
100
100
100
100
100
100
100
100
100
100
100
100.698
100.838
100.915
100.953
100.962
100.951
100.95
100.927
100.844
100.763
100.576
100.235
100.03
99.9958
99.9977
99.9989
99.9998
100
100
100
100.13
100.527
100.736
100.838
100.889
100.904
100.917
100.921
100.917
100.908
100.894
100.84
100.725
100.47
100.147
100.01
99.9966
99.9985
99.9992
99.9998
99.6012
100.141
100.462
100.667
100.774
100.812
100.836
100.861
100.876
100.882
100.882
100.883
100.882
100.858
100.773
100.626
100.364
100.103
100.006
99.9978
99.3987
99.8638
100.204
100.383
100.577
100.694
100.738
100.773
100.798
100.812
100.822
100.836
100.851
100.857
100.856
100.845
100.794
100.679
100.515
100.276
99.4253
99.6816
100.038
100.261
100.395
100.518
100.592
100.645
100.692
100.713
100.727
100.743
100.763
100.789
100.813
100.824
100.822
100.815
100.789
100.744
99.5496
99.6087
99.9602
100.204
100.326
100.398
100.482
100.542
100.593
100.625
100.639
100.655
100.672
100.697
100.729
100.755
100.774
100.785
100.78
100.774
99.7175
99.6161
99.8369
100.101
100.29
100.368
100.42
100.476
100.525
100.56
100.571
100.583
100.594
100.609
100.632
100.659
100.684
100.708
100.725
100.734
99.832
99.6594
99.7036
99.9888
100.242
100.313
100.332
100.39
100.438
100.474
100.487
100.496
100.505
100.515
100.535
100.565
100.598
100.624
100.656
100.654
99.9134
99.7297
99.6998
99.9124
100.166
100.247
100.235
100.266
100.309
100.335
100.369
100.398
100.43
100.448
100.473
100.499
100.522
100.542
100.577
100.566
99.9816
99.8042
99.7239
99.8876
100.055
100.16
100.16
100.175
100.237
100.293
100.33
100.356
100.386
100.398
100.415
100.429
100.445
100.459
100.496
100.493
100.04
99.8637
99.7691
99.8694
99.9819
100.098
100.147
100.174
100.223
100.264
100.288
100.302
100.322
100.333
100.34
100.347
100.359
100.382
100.412
100.453
100.103
99.925
99.8119
99.8668
99.9487
100.054
100.117
100.146
100.173
100.197
100.201
100.21
100.216
100.228
100.246
100.271
100.302
100.333
100.351
100.394
100.182
99.9962
99.8485
99.8733
99.8983
99.9773
100.039
100.062
100.072
100.1
100.11
100.128
100.161
100.195
100.222
100.248
100.27
100.284
100.292
100.324
100.274
100.063
99.8829
99.8734
99.8668
99.8913
99.9518
100.007
100.04
100.081
100.114
100.137
100.172
100.194
100.204
100.216
100.219
100.22
100.219
100.238
100.346
100.117
99.9185
99.8813
99.8774
99.8962
99.9504
100.017
100.056
100.103
100.135
100.143
100.164
100.167
100.163
100.153
100.136
100.127
100.124
100.157
100.358
100.163
99.9759
99.917
99.9088
99.9239
99.9779
100.058
100.092
100.111
100.123
100.119
100.117
100.101
100.078
100.048
100.036
100.051
100.089
100.138
100.337
100.18
100.061
99.996
99.9841
100.006
100.019
100.061
100.078
100.079
100.058
100.034
100.007
99.9835
99.9813
100.008
100.036
100.059
100.081
100.103
100.265
100.165
100.107
100.06
100.04
100.03
100.003
100.005
99.9981
99.9694
99.933
99.9245
99.9245
99.9475
99.9809
100.012
100.029
100.041
100.047
100.041
100.242
100.215
100.275
100.376
100.465
100.484
100.514
100.63
100.783
100.823
100.816
100.776
100.689
100.552
100.416
100.339
100.305
100.321
100.363
100.412
100.61
100.76
100.797
100.867
100.905
100.919
100.947
101.038
101.152
101.174
101.17
101.158
101.141
101.116
101.077
101.045
101.026
101.027
101.046
101.064
101.011
101.013
101.008
100.99
100.953
100.927
100.908
100.907
100.901
100.888
100.87
100.855
100.849
100.85
100.848
100.834
100.818
100.811
100.808
100.802
100.511
100.617
100.697
100.731
100.768
100.792
100.797
100.806
100.819
100.82
100.811
100.801
100.797
100.799
100.801
100.798
100.792
100.788
100.784
100.777
100.026
100.057
100.164
100.277
100.437
100.524
100.575
100.612
100.649
100.681
100.685
100.681
100.682
100.688
100.698
100.709
100.715
100.716
100.716
100.714
100.083
100.089
100.099
100.095
100.127
100.219
100.36
100.435
100.488
100.542
100.567
100.564
100.565
100.571
100.585
100.603
100.616
100.62
100.623
100.625
100.135
100.135
100.131
100.139
100.131
100.129
100.154
100.232
100.346
100.438
100.482
100.496
100.502
100.501
100.508
100.524
100.536
100.539
100.541
100.545
100.185
100.178
100.181
100.183
100.177
100.174
100.171
100.162
100.182
100.275
100.384
100.457
100.471
100.473
100.471
100.48
100.489
100.488
100.489
100.492
100.236
100.228
100.215
100.214
100.215
100.213
100.207
100.197
100.176
100.178
100.233
100.352
100.438
100.456
100.454
100.46
100.46
100.457
100.459
100.463
100.306
100.281
100.256
100.245
100.247
100.245
100.234
100.222
100.204
100.177
100.177
100.213
100.322
100.417
100.438
100.446
100.441
100.438
100.443
100.445
100.37
100.339
100.303
100.275
100.275
100.273
100.261
100.25
100.226
100.2
100.176
100.176
100.199
100.302
100.395
100.424
100.416
100.421
100.431
100.431
100.434
100.405
100.354
100.315
100.299
100.293
100.282
100.269
100.248
100.21
100.193
100.175
100.179
100.195
100.282
100.363
100.384
100.406
100.418
100.415
100.531
100.464
100.41
100.347
100.306
100.305
100.306
100.299
100.283
100.248
100.211
100.197
100.187
100.183
100.18
100.223
100.308
100.359
100.377
100.381
100.618
100.539
100.49
100.44
100.374
100.341
100.324
100.311
100.29
100.265
100.241
100.223
100.206
100.187
100.163
100.154
100.169
100.219
100.279
100.321
100.609
100.586
100.537
100.484
100.435
100.383
100.33
100.309
100.292
100.274
100.261
100.245
100.223
100.199
100.174
100.151
100.141
100.131
100.145
100.22
100.488
100.547
100.54
100.514
100.474
100.427
100.373
100.337
100.316
100.291
100.265
100.236
100.213
100.191
100.172
100.152
100.131
100.114
100.101
100.108
100.25
100.377
100.446
100.483
100.475
100.449
100.41
100.361
100.325
100.295
100.261
100.227
100.207
100.193
100.182
100.164
100.14
100.118
100.095
100.075
100.043
100.146
100.254
100.337
100.389
100.414
100.405
100.379
100.341
100.306
100.272
100.242
100.217
100.196
100.176
100.148
100.121
100.1
100.084
100.061
100.002
100.015
100.066
100.155
100.233
100.29
100.33
100.348
100.339
100.316
100.283
100.249
100.215
100.182
100.16
100.137
100.112
100.097
100.09
100.069
100
100
100.003
100.025
100.078
100.149
100.208
100.25
100.279
100.291
100.282
100.26
100.229
100.196
100.166
100.148
100.125
100.104
100.086
100.057
100
100
100
100.001
100.006
100.03
100.081
100.14
100.187
100.216
100.241
100.243
100.236
100.216
100.186
100.157
100.13
100.102
100.078
100.048
100
100
100
100
100
100.001
100.008
100.033
100.078
100.128
100.169
100.192
100.21
100.209
100.201
100.182
100.156
100.126
100.1
100.068
100
100
100
100
100
100
100
100.001
100.008
100.031
100.073
100.118
100.154
100.174
100.186
100.184
100.177
100.161
100.137
100.097
100
100
100
100
100
100
100
100
100
100.001
100.008
100.029
100.065
100.108
100.14
100.159
100.168
100.167
100.162
100.138
100
100
100
100
100
100
100
100
100
100
100
100.001
100.007
100.024
100.057
100.097
100.128
100.146
100.154
100.151
100
100
100
100
100
100
100
100
100
100
100
100
100
100.001
100.006
100.02
100.048
100.085
100.113
100.138
100
100
100
100
100
100
100
100
100
100
100
100
100
100
100
100.001
100.004
100.016
100.041
100.105
100.596
100.653
100.61
100.416
100.142
100.017
100.001
100
100
100
100
100
100
100
100
100.67
100.662
100.518
100.218
100.022
100
100
100
100
100
100
100
100
100
100
100.704
100.636
100.374
100.074
100.002
100
100
100
100
100
100
100
100
100
100
100.718
100.518
100.167
100.009
100
100
100
100
100
100
100
100
100
100
100
100.65
100.283
100.024
100
100
100
100
100
100
100
100
100
100
100
100
100.394
100.038
100
100
100
100
100
100
100
100
100
100
100
100
100
100.042
100
100
100
100
100
100
100
100
100
100
100
100
100
100
99.9995
100
100
100
100
100
100
100
100
100
100
100
100
100
100
100
100
100
100
100
100
100
100
100
100
100
100
100
100
100
100
100
100
100
100
100
100
100
100
100
100
100
100
100
100
100
100
100
100
100
100
100
100
100
100
100
100
100
100
100
100
100
100
100
100
100
100
100
100
100
100
100
100
100
100
100
100
100
100
100
100
100
100
100
100
100
100
100
100
100
100
100
100
100
100
100
100
100
100
100
100
100
100
100
100
100
100
100
100
100
100
100
100
100
100
100
100
100
100
100
100
100
100
100
100
100
100
100
100
100
100
100
100
100
100
100
100
100
100
100
100
100
100
100
100
100
100
100
100
100
100
100
100
100
100
100
100
100
100
100
100
100
100
100
100
100
100
100
100
100
100
100
100
100
100
100
100
100
100
100
100
100
100
100
100
100
100
100
100
100
100
100
100
100
100
100
100
100
100
100
100
100
100
100
100
100
100
100
100
100
100
100
100
100
100
100
100
100
100
100
100
100
100
100
100
100
100
100
100
100
100
100
100
100
100
100
100
100
100
100
100
100
100
100
100
100
100
100
100
100
100
100
100
100
100
100
100
100
100
100
100
100
100
100
100
100
100
100
100
100
100
100
100
100
100
100
100
100
100
100
100
100
100
100
100
100
100
100
100
100
100
100
100
100
100
100
100
100
100
100
100
100
100
100
100
100
100
100
100
100
100
100
100
100
100
100
100
100
100
100
100
100
100
100
100
100
100
100
100
100
100
100
100
100
100
100
100
100
100
100
100
100
100
100
100
100
100
100
100
100
100
100
100
100
100
100
100
100
100
100
100
100
100
100
100
100
100
100
100
100
100
100
100
100
100
100
100
100
100
100
100
100
100
100
100
100
100
100
100
100
100
100
100
100
100
100
100
100
100
100
100
100
100
100
100
100
100
100
100
100
100
100
100
100
100
100
100
100
100
100
100
100
100
100
100
100
100
100
100
100
100
100
100
100
100
100
100
100
100
100
100
100
100
100
100
100
100
100
100
100
100
100
100
100
100
100
100
100
100
100
100
100
100
100
100
100
100
100
100
100
100
100
100
100
100
100
100
100
100
100
100
100
100
100
100
100
100
100
100
100
100
100
100
100
100
100
100
100
100
100
100
100
100
100
100
100
100
100
100
100
100
100
100
100
100
100
100
100
100
100
100
100
100
100
100
100
100
100
100
100
100
100
100
100
100
100
100
100
100
100
100
100
100
100
100
100
100
100
100
100
100
100
100
100
100
100
100
100
100
100
100
100
100
100
100
100
100
100
100
100
100
100
100
100
100
100
100
100
100
100
100
100
100
100
100
100
100
100
100
100
100
100
100
100
100
100
100
100
100
100
100
100
100
100
100
100
100
100
100
100
100
100
100
100
100
100
100
100
100
100
100
100
100
100
100
100
100
100
100
100
100
100
100
100
100
100
100
100
100
100
100
100
100
100
100
100
100
100
100
100
100
100
100
100
100
100
100
100
100
100
100
100
100
100
100
100
100
100
100
100
100
100
100
100
100
100
100
100
100
100
100
100
100
100
100
100
100
100
100
100
100
100
100
100
100
100
100
100
100
100
100
100
100
100
100
100
100
100
100
100
100
100
100
100
100
100
100
100
100
100
100
100
100
100
100
100
100
100
100
100
100
100
100
100
100
100
100
100
100
100
100
100
100
100
100
100
100
100
100
100
100
100
100
100
100
100
100
100
100
100
100
100
100
100
100
100
100
100
100
100
100
100
100
100
100
100
100
100
100
100
100
100
100
100
100
100
100
100
100
100
100
100
100
100
100
100
100
100
100
100
100
100
100
100
100
100
100
100
100
100
100
100
100
100
100
100
100
100
100
100
100
100
100
100
100
100
100
100
100
100
100
100
100
100
100
100
100
100
100
100
100
100
100
100
100
100
100
100
100
100
100
100
100
100
100
100
100
100
100
100
100
100
100
100
100
100
100
100
100
100
100
100
100
100
100
99.9995
100
100
100
100
100
100
100
100
100
100
100
100
100
100
100.042
100
100
100
100
100
100
100
100
100
100
100
100
100
100
100.394
100.038
100
100
100
100
100
100
100
100
100
100
100
100
100
100.65
100.283
100.025
100
100
100
100
100
100
100
100
100
100
100
100
100.718
100.518
100.167
100.009
100
100
100
100
100
100
100
100
100
100
100
100.704
100.636
100.375
100.074
100.002
100
100
100
100
100
100
100
100
100
100
100.67
100.662
100.519
100.218
100.022
100
100
100
100
100
100
100
100
100
100
100.596
100.653
100.61
100.416
100.142
100.017
100.001
100
100
100
100
100
100
100
100
100.529
100.618
100.609
100.488
100.25
100.043
100.002
100
100
100
100
100
100
100
100
100.464
100.537
100.586
100.547
100.378
100.146
100.015
100
100
100
100
100
100
100
100
100.417
100.489
100.536
100.54
100.446
100.254
100.066
100.003
100
100
100
100
100
100
100
100.353
100.443
100.483
100.514
100.483
100.337
100.155
100.025
100.001
100
100
100
100
100
100
100.306
100.378
100.433
100.474
100.475
100.389
100.233
100.078
100.006
100
100
100
100
100
100
100.303
100.344
100.381
100.426
100.449
100.414
100.29
100.149
100.03
100.001
100
100
100
100
100
100.304
100.327
100.332
100.369
100.41
100.405
100.33
100.209
100.081
100.008
100
100
100
100
100
100.294
100.307
100.314
100.339
100.36
100.379
100.349
100.25
100.14
100.033
100.001
100
100
100
100
100.276
100.281
100.297
100.322
100.325
100.341
100.339
100.279
100.187
100.078
100.008
100
100
100
100
100.247
100.258
100.277
100.296
100.294
100.305
100.316
100.291
100.216
100.128
100.031
100.001
100
100
100
100.216
100.234
100.259
100.266
100.26
100.272
100.283
100.282
100.241
100.169
100.073
100.008
100
100
100
100.202
100.221
100.243
100.236
100.227
100.243
100.249
100.26
100.243
100.192
100.118
100.029
100.001
100
100
100.194
100.206
100.221
100.212
100.209
100.219
100.215
100.229
100.236
100.21
100.154
100.065
100.007
100
100
100.189
100.187
100.197
100.19
100.195
100.197
100.182
100.196
100.216
100.209
100.174
100.108
100.024
100.001
100
100.183
100.164
100.173
100.172
100.182
100.176
100.159
100.166
100.186
100.201
100.186
100.14
100.057
100.006
100
100.225
100.155
100.152
100.151
100.162
100.147
100.136
100.148
100.157
100.182
100.184
100.159
100.097
100.02
100.001
100.309
100.17
100.142
100.13
100.139
100.121
100.112
100.125
100.13
100.156
100.177
100.168
100.128
100.048
100.004
100.359
100.219
100.131
100.114
100.117
100.1
100.097
100.104
100.102
100.126
100.16
100.167
100.146
100.085
100.016
100.376
100.278
100.144
100.101
100.095
100.085
100.09
100.086
100.078
100.1
100.137
100.162
100.154
100.113
100.041
100.38
100.32
100.22
100.108
100.074
100.061
100.07
100.057
100.048
100.068
100.097
100.138
100.151
100.138
100.105
100.436
100.406
100.356
100.311
100.292
100.292
100.287
100.271
100.249
100.216
100.197
100.187
100.185
100.199
100.286
100.369
100.385
100.405
100.418
100.414
100.372
100.341
100.298
100.265
100.267
100.271
100.266
100.253
100.229
100.203
100.187
100.183
100.204
100.307
100.396
100.421
100.414
100.419
100.431
100.43
100.307
100.281
100.245
100.238
100.242
100.243
100.235
100.222
100.203
100.178
100.18
100.22
100.329
100.42
100.431
100.441
100.437
100.436
100.442
100.445
100.238
100.225
100.208
100.21
100.215
100.213
100.206
100.193
100.172
100.177
100.239
100.36
100.44
100.451
100.449
100.456
100.458
100.457
100.459
100.462
100.184
100.176
100.178
100.181
100.177
100.173
100.17
100.16
100.177
100.271
100.388
100.456
100.466
100.466
100.469
100.482
100.49
100.489
100.489
100.492
100.134
100.133
100.13
100.14
100.14
100.133
100.157
100.232
100.339
100.434
100.486
100.497
100.498
100.498
100.508
100.526
100.538
100.539
100.541
100.545
100.08
100.09
100.1
100.097
100.121
100.214
100.363
100.438
100.481
100.534
100.571
100.569
100.57
100.573
100.586
100.604
100.616
100.62
100.622
100.625
100.024
100.058
100.156
100.269
100.427
100.52
100.576
100.612
100.639
100.67
100.687
100.688
100.688
100.69
100.697
100.709
100.716
100.716
100.715
100.714
100.65
100.655
100.679
100.714
100.763
100.79
100.798
100.803
100.811
100.811
100.809
100.805
100.8
100.8
100.8
100.796
100.792
100.786
100.782
100.778
101.066
101.031
100.998
100.98
100.952
100.929
100.908
100.903
100.899
100.882
100.864
100.854
100.849
100.85
100.845
100.829
100.816
100.81
100.808
100.802
)
;

boundaryField
{
    inlet
    {
        type            fixedValue;
        value           uniform 100;
    }
    outlet
    {
        type            inletOutlet;
        inletValue      uniform 100;
        value           nonuniform List<scalar> 
50
(
100.381
100.321
100.22
100.108
100.075
100.061
100.069
100.057
100.048
100.068
100.097
100.138
100.151
100.138
100.105
100.802
100.777
100.714
100.625
100.545
100.492
100.463
100.445
100.431
100.415
100.414
100.43
100.445
100.462
100.492
100.545
100.625
100.714
100.778
100.802
100.38
100.32
100.22
100.108
100.074
100.061
100.07
100.057
100.048
100.068
100.097
100.138
100.151
100.138
100.105
)
;
    }
    airfoil
    {
        type            zeroGradient;
    }
    top
    {
        type            symmetryPlane;
    }
    bottom
    {
        type            symmetryPlane;
    }
    defaultFaces
    {
        type            empty;
    }
}


// ************************************************************************* //
