/*--------------------------------*- C++ -*----------------------------------*\
  =========                 |
  \\      /  F ield         | OpenFOAM: The Open Source CFD Toolbox
   \\    /   O peration     | Website:  https://openfoam.org
    \\  /    A nd           | Version:  7
     \\/     M anipulation  |
\*---------------------------------------------------------------------------*/
FoamFile
{
    version     2.0;
    format      ascii;
    class       volScalarField;
    location    "9.1";
    object      p;
}
// * * * * * * * * * * * * * * * * * * * * * * * * * * * * * * * * * * * * * //

dimensions      [1 -1 -2 0 0 0 0];

internalField   nonuniform List<scalar> 
3700
(
0.0991695
0.180819
0.224073
0.280638
0.310466
0.362622
0.406478
0.445354
0.452055
0.449121
0.463737
0.468488
0.484571
0.495503
0.49108
0.506093
0.510291
0.513832
0.525672
0.515677
0.0646929
0.0785439
0.101394
0.122934
0.114111
0.121859
0.13902
0.15088
0.143681
0.121125
0.128299
0.148926
0.17901
0.195999
0.203864
0.215641
0.22602
0.238737
0.238658
0.213371
0.0675126
0.0762192
0.078244
0.0721533
0.060759
0.0523948
0.0485572
0.0488545
0.0526045
0.0576139
0.0658264
0.0738373
0.083763
0.096386
0.108151
0.116748
0.121717
0.122469
0.121922
0.12246
0.0729742
0.0760328
0.0690557
0.0611697
0.0556684
0.0569175
0.0530528
0.0556511
0.0634501
0.0733295
0.0759279
0.0825891
0.0919394
0.105982
0.122018
0.140123
0.158536
0.170446
0.177867
0.178591
0.0724183
0.0701369
0.0645007
0.0586171
0.0569755
0.0665104
0.0705056
0.079213
0.0936996
0.109589
0.105713
0.112013
0.110205
0.113702
0.125333
0.146953
0.172354
0.198408
0.222253
0.243222
0.0764227
0.0649096
0.0586159
0.0521205
0.0519227
0.0650782
0.0763523
0.093926
0.113559
0.129098
0.145592
0.16175
0.163607
0.168803
0.166757
0.170089
0.184596
0.219895
0.258193
0.317287
0.0816847
0.0560166
0.0473869
0.046149
0.0490479
0.0596654
0.0731952
0.0968007
0.121609
0.144733
0.172868
0.192022
0.216436
0.238126
0.250047
0.257033
0.266282
0.27925
0.30784
0.394805
0.0825409
0.0474635
0.0419551
0.0454983
0.0524976
0.0598602
0.0718208
0.0945426
0.120413
0.149405
0.186099
0.213591
0.256222
0.291491
0.325777
0.359295
0.387792
0.412986
0.436516
0.530681
0.0790421
0.0443225
0.0417334
0.0537884
0.0691043
0.0783199
0.0996717
0.128286
0.145792
0.16526
0.194859
0.231138
0.287225
0.339222
0.392978
0.453209
0.511081
0.570587
0.607887
0.729659
0.0755148
0.0427329
0.0430937
0.061902
0.0793662
0.101357
0.14358
0.183709
0.220069
0.258121
0.288367
0.326446
0.370359
0.425002
0.482849
0.558737
0.652927
0.7476
0.840504
0.963318
0.066171
0.0382781
0.042804
0.0573228
0.0757287
0.107502
0.166951
0.213376
0.27932
0.362836
0.428246
0.494357
0.560633
0.627617
0.681929
0.749757
0.845805
0.959063
1.16556
1.15167
0.0503146
0.0307472
0.03356
0.0433866
0.0661314
0.105416
0.167893
0.216769
0.303173
0.431088
0.542851
0.654303
0.76949
0.868311
0.968279
1.07561
1.18622
1.30546
1.53267
1.50726
0.0357642
0.0230681
0.025781
0.0389521
0.0654027
0.111198
0.166051
0.240103
0.376888
0.537714
0.70513
0.861109
1.02171
1.16145
1.3315
1.50758
1.67576
1.83128
2.08062
2.06876
0.0269378
0.0187473
0.0205192
0.0365727
0.0779517
0.221496
0.35095
0.528622
0.752734
0.96434
1.14891
1.30921
1.4738
1.63651
1.85657
2.10383
2.34481
2.58709
2.78562
2.99646
0.0187779
0.0175922
0.0181129
0.0508366
0.18165
0.444654
0.68071
0.949397
1.25562
1.54804
1.76717
1.97597
2.192
2.42256
2.71938
3.0055
3.27795
3.50667
3.64669
3.7731
0.00986586
0.0186657
0.0290903
0.166071
0.431894
0.723185
1.08225
1.48619
1.92275
2.29236
2.56825
2.84366
3.12502
3.43226
3.76263
3.9796
4.10226
4.13693
4.04116
3.91171
0.00607244
0.0324626
0.14257
0.421583
0.899575
1.42656
1.94921
2.52313
3.13987
3.52923
3.75922
3.99655
4.20894
4.38522
4.47592
4.4003
4.18128
3.64425
2.78645
1.88915
0.0414037
0.179828
0.551752
1.18969
2.03922
2.86864
3.56292
4.26215
4.76906
4.83125
4.73295
4.73941
4.70207
4.54074
4.03396
3.0744
2.09269
1.33064
1.01763
0.992866
0.307521
0.850282
1.93306
3.20087
4.2478
4.8587
5.39281
5.87678
5.74231
5.29282
4.85317
4.31278
3.39612
2.32649
1.42456
1.02907
0.989367
0.994937
0.997329
0.999445
2.3239
3.65442
4.93434
5.75292
6.23907
6.43267
6.56457
6.2445
4.54865
3.21314
2.37869
1.57383
1.08451
0.987744
0.992966
0.996284
0.999148
0.999972
1.00002
1.00001
6.9828
6.93386
6.89109
6.93728
7.05267
6.79166
6.00768
2.26546
0.652117
1
1
1
1
1
1
1
1
1
1
1
6.91405
6.87785
6.77858
6.69653
6.93012
5.77272
2.56585
1.00974
1
1
1
1
1
1
1
1
1
1
1
1
6.77952
6.84317
6.75512
6.56269
6.29443
3.42407
1.05537
0.999044
1
1
1
1
1
1
1
1
1
1
1
1
6.65582
6.83906
6.85887
6.50645
4.75317
1.50787
0.992604
1.00012
0.999999
1
1
1
1
1
1
1
1
1
1
1
6.49534
6.8236
6.86814
6.34873
2.69322
0.97485
1.00037
0.999994
1
1
1
1
1
1
1
1
1
1
1
1
6.38597
6.72071
6.75812
4.87584
1.3681
1
1
1
1
1
1
1
1
1
1
1
1
1
1
1
6.36002
6.66846
6.57185
3.55192
0.995931
1
1
1
1
1
1
1
1
1
1
1
1
1
1
1
6.49546
6.71731
6.15792
2.05152
0.999982
1
1
1
1
1
1
1
1
1
1
1
1
1
1
1
6.94308
6.67455
4.90063
1.19939
1
1
1
1
1
1
1
1
1
1
1
1
1
1
1
1
7.24751
6.36486
3.50351
0.987382
1
1
1
1
1
1
1
1
1
1
1
1
1
1
1
1
7.45603
6.04566
2.27008
1
1
1
1
1
1
1
1
1
1
1
1
1
1
1
1
1
7.51912
5.37384
1.59997
1
1
1
1
1
1
1
1
1
1
1
1
1
1
1
1
1
7.57488
4.70928
1.1625
1
1
1
1
1
1
1
1
1
1
1
1
1
1
1
1
1
7.3919
3.95637
1.00012
1
1
1
1
1
1
1
1
1
1
1
1
1
1
1
1
1
7.10763
3.27099
1
1
1
1
1
1
1
1
1
1
1
1
1
1
1
1
1
1
6.96529
2.5694
1
1
1
1
1
1
1
1
1
1
1
1
1
1
1
1
1
1
6.74422
1.86348
1
1
1
1
1
1
1
1
1
1
1
1
1
1
1
1
1
1
6.26484
1.32573
1
1
1
1
1
1
1
1
1
1
1
1
1
1
1
1
1
1
5.72146
1.00445
1
1
1
1
1
1
1
1
1
1
1
1
1
1
1
1
1
1
4.66214
1.00014
1
1
1
1
1
1
1
1
1
1
1
1
1
1
1
1
1
1
4.65579
1.00014
1
1
1
1
1
1
1
1
1
1
1
1
1
1
1
1
1
1
5.73608
1.00457
1
1
1
1
1
1
1
1
1
1
1
1
1
1
1
1
1
1
6.26674
1.32949
1
1
1
1
1
1
1
1
1
1
1
1
1
1
1
1
1
1
6.71955
1.85365
1
1
1
1
1
1
1
1
1
1
1
1
1
1
1
1
1
1
6.99352
2.55012
1
1
1
1
1
1
1
1
1
1
1
1
1
1
1
1
1
1
7.1113
3.28742
1
1
1
1
1
1
1
1
1
1
1
1
1
1
1
1
1
1
7.37602
3.9708
1.00006
1
1
1
1
1
1
1
1
1
1
1
1
1
1
1
1
1
7.57553
4.71203
1.15888
1
1
1
1
1
1
1
1
1
1
1
1
1
1
1
1
1
7.52195
5.36482
1.60086
1
1
1
1
1
1
1
1
1
1
1
1
1
1
1
1
1
7.45892
6.04154
2.26989
1
1
1
1
1
1
1
1
1
1
1
1
1
1
1
1
1
7.2585
6.37208
3.48684
0.987418
1
1
1
1
1
1
1
1
1
1
1
1
1
1
1
1
6.9508
6.6519
4.87917
1.20639
1
1
1
1
1
1
1
1
1
1
1
1
1
1
1
1
6.514
6.73474
6.15989
2.038
0.999977
1
1
1
1
1
1
1
1
1
1
1
1
1
1
1
6.36982
6.6815
6.58355
3.5777
0.999132
1
1
1
1
1
1
1
1
1
1
1
1
1
1
1
6.39606
6.71302
6.72816
4.86763
1.3887
1
1
1
1
1
1
1
1
1
1
1
1
1
1
1
6.49471
6.80941
6.85451
6.31565
2.66847
0.975309
1.00037
0.999994
1
1
1
1
1
1
1
1
1
1
1
1
6.65487
6.84151
6.85885
6.56473
4.74086
1.49483
0.992411
1.00013
0.999999
1
1
1
1
1
1
1
1
1
1
1
6.78096
6.84617
6.76147
6.56935
6.28387
3.45234
1.06078
0.998919
1
1
1
1
1
1
1
1
1
1
1
1
6.90327
6.87119
6.76446
6.68922
6.92119
5.7761
2.58108
1.01082
1
1
1
1
1
1
1
1
1
1
1
1
6.97535
6.92754
6.87494
6.93398
7.06433
6.7884
5.99739
2.24766
0.656985
1
1
1
1
1
1
1
1
1
1
1
2.32187
3.64932
4.9261
5.75046
6.2527
6.43363
6.56997
6.24312
4.54625
3.21099
2.37738
1.57421
1.08537
0.987781
0.993033
0.996321
0.999152
0.999971
1.00002
1.00001
0.308954
0.854664
1.93148
3.19532
4.25919
4.87103
5.40445
5.88008
5.74348
5.29255
4.85354
4.31238
3.39597
2.32634
1.42449
1.02894
0.989356
0.994931
0.997326
0.999444
0.0403978
0.177271
0.547961
1.18789
2.03552
2.87148
3.56855
4.26145
4.7724
4.83393
4.73301
4.73639
4.699
4.53852
4.03322
3.07477
2.0935
1.33118
1.01777
0.992877
0.00629377
0.0356118
0.149922
0.417704
0.903598
1.42632
1.944
2.51945
3.13924
3.52904
3.75658
3.99211
4.20346
4.38212
4.4765
4.40124
4.1827
3.64631
2.78793
1.889
0.00869317
0.0173174
0.0325148
0.171667
0.431564
0.729661
1.08977
1.49109
1.92757
2.29881
2.57226
2.84505
3.12526
3.43246
3.76308
3.98226
4.10508
4.1379
4.04181
3.91109
0.0176503
0.0159064
0.0171919
0.0560793
0.175182
0.439369
0.677709
0.948946
1.25896
1.55149
1.77064
1.97789
2.19249
2.42135
2.71681
3.00424
3.2796
3.50814
3.64656
3.77208
0.0260785
0.0171384
0.0184598
0.0369044
0.0753676
0.211118
0.341096
0.521628
0.746628
0.958592
1.14421
1.3051
1.46974
1.63245
1.85372
2.10308
2.34637
2.58882
2.78585
2.99545
0.0356974
0.0220207
0.0224484
0.0387571
0.0660532
0.111768
0.169166
0.244685
0.377138
0.537682
0.703958
0.859963
1.02046
1.16068
1.33161
1.50908
1.67799
1.83324
2.08134
2.06895
0.0496822
0.0307664
0.0331812
0.0448879
0.0689513
0.109933
0.174251
0.222099
0.308617
0.434302
0.544379
0.6547
0.768901
0.8681
0.968314
1.07605
1.18709
1.30581
1.53255
1.5075
0.0645275
0.0388495
0.0439749
0.0600396
0.0804461
0.111385
0.169682
0.214946
0.280758
0.362556
0.427198
0.492869
0.558702
0.625695
0.68019
0.748169
0.844932
0.959242
1.16623
1.15118
0.0736426
0.0426125
0.0431318
0.0622024
0.0808099
0.102347
0.142422
0.181529
0.217506
0.25471
0.285155
0.323731
0.368615
0.423826
0.482578
0.559387
0.653568
0.748387
0.841828
0.963976
0.0773756
0.0443064
0.0405519
0.0525928
0.0680192
0.0761046
0.09632
0.125207
0.143833
0.164579
0.195861
0.232641
0.288941
0.340879
0.394613
0.454716
0.512137
0.571223
0.608069
0.730534
0.0812755
0.0472123
0.0409038
0.0454835
0.051451
0.0601181
0.0725715
0.0958464
0.121867
0.15102
0.187727
0.215286
0.257702
0.292797
0.326763
0.359695
0.387701
0.412096
0.434708
0.529804
0.0824079
0.0552915
0.0463668
0.046015
0.0495378
0.0610759
0.0748502
0.0982788
0.122574
0.14582
0.173755
0.192906
0.216887
0.237961
0.248973
0.255179
0.263919
0.276836
0.305706
0.394306
0.078708
0.0651309
0.0572199
0.052524
0.0530503
0.066498
0.0774706
0.0942484
0.113777
0.129359
0.145459
0.161423
0.162338
0.167154
0.165083
0.168416
0.183362
0.219509
0.25819
0.317665
0.0750544
0.0705499
0.0638811
0.0586247
0.0577505
0.0671165
0.0703695
0.0787248
0.0934523
0.109098
0.104734
0.110758
0.109454
0.113247
0.125025
0.146719
0.172317
0.1987
0.222749
0.243637
0.0747193
0.0767537
0.0700273
0.0618432
0.0558579
0.056513
0.0527993
0.0554172
0.062905
0.0728163
0.0758795
0.0827335
0.0921413
0.106097
0.122076
0.140201
0.158674
0.170851
0.178165
0.178726
0.0692092
0.0767714
0.0806186
0.0739586
0.0611207
0.0520101
0.0492356
0.0492533
0.0530654
0.0580333
0.0662202
0.0740263
0.0839154
0.0966456
0.108448
0.116936
0.121829
0.122497
0.12199
0.122726
0.0675888
0.0867204
0.1096
0.127602
0.146766
0.141103
0.11981
0.103366
0.121521
0.145711
0.16173
0.151807
0.150948
0.165096
0.190759
0.210059
0.202378
0.187586
0.18938
0.194081
0.100721
0.195043
0.23563
0.276308
0.328084
0.379319
0.395619
0.412885
0.441586
0.457026
0.47585
0.463638
0.461223
0.483253
0.489941
0.497916
0.495305
0.49024
0.515768
0.529611
0.557036
0.649613
0.695462
0.783497
0.841216
0.890628
0.882335
0.86389
0.854864
0.86867
0.910791
0.964821
0.97233
0.952695
0.926027
0.929583
0.956094
0.983297
0.983563
0.962685
0.269245
0.428044
0.557774
0.663528
0.766477
0.857867
0.873389
0.880987
0.876498
0.884963
0.909099
0.944324
0.955608
0.95031
0.935873
0.934575
0.945694
0.96576
0.969297
0.962281
0.134478
0.169688
0.252854
0.342022
0.493183
0.68104
0.78747
0.867708
0.889017
0.898168
0.907031
0.922394
0.938568
0.946413
0.949433
0.948388
0.949614
0.951476
0.953654
0.958666
0.186076
0.219616
0.22503
0.229084
0.24094
0.309508
0.507623
0.744933
0.836399
0.908035
0.911826
0.902853
0.914481
0.943887
0.96036
0.961617
0.954092
0.943291
0.944233
0.957378
0.237967
0.260879
0.282523
0.280456
0.275542
0.278391
0.296702
0.401936
0.653005
0.840494
0.873254
0.880637
0.901309
0.941519
0.969368
0.970268
0.959027
0.938946
0.939785
0.957483
0.313799
0.329456
0.341856
0.32566
0.309091
0.306277
0.315873
0.332633
0.390152
0.547386
0.738234
0.831663
0.870345
0.932259
0.965296
0.966987
0.959953
0.940084
0.941865
0.961355
0.39811
0.413511
0.407914
0.374173
0.359572
0.358575
0.36235
0.37591
0.383262
0.391922
0.471181
0.678992
0.820743
0.910681
0.959242
0.963944
0.957759
0.940883
0.945479
0.964351
0.512658
0.502995
0.491002
0.459012
0.415227
0.395013
0.396852
0.40208
0.406078
0.402255
0.4021
0.449602
0.643985
0.82209
0.915112
0.9527
0.944921
0.938874
0.955822
0.965327
0.67075
0.614099
0.574844
0.534149
0.485403
0.449623
0.437618
0.439815
0.437583
0.4263
0.415917
0.412528
0.448021
0.621168
0.81917
0.941267
0.920209
0.934044
0.965819
0.96358
0.868732
0.749927
0.680126
0.634191
0.575946
0.515075
0.48166
0.472671
0.466345
0.461169
0.446384
0.429869
0.431973
0.457305
0.607234
0.832455
0.885089
0.941003
0.97357
0.959796
1.28526
0.946179
0.73395
0.699425
0.696228
0.665874
0.588293
0.527003
0.503388
0.493756
0.488576
0.480906
0.470533
0.466691
0.478106
0.565242
0.753401
0.897851
0.938888
0.949691
2.03727
1.52688
1.12582
0.871167
0.855042
0.830858
0.753148
0.670141
0.605834
0.561762
0.544531
0.540781
0.529809
0.510937
0.482367
0.48582
0.524881
0.643675
0.791285
0.910372
2.49897
2.16721
1.74973
1.32718
1.056
0.931467
0.84398
0.774985
0.701454
0.673749
0.670237
0.650129
0.61519
0.574624
0.543119
0.514355
0.520704
0.535198
0.580842
0.752349
2.36601
2.34911
2.23317
1.94384
1.56137
1.25359
1.06309
0.955459
0.864666
0.808729
0.768914
0.721534
0.661965
0.620236
0.589245
0.573225
0.57023
0.564133
0.550934
0.582357
1.68241
2.15442
2.22155
2.19448
2.04934
1.77548
1.48279
1.24651
1.08879
0.945835
0.852271
0.792984
0.732675
0.727538
0.712573
0.674163
0.641976
0.617995
0.571802
0.572763
1.10847
1.44091
1.84996
2.11461
2.1124
2.07288
1.93445
1.68379
1.44689
1.23279
1.06881
0.976716
0.908158
0.86038
0.810771
0.740283
0.685225
0.655555
0.632974
0.607561
1.00452
1.04437
1.20722
1.54947
1.86228
2.01922
2.01499
1.97055
1.83626
1.63249
1.39707
1.21949
1.08237
0.963654
0.891657
0.828002
0.765899
0.733661
0.730757
0.69939
1.00009
1.00111
1.01063
1.07881
1.26705
1.57315
1.82043
1.93516
1.92934
1.88927
1.7694
1.5794
1.3932
1.21013
1.08571
1.01922
0.941448
0.877137
0.831103
0.762675
1
1.00001
1.00015
1.00252
1.01872
1.09935
1.29068
1.56065
1.76779
1.85671
1.85128
1.81449
1.71785
1.5581
1.37325
1.22548
1.1083
0.999426
0.917967
0.829828
1
1
1
1.00003
1.00032
1.00374
1.02557
1.10738
1.28511
1.52073
1.71062
1.78683
1.78263
1.75517
1.67564
1.53482
1.38215
1.23274
1.12245
0.996065
1
1
1
1
1
1.00004
1.00053
1.00442
1.02723
1.10462
1.26607
1.46982
1.64459
1.72835
1.72432
1.70223
1.64384
1.52866
1.39478
1.19358
1
1
1
1
1
1
1
1.00006
1.00062
1.0047
1.02484
1.09708
1.23348
1.42098
1.57044
1.66982
1.66845
1.65568
1.61788
1.46528
1
1
1
1
1
1
1
1
1.00001
1.00006
1.00055
1.0047
1.02051
1.08199
1.19828
1.37278
1.50395
1.60386
1.61576
1.59269
1
1
1
1
1
1
1
1
1
1
1.00001
1.00006
1.00045
1.00371
1.0175
1.06336
1.16491
1.31535
1.44339
1.54793
1
1
1
1
1
1
1
1
1
1
1
1
1
1.00005
1.0004
1.00256
1.01413
1.05158
1.1371
1.38838
1.61985
2.46589
2.58559
2.08459
1.30938
1.03697
1.00188
1.00005
1
1
1
1
1
1
1
2.34871
2.81832
2.52815
1.53988
1.048
1.0008
1
1
1
1
1
1
1
1
1
2.93231
2.87233
1.98038
1.15192
1.00517
1.00005
1
1
1
1
1
1
1
1
1
3.2533
2.55692
1.36551
1.01944
1.00019
1
1
1
1
1
1
1
1
1
1
3.31751
1.6859
1.04745
1.0005
1
1
1
1
1
1
1
1
1
1
1
2.06833
1.07342
1.0005
0.999999
1
1
1
1
1
1
1
1
1
1
1
1.10233
1.00057
0.999997
1
1
1
1
1
1
1
1
1
1
1
1
0.998134
0.999864
0.999996
1
1
1
1
1
1
1
1
1
1
1
1
0.999967
1
1
1
1
1
1
1
1
1
1
1
1
1
1
1
1
1
1
1
1
1
1
1
1
1
1
1
1
1
1
1
1
1
1
1
1
1
1
1
1
1
1
1
1
1
1
1
1
1
1
1
1
1
1
1
1
1
1
1
1
1
1
1
1
1
1
1
1
1
1
1
1
1
1
1
1
1
1
1
1
1
1
1
1
1
1
1
1
1
1
1
1
1
1
1
1
1
1
1
1
1
1
1
1
1
1
1
1
1
1
1
1
1
1
1
1
1
1
1
1
1
1
1
1
1
1
1
1
1
1
1
1
1
1
1
1
1
1
1
1
1
1
1
1
1
1
1
1
1
1
1
1
1
1
1
1
1
1
1
1
1
1
1
1
1
1
1
1
1
1
1
1
1
1
1
1
1
1
1
1
1
1
1
1
1
1
1
1
1
1
1
1
1
1
1
1
1
1
1
1
1
1
1
1
1
1
1
1
1
1
1
1
1
1
1
1
1
1
1
1
1
1
1
1
1
1
1
1
1
1
1
1
1
1
1
1
1
1
1
1
1
1
1
1
1
1
1
1
1
1
1
1
1
1
1
1
1
1
1
1
1
1
1
1
1
1
1
1
1
1
1
1
1
1
1
1
1
1
1
1
1
1
1
1
1
1
1
1
1
1
1
1
1
1
1
1
1
1
1
1
1
1
1
1
1
1
1
1
1
1
1
1
1
1
1
1
1
1
1
1
1
1
1
1
1
1
1
1
1
1
1
1
1
1
1
1
1
1
1
1
1
1
1
1
1
1
1
1
1
1
1
1
1
1
1
1
1
1
1
1
1
1
1
1
1
1
1
1
1
1
1
1
1
1
1
1
1
1
1
1
1
1
1
1
1
1
1
1
1
1
1
1
1
1
1
1
1
1
1
1
1
1
1
1
1
1
1
1
1
1
1
1
1
1
1
1
1
1
1
1
1
1
1
1
1
1
1
1
1
1
1
1
1
1
1
1
1
1
1
1
1
1
1
1
1
1
1
1
1
1
1
1
1
1
1
1
1
1
1
1
1
1
1
1
1
1
1
1
1
1
1
1
1
1
1
1
1
1
1
1
1
1
1
1
1
1
1
1
1
1
1
1
1
1
1
1
1
1
1
1
1
1
1
1
1
1
1
1
1
1
1
1
1
1
1
1
1
1
1
1
1
1
1
1
1
1
1
1
1
1
1
1
1
1
1
1
1
1
1
1
1
1
1
1
1
1
1
1
1
1
1
1
1
1
1
1
1
1
1
1
1
1
1
1
1
1
1
1
1
1
1
1
1
1
1
1
1
1
1
1
1
1
1
1
1
1
1
1
1
1
1
1
1
1
1
1
1
1
1
1
1
1
1
1
1
1
1
1
1
1
1
1
1
1
1
1
1
1
1
1
1
1
1
1
1
1
1
1
1
1
1
1
1
1
1
1
1
1
1
1
1
1
1
1
1
1
1
1
1
1
1
1
1
1
1
1
1
1
1
1
1
1
1
1
1
1
1
1
1
1
1
1
1
1
1
1
1
1
1
1
1
1
1
1
1
1
1
1
1
1
1
1
1
1
1
1
1
1
1
1
1
1
1
1
1
1
1
1
1
1
1
1
1
1
1
1
1
1
1
1
1
1
1
1
1
1
1
1
1
1
1
1
1
1
1
1
1
1
1
1
1
1
1
1
1
1
1
1
1
1
1
1
1
1
1
1
1
1
1
1
1
1
1
1
1
1
1
1
1
1
1
1
1
1
1
1
1
1
1
1
1
1
1
1
1
1
1
1
1
1
1
1
1
1
1
1
1
1
1
1
1
1
1
1
1
1
1
1
1
1
1
1
1
1
1
1
1
1
1
1
1
1
1
1
1
1
1
1
1
1
1
1
1
1
1
1
1
1
1
1
1
1
1
1
0.999967
1
1
1
1
1
1
1
1
1
1
1
1
1
1
0.998137
0.999864
0.999996
1
1
1
1
1
1
1
1
1
1
1
1
1.10214
1.00056
0.999997
1
1
1
1
1
1
1
1
1
1
1
1
2.06762
1.07338
1.0005
0.999999
1
1
1
1
1
1
1
1
1
1
1
3.3167
1.68595
1.04751
1.0005
1
1
1
1
1
1
1
1
1
1
1
3.25273
2.55705
1.36573
1.01946
1.00019
1
1
1
1
1
1
1
1
1
1
2.93154
2.87235
1.98086
1.15207
1.00518
1.00005
1
1
1
1
1
1
1
1
1
2.34917
2.81831
2.52834
1.53994
1.04798
1.0008
1
1
1
1
1
1
1
1
1
1.61834
2.46582
2.58589
2.08479
1.30937
1.03695
1.00188
1.00005
1
1
1
1
1
1
1
1.29015
2.03635
2.49856
2.36606
1.68228
1.10859
1.00452
1.00009
1
1
1
1
1
1
1
0.946602
1.53194
2.16985
2.34831
2.15374
1.4403
1.04432
1.00111
1.00001
1
1
1
1
1
1
0.727028
1.11515
1.74783
2.23676
2.22197
1.84879
1.2064
1.01058
1.00015
1
1
1
1
1
1
0.70078
0.8739
1.3131
1.9446
2.19407
2.11389
1.549
1.07855
1.0025
1.00003
1
1
1
1
1
0.702492
0.865287
1.06286
1.55255
2.04656
2.11176
1.86145
1.26736
1.01883
1.00033
1
1
1
1
1
0.660749
0.835179
0.949787
1.25588
1.77405
2.0732
2.01887
1.57304
1.09945
1.00376
1.00004
1
1
1
1
0.580141
0.742242
0.843531
1.07618
1.49076
1.93437
2.01489
1.82094
1.29076
1.0254
1.00053
1
1
1
1
0.542982
0.660449
0.7606
0.955777
1.24901
1.68823
1.9715
1.93531
1.55963
1.10757
1.00446
1.00006
1
1
1
0.519875
0.597366
0.695829
0.872893
1.08118
1.44979
1.8369
1.92934
1.76794
1.28473
1.0271
1.00061
1.00001
1
1
0.502419
0.559709
0.678035
0.821676
0.938125
1.22887
1.63058
1.88962
1.85759
1.52135
1.10451
1.00468
1.00006
1
1
0.493344
0.541812
0.668036
0.773711
0.850132
1.06633
1.3996
1.76908
1.8518
1.70939
1.26623
1.02503
1.00055
1.00001
1
0.486737
0.540346
0.642415
0.715788
0.789229
0.976277
1.22216
1.58091
1.8151
1.78743
1.47037
1.09695
1.00469
1.00006
1
0.476579
0.53278
0.611516
0.661572
0.733383
0.90615
1.07848
1.39167
1.71849
1.78334
1.64548
1.23366
1.02046
1.00045
1
0.463159
0.514122
0.57453
0.625395
0.73101
0.858535
0.964475
1.21038
1.55639
1.75556
1.72774
1.42088
1.08226
1.00373
1.00005
0.473737
0.480399
0.540937
0.593799
0.716565
0.808452
0.892726
1.09155
1.37365
1.67531
1.72366
1.57053
1.19838
1.01753
1.0004
0.560477
0.484117
0.512919
0.577657
0.681871
0.742129
0.822065
1.01722
1.22567
1.53454
1.70187
1.66998
1.3726
1.0633
1.00255
0.750966
0.523837
0.518543
0.572199
0.650861
0.691208
0.762497
0.93579
1.1062
1.38153
1.64379
1.66859
1.50393
1.16482
1.01411
0.898359
0.643278
0.531312
0.562627
0.62389
0.65652
0.732756
0.875485
0.998745
1.2322
1.52865
1.65568
1.60425
1.31556
1.05167
0.945856
0.789035
0.572071
0.545793
0.575351
0.630388
0.728639
0.831074
0.919126
1.12329
1.39498
1.61792
1.61585
1.44351
1.13726
0.954443
0.911374
0.743037
0.578341
0.571685
0.607722
0.697904
0.76235
0.830478
0.997164
1.19392
1.46554
1.5929
1.54817
1.38855
0.866393
0.746263
0.676605
0.635192
0.572559
0.504085
0.472124
0.469998
0.465825
0.457605
0.44561
0.432661
0.431345
0.457185
0.603068
0.827848
0.882089
0.939585
0.979644
0.964237
0.663466
0.613317
0.577135
0.537357
0.477662
0.440092
0.434931
0.439689
0.43972
0.428854
0.416137
0.411581
0.446239
0.624259
0.810743
0.940225
0.920661
0.93466
0.969638
0.966663
0.506802
0.504036
0.493071
0.458864
0.411663
0.394174
0.40032
0.407729
0.409119
0.403001
0.400204
0.444993
0.637261
0.816042
0.919893
0.955578
0.94731
0.938269
0.956891
0.966
0.396373
0.411924
0.412872
0.386861
0.357871
0.353546
0.35758
0.373397
0.382366
0.387213
0.459766
0.670784
0.816736
0.901613
0.963822
0.967202
0.957029
0.935786
0.941194
0.96152
0.31304
0.331647
0.339692
0.322207
0.303681
0.303501
0.317613
0.332399
0.385881
0.525403
0.72858
0.837996
0.876863
0.933337
0.968999
0.971035
0.959811
0.932929
0.932796
0.95459
0.238146
0.26088
0.282643
0.282491
0.279634
0.281545
0.302916
0.410829
0.639639
0.82176
0.880158
0.891127
0.90885
0.944351
0.971404
0.972494
0.957435
0.933099
0.932922
0.952437
0.186624
0.215961
0.239507
0.236198
0.246327
0.31953
0.526482
0.748979
0.825134
0.890942
0.918938
0.913871
0.923796
0.949607
0.963709
0.964151
0.954374
0.943106
0.942533
0.956057
0.136253
0.155704
0.233015
0.341916
0.506805
0.693937
0.790859
0.862083
0.882571
0.892571
0.913863
0.938012
0.948324
0.952773
0.952441
0.949139
0.949532
0.951939
0.954338
0.959151
0.293563
0.407503
0.533867
0.65535
0.764965
0.857418
0.872327
0.874293
0.870447
0.883296
0.920567
0.96262
0.966711
0.95534
0.934282
0.933641
0.953029
0.976764
0.97729
0.966714
0.564455
0.639172
0.691907
0.781362
0.839971
0.893556
0.89143
0.871124
0.860267
0.877289
0.924831
0.964646
0.966846
0.947254
0.927816
0.931387
0.96039
0.989765
0.985772
0.967102
)
;

boundaryField
{
    inlet
    {
        type            fixedValue;
        value           uniform 1;
    }
    outlet
    {
        type            zeroGradient;
    }
    airfoil
    {
        type            zeroGradient;
    }
    top
    {
        type            symmetryPlane;
    }
    bottom
    {
        type            symmetryPlane;
    }
    defaultFaces
    {
        type            empty;
    }
}


// ************************************************************************* //
