/*--------------------------------*- C++ -*----------------------------------*\
  =========                 |
  \\      /  F ield         | OpenFOAM: The Open Source CFD Toolbox
   \\    /   O peration     | Website:  https://openfoam.org
    \\  /    A nd           | Version:  7
     \\/     M anipulation  |
\*---------------------------------------------------------------------------*/
FoamFile
{
    version     2.0;
    format      ascii;
    class       volVectorField;
    location    "9.1";
    object      U;
}
// * * * * * * * * * * * * * * * * * * * * * * * * * * * * * * * * * * * * * //

dimensions      [0 1 -1 0 0 0 0];

internalField   nonuniform List<vector> 
3700
(
(1.55322 -0.477775 0)
(1.3826 -0.639887 0)
(1.36037 -0.350261 0)
(1.43556 -0.322785 0)
(1.58686 -0.438672 0)
(1.60376 -0.368147 0)
(1.54265 -0.166413 0)
(1.54068 -0.079222 0)
(1.58091 -0.135879 0)
(1.59532 -0.267915 0)
(1.55663 -0.343103 0)
(1.51225 -0.277831 0)
(1.53298 -0.143461 0)
(1.6079 -0.136595 0)
(1.68098 -0.208274 0)
(1.72867 -0.215471 0)
(1.72503 -0.181405 0)
(1.73717 -0.0994724 0)
(1.81015 -0.067414 0)
(1.85879 -0.129172 0)
(1.76384 -1.41924 0)
(1.64554 -1.48343 0)
(1.65037 -1.29979 0)
(1.79427 -1.26613 0)
(1.87038 -1.536 0)
(1.7908 -1.48295 0)
(1.68866 -1.20529 0)
(1.72415 -1.0573 0)
(1.82937 -1.19596 0)
(1.91896 -1.50861 0)
(1.86712 -1.63397 0)
(1.7871 -1.41412 0)
(1.8124 -1.16932 0)
(1.94454 -1.16948 0)
(2.07967 -1.20439 0)
(2.1583 -1.16254 0)
(2.19494 -1.07732 0)
(2.23794 -0.961996 0)
(2.25776 -0.869773 0)
(2.38676 -0.987788 0)
(1.53231 -1.38463 0)
(1.62454 -1.56486 0)
(1.67967 -1.743 0)
(1.73102 -1.92842 0)
(1.80504 -2.10082 0)
(1.8598 -2.19927 0)
(1.93159 -2.25874 0)
(1.9802 -2.20003 0)
(1.97701 -2.20567 0)
(2.0908 -2.10841 0)
(2.13245 -2.11893 0)
(2.19499 -2.0248 0)
(2.25027 -1.94195 0)
(2.27806 -1.9098 0)
(2.33699 -1.82531 0)
(2.43209 -1.78067 0)
(2.5178 -1.69899 0)
(2.61614 -1.63694 0)
(2.69639 -1.55409 0)
(2.75284 -1.51623 0)
(1.38488 -1.43145 0)
(1.50346 -1.73609 0)
(1.63016 -2.0131 0)
(1.69396 -2.21563 0)
(1.76621 -2.28696 0)
(1.80925 -2.28994 0)
(1.86798 -2.1701 0)
(1.97782 -1.98319 0)
(2.02322 -1.96694 0)
(2.25386 -1.89692 0)
(2.40678 -1.78675 0)
(2.46566 -1.79735 0)
(2.50963 -1.75032 0)
(2.45875 -1.78452 0)
(2.45545 -1.72785 0)
(2.48227 -1.69138 0)
(2.52363 -1.56974 0)
(2.59039 -1.46333 0)
(2.67372 -1.37448 0)
(2.79401 -1.19897 0)
(1.28973 -1.42214 0)
(1.4597 -1.87564 0)
(1.67235 -2.15062 0)
(1.7434 -2.31934 0)
(1.89239 -2.34406 0)
(1.98743 -2.33658 0)
(1.97289 -2.10655 0)
(1.96066 -1.97723 0)
(1.96538 -1.95832 0)
(2.16261 -1.85785 0)
(2.33669 -1.66917 0)
(2.50438 -1.60532 0)
(2.61883 -1.43703 0)
(2.6528 -1.42273 0)
(2.6658 -1.38582 0)
(2.63785 -1.44503 0)
(2.61787 -1.41869 0)
(2.62054 -1.30153 0)
(2.64068 -1.33107 0)
(2.70742 -1.13882 0)
(1.22775 -1.51651 0)
(1.53108 -2.0519 0)
(1.82186 -2.31688 0)
(2.00418 -2.40904 0)
(2.24611 -2.34263 0)
(2.18637 -2.332 0)
(2.17302 -2.04582 0)
(2.03141 -1.96758 0)
(2.02157 -1.92859 0)
(2.14141 -1.84189 0)
(2.27214 -1.67116 0)
(2.46003 -1.5674 0)
(2.54433 -1.42335 0)
(2.70274 -1.3296 0)
(2.75625 -1.12709 0)
(2.78743 -1.01737 0)
(2.75286 -1.01487 0)
(2.75707 -0.93687 0)
(2.69543 -1.06349 0)
(2.6868 -0.977515 0)
(1.31221 -1.64939 0)
(1.68678 -2.16793 0)
(2.0552 -2.37234 0)
(2.17518 -2.40221 0)
(2.31455 -2.30114 0)
(2.33902 -2.2307 0)
(2.41113 -1.87764 0)
(2.30003 -1.87989 0)
(2.27647 -1.86029 0)
(2.31875 -1.77514 0)
(2.37329 -1.64129 0)
(2.46401 -1.52739 0)
(2.52153 -1.3519 0)
(2.63296 -1.26633 0)
(2.6848 -1.10522 0)
(2.75934 -0.931081 0)
(2.81232 -0.772657 0)
(2.83021 -0.576001 0)
(2.76719 -0.58121 0)
(2.7216 -0.611104 0)
(1.46868 -1.77209 0)
(1.82342 -2.19241 0)
(2.01349 -2.31524 0)
(2.14261 -2.39401 0)
(2.27003 -2.2399 0)
(2.34095 -2.14441 0)
(2.46231 -1.78549 0)
(2.54211 -1.65554 0)
(2.60398 -1.61911 0)
(2.64214 -1.47902 0)
(2.5976 -1.51086 0)
(2.63721 -1.33537 0)
(2.61252 -1.22984 0)
(2.63623 -1.14299 0)
(2.66309 -1.00203 0)
(2.69403 -0.874145 0)
(2.75218 -0.766377 0)
(2.78661 -0.564893 0)
(2.78862 -0.390297 0)
(2.74415 -0.305332 0)
(1.57845 -1.83429 0)
(1.82697 -2.18527 0)
(1.92421 -2.27343 0)
(1.92436 -2.27833 0)
(2.05328 -2.10074 0)
(2.19359 -1.77886 0)
(2.33865 -1.67586 0)
(2.46558 -1.56495 0)
(2.6561 -1.43358 0)
(2.73707 -1.1286 0)
(2.77713 -1.12101 0)
(2.79918 -0.898796 0)
(2.76284 -0.881733 0)
(2.74991 -0.787941 0)
(2.73492 -0.714704 0)
(2.7122 -0.634274 0)
(2.70784 -0.576667 0)
(2.73801 -0.512372 0)
(2.71129 -0.311882 0)
(2.68198 -0.134776 0)
(1.63978 -1.88025 0)
(1.71096 -2.1739 0)
(1.82368 -2.18792 0)
(1.82498 -2.15688 0)
(1.95648 -2.01183 0)
(2.08633 -1.66874 0)
(2.13603 -1.65529 0)
(2.26027 -1.50796 0)
(2.38495 -1.40447 0)
(2.51663 -1.166 0)
(2.65198 -0.929847 0)
(2.72068 -0.678065 0)
(2.74043 -0.498614 0)
(2.74885 -0.359095 0)
(2.73937 -0.253748 0)
(2.7225 -0.237576 0)
(2.70015 -0.198484 0)
(2.68849 -0.271639 0)
(2.64896 -0.186486 0)
(2.61659 -0.0221541 0)
(1.57332 -1.80202 0)
(1.62725 -2.0747 0)
(1.74358 -2.07799 0)
(1.85104 -1.89676 0)
(1.99496 -1.88239 0)
(2.15284 -1.51835 0)
(2.12189 -1.58365 0)
(2.27609 -1.38727 0)
(2.36153 -1.2364 0)
(2.41926 -1.12203 0)
(2.522 -0.930329 0)
(2.59938 -0.723572 0)
(2.64439 -0.490255 0)
(2.70333 -0.317924 0)
(2.66419 -0.0632765 0)
(2.65686 0.0432447 0)
(2.62473 0.177613 0)
(2.59927 0.105771 0)
(2.55111 0.127657 0)
(2.5864 0.0454242 0)
(1.41745 -1.6407 0)
(1.64159 -1.89466 0)
(1.8201 -1.86914 0)
(1.9584 -1.43046 0)
(1.96595 -1.58668 0)
(2.18525 -1.34387 0)
(2.31125 -1.39378 0)
(2.44557 -1.12874 0)
(2.53012 -0.880763 0)
(2.5428 -0.829584 0)
(2.58126 -0.62689 0)
(2.60364 -0.465608 0)
(2.60208 -0.301332 0)
(2.62298 -0.18904 0)
(2.5812 0.0020738 0)
(2.59117 0.0930249 0)
(2.53672 0.277306 0)
(2.48776 0.363786 0)
(2.42785 0.405087 0)
(2.45853 0.320972 0)
(1.31628 -1.53018 0)
(1.75186 -1.77805 0)
(1.9303 -1.70215 0)
(1.97111 -1.2487 0)
(1.97635 -1.33445 0)
(2.3181 -1.24331 0)
(2.54328 -0.934968 0)
(2.67481 -0.486974 0)
(2.67184 -0.300168 0)
(2.64048 -0.184908 0)
(2.63115 -0.0556918 0)
(2.60927 0.0633045 0)
(2.58229 0.150719 0)
(2.54648 0.232012 0)
(2.49568 0.301063 0)
(2.47345 0.308501 0)
(2.43476 0.363838 0)
(2.37842 0.470393 0)
(2.30188 0.591034 0)
(2.29468 0.57178 0)
(1.25283 -1.56264 0)
(1.71001 -1.78681 0)
(1.96409 -1.41569 0)
(1.99693 -1.25635 0)
(2.42214 -0.794891 0)
(2.48347 -1.09201 0)
(2.61243 -0.685606 0)
(2.60981 -0.332847 0)
(2.59152 -0.253835 0)
(2.57085 -0.0219077 0)
(2.56289 0.153193 0)
(2.4988 0.353411 0)
(2.46125 0.470772 0)
(2.38569 0.599053 0)
(2.33286 0.651736 0)
(2.29373 0.655334 0)
(2.25599 0.666276 0)
(2.24735 0.661056 0)
(2.1809 0.73587 0)
(2.13491 0.781487 0)
(1.32971 -1.57568 0)
(1.61305 -1.76925 0)
(2.0253 -1.07037 0)
(2.39743 -1.04945 0)
(2.54708 -0.636011 0)
(2.4174 -0.811525 0)
(2.4605 -0.505556 0)
(2.46525 -0.217958 0)
(2.44621 -0.0265853 0)
(2.4482 0.13738 0)
(2.41146 0.329061 0)
(2.35068 0.5019 0)
(2.30672 0.620342 0)
(2.22743 0.746131 0)
(2.1638 0.820584 0)
(2.11243 0.854787 0)
(2.06146 0.908638 0)
(2.05598 0.906989 0)
(2.04186 0.925633 0)
(2.06212 0.94905 0)
(1.46496 -1.35567 0)
(1.49346 -1.54819 0)
(2.37518 -0.172749 0)
(2.24881 -0.780026 0)
(2.34037 -0.659968 0)
(2.4427 -0.211661 0)
(2.43158 0.106725 0)
(2.38757 0.287712 0)
(2.3205 0.447234 0)
(2.29858 0.583433 0)
(2.20303 0.738743 0)
(2.13672 0.836402 0)
(2.08678 0.890867 0)
(2.03222 0.948073 0)
(1.99172 0.96211 0)
(1.9545 0.987958 0)
(1.9547 1.01655 0)
(1.969 0.997098 0)
(1.9939 0.99631 0)
(2.07046 0.97857 0)
(1.3941 -0.377469 0)
(1.88149 -0.693542 0)
(2.27184 -0.464091 0)
(2.32325 -0.0697704 0)
(2.36834 0.0575095 0)
(2.3475 0.345185 0)
(2.29207 0.562233 0)
(2.1846 0.738973 0)
(2.13025 0.80201 0)
(2.0706 0.922122 0)
(1.96506 1.02181 0)
(1.911 1.07056 0)
(1.88323 1.08431 0)
(1.86982 1.09094 0)
(1.87128 1.05713 0)
(1.89594 1.04914 0)
(1.96199 1.02116 0)
(2.16562 0.9012 0)
(2.38211 0.790283 0)
(2.77779 0.441176 0)
(1.11762 -0.105738 0)
(1.82513 -0.223554 0)
(2.22768 0.110026 0)
(2.24265 0.468952 0)
(2.19778 0.691501 0)
(2.14013 0.799033 0)
(2.05107 0.900612 0)
(1.97163 0.957831 0)
(1.91058 1.02961 0)
(1.84674 1.1228 0)
(1.78519 1.15696 0)
(1.79008 1.15114 0)
(1.8135 1.12993 0)
(1.85394 1.08666 0)
(2.03824 0.952613 0)
(2.2541 0.831953 0)
(2.66341 0.505728 0)
(3.03751 0.09119 0)
(3.05541 -0.0242691 0)
(3.00403 -0.00468689 0)
(1.03028 0.0127854 0)
(1.92838 0.788143 0)
(2.09496 0.879225 0)
(1.98797 0.987757 0)
(1.97228 0.976679 0)
(1.88691 1.07591 0)
(1.79173 1.14326 0)
(1.75562 1.14765 0)
(1.75186 1.16313 0)
(1.72764 1.20445 0)
(1.70819 1.19857 0)
(1.86487 1.07336 0)
(2.1071 0.885838 0)
(2.51076 0.574485 0)
(2.9898 0.132964 0)
(3.07375 -0.0301166 0)
(3.00813 -0.00772151 0)
(3.00292 -0.00384199 0)
(3.00122 -0.00219365 0)
(3.00008 -0.000480888 0)
(1.17324 0.744825 0)
(1.81942 1.15513 0)
(1.83375 1.14521 0)
(1.74625 1.18039 0)
(1.72082 1.19342 0)
(1.67359 1.24281 0)
(1.65942 1.21584 0)
(1.72464 1.16463 0)
(1.75255 1.22825 0)
(1.77756 1.14337 0)
(2.25644 0.752041 0)
(2.84618 0.220533 0)
(3.09392 -0.023899 0)
(3.02061 -0.0121577 0)
(3.00451 -0.00534392 0)
(3.00188 -0.00301136 0)
(3.00006 -0.000599159 0)
(2.99998 -2.50378e-05 0)
(2.99999 1.43234e-05 0)
(3 5.90469e-06 0)
(1.57442 1.25352 0)
(1.58051 1.25974 0)
(1.58738 1.2649 0)
(1.59933 1.25957 0)
(1.62261 1.24267 0)
(1.61181 1.26278 0)
(1.9064 1.15593 0)
(2.97992 0.35348 0)
(3.34124 -0.585968 0)
(3 6.45917e-11 0)
(3 -7.742e-11 0)
(3 7.99874e-11 0)
(3 6.37889e-15 0)
(3 -4.31864e-13 0)
(3 -1.82018e-14 0)
(3 1.27138e-14 0)
(3 -1.30951e-14 0)
(3 -4.91061e-15 0)
(3 -3.01285e-15 0)
(3 -6.34111e-15 0)
(1.5757 1.24929 0)
(1.58868 1.26044 0)
(1.59325 1.27319 0)
(1.5877 1.27278 0)
(1.66887 1.24657 0)
(1.76012 1.22228 0)
(2.31827 0.715817 0)
(3.00345 0.00706577 0)
(3 6.45643e-08 0)
(3 -3.37136e-11 0)
(3 -7.58401e-15 0)
(3 -8.92131e-16 0)
(3 -1.15984e-15 0)
(3 -1.23546e-15 0)
(3 -4.13021e-15 0)
(3 -3.55876e-15 0)
(3 -2.85514e-15 0)
(3 -3.72828e-15 0)
(3 -2.10668e-15 0)
(3 -4.16486e-15 0)
(1.58354 1.25518 0)
(1.59989 1.25953 0)
(1.59947 1.2732 0)
(1.57305 1.30666 0)
(1.71468 1.22063 0)
(2.18586 0.835357 0)
(2.98491 0.0108231 0)
(3.00028 -0.00061078 0)
(3 5.46866e-07 0)
(3 6.06424e-11 0)
(3 -5.45315e-15 0)
(3 -1.58102e-15 0)
(3 -1.65919e-15 0)
(3 -2.10795e-15 0)
(3 -4.60472e-15 0)
(3 -3.36901e-15 0)
(3 -3.74467e-15 0)
(3 -3.79963e-15 0)
(3 -3.17718e-15 0)
(3 -5.42121e-15 0)
(1.58682 1.25745 0)
(1.60863 1.26013 0)
(1.62821 1.26524 0)
(1.60361 1.30888 0)
(1.82073 1.11402 0)
(2.70103 0.259875 0)
(3.00565 -0.00253361 0)
(2.99992 7.55337e-05 0)
(3 -7.51138e-07 0)
(3 8.5554e-10 0)
(3 -5.92102e-15 0)
(3 -1.61935e-15 0)
(3 -1.04204e-15 0)
(3 -1.36857e-15 0)
(3 -4.70503e-15 0)
(3 -3.66237e-15 0)
(3 -4.35374e-15 0)
(3 -4.00694e-15 0)
(3 -4.34689e-15 0)
(3 -5.60026e-15 0)
(1.58844 1.26976 0)
(1.60806 1.26355 0)
(1.63628 1.25186 0)
(1.73742 1.20066 0)
(2.35787 0.63209 0)
(3.02102 -0.0197349 0)
(2.99973 0.000170644 0)
(3 -4.23976e-06 0)
(3 8.38838e-08 0)
(3 -8.8328e-10 0)
(3 1.36663e-13 0)
(3 -1.59832e-15 0)
(3 -8.92234e-16 0)
(3 -1.5331e-15 0)
(3 -4.15108e-15 0)
(3 -3.60207e-15 0)
(3 -4.84635e-15 0)
(3 -3.95747e-15 0)
(3 -5.11315e-15 0)
(3 -4.97141e-15 0)
(1.58546 1.28212 0)
(1.58294 1.27227 0)
(1.63817 1.23938 0)
(1.84331 1.09783 0)
(2.75202 0.214193 0)
(3 -5.83199e-10 0)
(3 1.40587e-08 0)
(3 -1.26974e-08 0)
(3 5.51557e-10 0)
(3 2.55175e-12 0)
(3 -8.8015e-14 0)
(3 -6.42211e-16 0)
(3 -1.50029e-15 0)
(3 -1.45258e-15 0)
(3 -3.23433e-15 0)
(3 -5.1368e-15 0)
(3 -5.50542e-15 0)
(3 -4.06975e-15 0)
(3 -5.17133e-15 0)
(3 -6.07799e-15 0)
(1.58324 1.29225 0)
(1.54975 1.28245 0)
(1.64828 1.24873 0)
(2.0754 0.878331 0)
(3.00458 -0.000964069 0)
(3 3.05585e-13 0)
(3 -1.30061e-11 0)
(3 1.67273e-11 0)
(3 -3.88009e-12 0)
(3 1.48611e-14 0)
(3 2.40112e-16 0)
(3 -1.15507e-15 0)
(3 -1.63417e-15 0)
(3 -1.94327e-15 0)
(3 -3.03438e-15 0)
(3 -3.77732e-15 0)
(3 -5.66939e-15 0)
(3 -5.15098e-15 0)
(3 -4.24065e-15 0)
(3 -5.446e-15 0)
(1.58065 1.32046 0)
(1.5097 1.32233 0)
(1.78559 1.1845 0)
(2.4431 0.538631 0)
(3 -3.61179e-06 0)
(3 2.13582e-11 0)
(3 2.61378e-13 0)
(3 -7.4158e-14 0)
(3 2.25233e-14 0)
(3 7.13314e-16 0)
(3 -1.52468e-16 0)
(3 -4.20248e-16 0)
(3 -1.13723e-15 0)
(3 -1.79938e-15 0)
(3 -2.43816e-15 0)
(3 -3.39647e-15 0)
(3 -4.47346e-15 0)
(3 -3.81854e-15 0)
(3 -4.64475e-15 0)
(3 -5.21522e-15 0)
(1.589 1.30762 0)
(1.46675 1.34552 0)
(1.94803 1.04592 0)
(2.86373 0.133223 0)
(3 -9.18108e-09 0)
(3 -7.6304e-12 0)
(3 -2.8464e-14 0)
(3 1.1238e-15 0)
(3 1.69701e-15 0)
(3 2.30745e-15 0)
(3 3.92192e-16 0)
(3 -1.10293e-16 0)
(3 -6.98271e-16 0)
(3 -1.31759e-15 0)
(3 -2.16173e-15 0)
(3 -3.36084e-15 0)
(3 -3.45133e-15 0)
(3 -4.48981e-15 0)
(3 -5.72725e-15 0)
(3 -5.63728e-15 0)
(1.60514 1.29667 0)
(1.48478 1.3939 0)
(2.12475 0.847785 0)
(3.01139 -0.00959256 0)
(3 4.49802e-09 0)
(3 -8.61523e-12 0)
(3 3.04849e-14 0)
(3 2.18001e-15 0)
(3 2.3454e-15 0)
(3 2.7514e-15 0)
(3 1.3966e-15 0)
(3 5.20733e-16 0)
(3 -4.40644e-16 0)
(3 -1.71887e-15 0)
(3 -1.93369e-15 0)
(3 -2.40862e-15 0)
(3 -2.61839e-15 0)
(3 -3.66117e-15 0)
(3 -4.75886e-15 0)
(3 -5.73191e-15 0)
(1.62009 1.28185 0)
(1.5846 1.30543 0)
(2.43542 0.520677 0)
(3 4.6959e-13 0)
(3 -4.06981e-12 0)
(3 7.52068e-14 0)
(3 -8.44658e-18 0)
(3 1.55803e-15 0)
(3 1.87414e-15 0)
(3 2.30685e-15 0)
(3 1.67976e-15 0)
(3 3.15405e-16 0)
(3 -6.30036e-16 0)
(3 -1.1128e-15 0)
(3 -9.86863e-16 0)
(3 -1.00848e-15 0)
(3 -9.79738e-16 0)
(3 -2.06733e-15 0)
(3 -3.27977e-15 0)
(3 -4.25604e-15 0)
(1.6364 1.2649 0)
(1.63112 1.24375 0)
(2.64809 0.29108 0)
(3 2.91813e-13 0)
(3 9.76891e-15 0)
(3 -1.21257e-15 0)
(3 5.8399e-16 0)
(3 1.22839e-15 0)
(3 2.0213e-15 0)
(3 3.18526e-15 0)
(3 2.36801e-15 0)
(3 1.1184e-15 0)
(3 -8.85135e-17 0)
(3 -2.93309e-16 0)
(3 9.46124e-18 0)
(3 8.46788e-16 0)
(3 4.48904e-16 0)
(3 1.77853e-17 0)
(3 -1.06269e-15 0)
(3 -2.10994e-15 0)
(1.65962 1.23977 0)
(1.80971 1.09867 0)
(2.87563 0.0869865 0)
(3 -8.32933e-13 0)
(3 -1.69294e-15 0)
(3 -1.37201e-15 0)
(3 -2.28856e-16 0)
(3 1.67371e-16 0)
(3 1.31016e-15 0)
(3 2.91103e-15 0)
(3 3.23056e-15 0)
(3 2.75876e-15 0)
(3 1.97995e-15 0)
(3 1.11145e-15 0)
(3 4.87375e-16 0)
(3 9.60372e-16 0)
(3 1.14054e-15 0)
(3 5.84209e-16 0)
(3 4.35707e-16 0)
(3 -3.43509e-16 0)
(1.68878 1.19259 0)
(1.92209 0.968413 0)
(2.9999 2.45979e-05 0)
(3 -4.62028e-16 0)
(3 -1.57246e-15 0)
(3 -1.62089e-15 0)
(3 -1.90079e-16 0)
(3 1.59823e-15 0)
(3 2.40972e-15 0)
(3 2.49746e-15 0)
(3 3.17871e-15 0)
(3 3.03463e-15 0)
(3 2.67681e-15 0)
(3 1.96805e-15 0)
(3 9.41114e-16 0)
(3 1.13512e-15 0)
(3 8.92479e-16 0)
(3 8.76716e-16 0)
(3 1.05368e-15 0)
(3 4.54077e-16 0)
(1.69089 1.1683 0)
(2.03375 0.838042 0)
(3 -1.52581e-15 0)
(3 7.6936e-16 0)
(3 1.53091e-15 0)
(3 2.24916e-15 0)
(3 1.78332e-15 0)
(3 3.13966e-15 0)
(3 3.98288e-15 0)
(3 3.99415e-15 0)
(3 3.48612e-15 0)
(3 3.39123e-15 0)
(3 3.43096e-15 0)
(3 3.08675e-15 0)
(3 2.43973e-15 0)
(3 1.37093e-15 0)
(3 2.397e-16 0)
(3 -3.71646e-17 0)
(3 1.91195e-17 0)
(3 2.99138e-18 0)
(1.74152 1.10437 0)
(2.20754 0.657019 0)
(3 9.53944e-16 0)
(3 -1.51901e-16 0)
(3 2.83818e-16 0)
(3 1.12943e-15 0)
(3 1.64311e-15 0)
(3 2.34025e-15 0)
(3 2.259e-15 0)
(3 3.25509e-15 0)
(3 4.23102e-15 0)
(3 4.1818e-15 0)
(3 4.09484e-15 0)
(3 4.13358e-15 0)
(3 3.99571e-15 0)
(3 3.26567e-15 0)
(3 2.90545e-15 0)
(3 2.18987e-15 0)
(3 1.42576e-15 0)
(3 4.00942e-16 0)
(1.85141 1.0192 0)
(2.45657 0.442713 0)
(3 6.66457e-17 0)
(3 5.55208e-16 0)
(3 7.81836e-17 0)
(3 -2.28338e-16 0)
(3 -5.65214e-16 0)
(3 -7.96592e-16 0)
(3 -1.03771e-15 0)
(3 -6.34736e-17 0)
(3 1.55614e-15 0)
(3 2.85838e-15 0)
(3 3.08116e-15 0)
(3 2.83011e-15 0)
(3 2.70343e-15 0)
(3 2.45589e-15 0)
(3 2.47567e-15 0)
(3 2.36601e-15 0)
(3 1.90233e-15 0)
(3 1.99731e-15 0)
(1.9512 0.860603 0)
(2.73909 0.187956 0)
(3 -1.0562e-15 0)
(3 -1.19691e-15 0)
(3 -1.25285e-15 0)
(3 -1.22597e-15 0)
(3 -1.20897e-15 0)
(3 -1.30899e-15 0)
(3 -1.30684e-15 0)
(3 -1.6654e-15 0)
(3 -4.18691e-16 0)
(3 6.72507e-16 0)
(3 1.88484e-15 0)
(3 2.47295e-15 0)
(3 2.45875e-15 0)
(3 2.56338e-15 0)
(3 2.77931e-15 0)
(3 2.9482e-15 0)
(3 3.45668e-15 0)
(3 3.75256e-15 0)
(2.08789 0.650583 0)
(2.993 8.03187e-05 0)
(3 -1.03888e-15 0)
(3 -1.03551e-15 0)
(3 -7.19028e-16 0)
(3 -6.48218e-16 0)
(3 -7.68765e-16 0)
(3 -1.01879e-15 0)
(3 -1.2006e-15 0)
(3 -2.53405e-15 0)
(3 -2.93995e-15 0)
(3 -2.81832e-15 0)
(3 -1.98032e-15 0)
(3 -8.17619e-16 0)
(3 -1.98016e-16 0)
(3 -6.71205e-17 0)
(3 -4.61335e-17 0)
(3 4.52596e-16 0)
(3 1.11745e-15 0)
(3 2.3302e-15 0)
(1.99118 0.377907 0)
(2.99981 -3.09329e-05 0)
(3 -1.50247e-15 0)
(3 -1.39653e-15 0)
(3 -6.60865e-16 0)
(3 -3.48085e-16 0)
(3 -4.5519e-16 0)
(3 -5.10939e-16 0)
(3 -5.41669e-16 0)
(3 -7.08505e-16 0)
(3 -1.09441e-15 0)
(3 -1.7207e-15 0)
(3 -1.44771e-15 0)
(3 -1.16976e-15 0)
(3 -8.71626e-16 0)
(3 -1.82795e-16 0)
(3 2.24893e-16 0)
(3 3.8679e-16 0)
(3 4.17453e-16 0)
(3 6.75331e-16 0)
(1.99143 -0.376661 0)
(2.99981 3.1365e-05 0)
(3 -9.74687e-18 0)
(3 -3.25192e-16 0)
(3 -1.238e-15 0)
(3 -1.41422e-15 0)
(3 -1.14931e-15 0)
(3 -7.48821e-16 0)
(3 -4.70851e-16 0)
(3 -5.57874e-16 0)
(3 -2.79884e-16 0)
(3 1.28722e-16 0)
(3 2.94204e-16 0)
(3 5.69306e-16 0)
(3 9.17249e-16 0)
(3 1.35903e-15 0)
(3 1.82827e-15 0)
(3 2.15819e-15 0)
(3 1.87696e-15 0)
(3 1.4408e-15 0)
(2.087 -0.654314 0)
(2.99277 -5.10269e-05 0)
(3 1.11032e-15 0)
(3 1.54648e-15 0)
(3 1.40565e-15 0)
(3 1.24382e-15 0)
(3 2.06144e-15 0)
(3 3.02537e-15 0)
(3 3.06141e-15 0)
(3 2.8984e-15 0)
(3 2.84743e-15 0)
(3 2.75809e-15 0)
(3 2.72109e-15 0)
(3 3.00549e-15 0)
(3 3.32348e-15 0)
(3 3.60166e-15 0)
(3 3.37101e-15 0)
(3 3.22545e-15 0)
(3 3.18095e-15 0)
(3 1.64235e-15 0)
(1.94477 -0.860221 0)
(2.73535 -0.190042 0)
(3 6.28264e-16 0)
(3 9.34425e-16 0)
(3 1.91368e-15 0)
(3 2.24311e-15 0)
(3 3.05926e-15 0)
(3 3.57889e-15 0)
(3 3.59142e-15 0)
(3 3.47258e-15 0)
(3 3.67414e-15 0)
(3 4.29579e-15 0)
(3 4.36385e-15 0)
(3 4.18166e-15 0)
(3 3.35396e-15 0)
(3 2.48424e-15 0)
(3 1.96249e-15 0)
(3 1.28899e-15 0)
(3 -2.10606e-16 0)
(3 -9.95711e-16 0)
(1.85444 -1.01665 0)
(2.46217 -0.43966 0)
(3 5.43955e-15 0)
(3 4.46875e-15 0)
(3 3.81257e-15 0)
(3 3.57922e-15 0)
(3 3.78792e-15 0)
(3 4.38683e-15 0)
(3 4.56333e-15 0)
(3 4.64995e-15 0)
(3 4.65718e-15 0)
(3 4.71704e-15 0)
(3 4.36286e-15 0)
(3 3.85251e-15 0)
(3 3.32145e-15 0)
(3 2.86159e-15 0)
(3 2.26352e-15 0)
(3 1.16662e-15 0)
(3 7.54444e-16 0)
(3 4.33715e-17 0)
(1.74962 -1.10349 0)
(2.21405 -0.653602 0)
(3 3.08218e-15 0)
(3 3.16351e-15 0)
(3 3.57427e-15 0)
(3 3.38719e-15 0)
(3 3.03795e-15 0)
(3 3.07145e-15 0)
(3 3.16324e-15 0)
(3 2.8251e-15 0)
(3 2.98576e-15 0)
(3 3.34085e-15 0)
(3 3.46725e-15 0)
(3 3.08567e-15 0)
(3 2.74921e-15 0)
(3 2.39205e-15 0)
(3 2.16967e-15 0)
(3 1.69878e-15 0)
(3 5.08079e-16 0)
(3 -1.0437e-16 0)
(1.6862 -1.17206 0)
(2.03028 -0.83814 0)
(3 3.43134e-15 0)
(3 2.94592e-15 0)
(3 3.00564e-15 0)
(3 3.37783e-15 0)
(3 3.11597e-15 0)
(3 3.33324e-15 0)
(3 3.01891e-15 0)
(3 2.3657e-15 0)
(3 1.60225e-15 0)
(3 6.22133e-16 0)
(3 7.12022e-16 0)
(3 5.05361e-16 0)
(3 4.29368e-16 0)
(3 -3.62479e-16 0)
(3 -6.87588e-16 0)
(3 -1.63113e-15 0)
(3 -2.04838e-15 0)
(3 -2.09706e-15 0)
(1.68518 -1.19243 0)
(1.91591 -0.97223 0)
(2.99995 -1.15423e-05 0)
(3 2.09381e-15 0)
(3 2.72952e-15 0)
(3 2.99092e-15 0)
(3 2.87419e-15 0)
(3 2.67018e-15 0)
(3 2.66625e-15 0)
(3 2.19017e-15 0)
(3 1.63851e-15 0)
(3 2.97802e-16 0)
(3 3.68513e-16 0)
(3 3.41306e-16 0)
(3 -4.71511e-16 0)
(3 -1.84042e-15 0)
(3 -2.03343e-15 0)
(3 -2.04156e-15 0)
(3 -1.20116e-15 0)
(3 5.12784e-16 0)
(1.65953 -1.23969 0)
(1.81694 -1.09819 0)
(2.87817 -0.0859498 0)
(3 7.12703e-13 0)
(3 2.21817e-15 0)
(3 2.29258e-15 0)
(3 2.88266e-15 0)
(3 2.46545e-15 0)
(3 2.26857e-15 0)
(3 1.63492e-15 0)
(3 9.79673e-16 0)
(3 7.35263e-16 0)
(3 1.48047e-15 0)
(3 1.30413e-15 0)
(3 6.36839e-16 0)
(3 1.10701e-15 0)
(3 1.52639e-15 0)
(3 2.36131e-15 0)
(3 3.42014e-15 0)
(3 3.4032e-15 0)
(1.63809 -1.26306 0)
(1.62711 -1.24663 0)
(2.64772 -0.291595 0)
(3 -2.34073e-13 0)
(3 -5.11449e-15 0)
(3 3.2033e-15 0)
(3 1.58286e-15 0)
(3 1.95319e-15 0)
(3 1.28373e-15 0)
(3 1.41757e-15 0)
(3 1.99772e-15 0)
(3 2.23907e-15 0)
(3 1.99699e-15 0)
(3 1.79178e-15 0)
(3 1.82417e-15 0)
(3 2.23017e-15 0)
(3 2.18575e-15 0)
(3 2.41878e-15 0)
(3 2.74122e-15 0)
(3 2.7349e-15 0)
(1.62059 -1.28216 0)
(1.58392 -1.30609 0)
(2.43293 -0.522963 0)
(3 6.56302e-13 0)
(3 4.24371e-12 0)
(3 -4.75917e-14 0)
(3 3.72639e-15 0)
(3 2.04461e-15 0)
(3 1.95916e-15 0)
(3 2.2276e-15 0)
(3 2.52441e-15 0)
(3 3.3296e-15 0)
(3 2.77488e-15 0)
(3 2.64843e-15 0)
(3 2.34049e-15 0)
(3 2.07812e-15 0)
(3 6.62105e-16 0)
(3 7.70905e-16 0)
(3 3.52695e-15 0)
(3 4.67896e-15 0)
(1.60509 -1.29644 0)
(1.48367 -1.39062 0)
(2.13744 -0.838565 0)
(3.01129 0.00952418 0)
(3 -4.56094e-09 0)
(3 4.0713e-12 0)
(3 -3.61001e-15 0)
(3 1.79253e-15 0)
(3 2.77295e-15 0)
(3 2.20209e-15 0)
(3 2.10141e-15 0)
(3 2.69153e-15 0)
(3 2.49545e-15 0)
(3 2.36105e-15 0)
(3 2.0591e-15 0)
(3 1.27985e-15 0)
(3 8.85521e-16 0)
(3 4.36866e-15 0)
(3 3.81191e-15 0)
(3 5.35999e-15 0)
(1.5903 -1.30801 0)
(1.46557 -1.35046 0)
(1.93354 -1.04683 0)
(2.85721 -0.134115 0)
(3 1.92252e-08 0)
(3 1.53688e-11 0)
(3 -1.34311e-14 0)
(3 9.49545e-16 0)
(3 2.71053e-15 0)
(3 2.51197e-15 0)
(3 1.59914e-15 0)
(3 2.57621e-15 0)
(3 2.57055e-15 0)
(3 2.52796e-15 0)
(3 2.19952e-15 0)
(3 2.1581e-15 0)
(3 4.78605e-15 0)
(3 5.94115e-15 0)
(3 5.64653e-15 0)
(3 5.26821e-15 0)
(1.58204 -1.32083 0)
(1.51182 -1.32331 0)
(1.79382 -1.18273 0)
(2.45013 -0.534269 0)
(3 5.12718e-06 0)
(3 -2.04898e-11 0)
(3 -1.45365e-13 0)
(3 3.10125e-14 0)
(3 -8.07969e-15 0)
(3 2.78726e-15 0)
(3 1.53861e-15 0)
(3 1.7614e-15 0)
(3 2.49755e-15 0)
(3 2.83019e-15 0)
(3 3.03125e-15 0)
(3 4.35964e-15 0)
(3 4.4257e-15 0)
(3 4.86392e-15 0)
(3 4.28484e-15 0)
(3 4.64097e-15 0)
(1.58207 -1.29179 0)
(1.5503 -1.28315 0)
(1.64933 -1.25029 0)
(2.08617 -0.876571 0)
(3.00172 -0.000842409 0)
(3 -3.66076e-12 0)
(3 9.85059e-12 0)
(3 -9.3358e-12 0)
(3 2.42846e-12 0)
(3 -3.73769e-14 0)
(3 2.14068e-15 0)
(3 2.18262e-15 0)
(3 3.04757e-15 0)
(3 3.76291e-15 0)
(3 5.56299e-15 0)
(3 4.82325e-15 0)
(3 3.29379e-15 0)
(3 4.02728e-15 0)
(3 4.27265e-15 0)
(3 4.16842e-15 0)
(1.58493 -1.27958 0)
(1.58086 -1.27096 0)
(1.63425 -1.24432 0)
(1.81924 -1.11684 0)
(2.73864 -0.226639 0)
(3 5.83753e-10 0)
(3 -1.42072e-08 0)
(3 1.28476e-08 0)
(3 -5.60926e-10 0)
(3 -2.87542e-12 0)
(3 9.11262e-14 0)
(3 1.7421e-15 0)
(3 2.79485e-15 0)
(3 3.3074e-15 0)
(3 5.71859e-15 0)
(3 4.52831e-15 0)
(3 3.46606e-15 0)
(3 3.77438e-15 0)
(3 4.46945e-15 0)
(3 3.8763e-15 0)
(1.58809 -1.26819 0)
(1.60629 -1.26237 0)
(1.63459 -1.24694 0)
(1.7469 -1.19687 0)
(2.36833 -0.629794 0)
(3.02039 0.0191152 0)
(2.99974 -0.000183236 0)
(3 4.2888e-06 0)
(3 -8.50699e-08 0)
(3 8.92644e-10 0)
(3 -1.39132e-13 0)
(3 3.79529e-15 0)
(3 2.14422e-15 0)
(3 5.36921e-15 0)
(3 6.23713e-15 0)
(3 5.19936e-15 0)
(3 4.29772e-15 0)
(3 4.03487e-15 0)
(3 4.07196e-15 0)
(3 3.65622e-15 0)
(1.58742 -1.25648 0)
(1.61043 -1.25793 0)
(1.62917 -1.26272 0)
(1.61771 -1.29444 0)
(1.824 -1.10694 0)
(2.71147 -0.246944 0)
(3.00577 0.00282686 0)
(2.99991 -8.26447e-05 0)
(3 7.74083e-07 0)
(3 -8.64071e-10 0)
(3 7.27811e-15 0)
(3 5.94136e-16 0)
(3 2.20351e-15 0)
(3 5.47304e-15 0)
(3 5.69694e-15 0)
(3 4.78317e-15 0)
(3 3.71869e-15 0)
(3 3.61038e-15 0)
(3 3.82805e-15 0)
(3 2.92778e-15 0)
(1.58498 -1.25471 0)
(1.60224 -1.25799 0)
(1.60344 -1.27169 0)
(1.57637 -1.30564 0)
(1.70241 -1.22741 0)
(2.17787 -0.833783 0)
(2.98257 -0.0125823 0)
(3.00036 0.000735492 0)
(3 -5.68772e-07 0)
(3 -6.09273e-11 0)
(3 1.11334e-14 0)
(3 -1.21258e-15 0)
(3 3.15283e-15 0)
(3 4.75465e-15 0)
(3 5.05526e-15 0)
(3 4.01733e-15 0)
(3 3.89744e-15 0)
(3 2.74314e-15 0)
(3 2.67835e-15 0)
(3 1.62937e-15 0)
(1.57707 -1.251 0)
(1.5893 -1.26191 0)
(1.5925 -1.27706 0)
(1.58699 -1.27881 0)
(1.66643 -1.25116 0)
(1.75288 -1.2279 0)
(2.31239 -0.72299 0)
(3.00257 -0.00854884 0)
(3 -6.23361e-08 0)
(3 3.25493e-11 0)
(3 7.55524e-15 0)
(3 1.07647e-15 0)
(3 1.64729e-15 0)
(3 3.24926e-15 0)
(3 3.2572e-15 0)
(3 2.2618e-15 0)
(3 2.69052e-15 0)
(3 1.54417e-15 0)
(3 1.1824e-15 0)
(3 5.32032e-16 0)
(1.57418 -1.25435 0)
(1.5803 -1.2609 0)
(1.58504 -1.26685 0)
(1.59543 -1.25923 0)
(1.61944 -1.24091 0)
(1.61135 -1.26308 0)
(1.91491 -1.15712 0)
(2.98658 -0.35293 0)
(3.33162 0.57626 0)
(3 -5.98149e-11 0)
(3 7.29328e-11 0)
(3 -8.00713e-11 0)
(3 -4.7185e-15 0)
(3 4.32482e-13 0)
(3 1.7401e-14 0)
(3 -1.45283e-14 0)
(3 1.27959e-14 0)
(3 1.76162e-15 0)
(3 6.43873e-16 0)
(3 1.22206e-15 0)
(1.17382 -0.744636 0)
(1.82108 -1.15387 0)
(1.83116 -1.14756 0)
(1.7424 -1.18054 0)
(1.71924 -1.19011 0)
(1.67331 -1.24131 0)
(1.66256 -1.2142 0)
(1.72726 -1.16487 0)
(1.75554 -1.22721 0)
(1.78016 -1.14101 0)
(2.25631 -0.749751 0)
(2.84597 -0.219898 0)
(3.09435 0.0240739 0)
(3.02073 0.0122196 0)
(3.00441 0.00528965 0)
(3.00186 0.00298013 0)
(3.00006 0.000596918 0)
(2.99998 2.51176e-05 0)
(2.99999 -1.43327e-05 0)
(3 -5.90504e-06 0)
(1.0267 -0.0175716 0)
(1.93155 -0.776917 0)
(2.09775 -0.871071 0)
(1.98199 -0.994433 0)
(1.97196 -0.972922 0)
(1.88751 -1.07292 0)
(1.79339 -1.14208 0)
(1.7575 -1.1477 0)
(1.75348 -1.16288 0)
(1.72891 -1.20347 0)
(1.70755 -1.19795 0)
(1.86108 -1.074 0)
(2.10423 -0.887296 0)
(2.51063 -0.575557 0)
(2.99063 -0.13309 0)
(3.07391 0.0301411 0)
(3.00813 0.00772467 0)
(3.00292 0.00384712 0)
(3.00122 0.00219646 0)
(3.00008 0.000482121 0)
(1.10612 0.104605 0)
(1.82885 0.197778 0)
(2.22474 -0.141227 0)
(2.24314 -0.464057 0)
(2.19426 -0.698527 0)
(2.1398 -0.801896 0)
(2.0534 -0.900481 0)
(1.97229 -0.960066 0)
(1.91054 -1.03084 0)
(1.8465 -1.12304 0)
(1.78421 -1.15698 0)
(1.78878 -1.15154 0)
(1.81269 -1.13038 0)
(1.85472 -1.08656 0)
(2.03977 -0.951728 0)
(2.25481 -0.831414 0)
(2.66304 -0.505912 0)
(3.03726 -0.0915582 0)
(3.05539 0.0241583 0)
(3.00402 0.00467646 0)
(1.36989 0.418101 0)
(1.82915 0.753461 0)
(2.23557 0.621789 0)
(2.32391 0.045914 0)
(2.36805 -0.0416055 0)
(2.34991 -0.33746 0)
(2.28872 -0.57119 0)
(2.18695 -0.739174 0)
(2.13123 -0.801812 0)
(2.07034 -0.922788 0)
(1.9635 -1.02274 0)
(1.90975 -1.07116 0)
(1.88333 -1.08372 0)
(1.87046 -1.08993 0)
(1.87203 -1.05649 0)
(1.89595 -1.04897 0)
(1.96141 -1.02154 0)
(2.16503 -0.902035 0)
(2.38223 -0.790943 0)
(2.77836 -0.44108 0)
(1.46037 1.21624 0)
(1.50078 1.53295 0)
(2.43762 0.243875 0)
(2.24593 0.816446 0)
(2.35336 0.637388 0)
(2.44307 0.207516 0)
(2.43343 -0.0913311 0)
(2.38887 -0.277945 0)
(2.32174 -0.439452 0)
(2.29969 -0.577388 0)
(2.20264 -0.735173 0)
(2.13648 -0.834291 0)
(2.08746 -0.88877 0)
(2.03311 -0.945963 0)
(1.99238 -0.96135 0)
(1.9536 -0.988782 0)
(1.95432 -1.01742 0)
(1.96876 -0.997616 0)
(1.99395 -0.996565 0)
(2.07091 -0.978245 0)
(1.31855 1.50876 0)
(1.63971 1.67725 0)
(2.06621 0.97855 0)
(2.35927 1.28315 0)
(2.56924 0.588218 0)
(2.42089 0.802897 0)
(2.46569 0.506585 0)
(2.46866 0.21091 0)
(2.44862 0.0264514 0)
(2.44903 -0.141347 0)
(2.41073 -0.333511 0)
(2.34945 -0.506762 0)
(2.30653 -0.623831 0)
(2.22748 -0.748567 0)
(2.16379 -0.822331 0)
(2.11144 -0.856779 0)
(2.0614 -0.909592 0)
(2.05628 -0.907194 0)
(2.04232 -0.92528 0)
(2.06231 -0.948593 0)
(1.2685 1.53293 0)
(1.6642 1.68356 0)
(1.96036 1.26292 0)
(2.00782 1.42586 0)
(2.4312 0.86306 0)
(2.50012 1.08876 0)
(2.61904 0.645808 0)
(2.61266 0.317482 0)
(2.59631 0.23215 0)
(2.5741 0.00555073 0)
(2.5614 -0.166605 0)
(2.49744 -0.361037 0)
(2.46087 -0.473686 0)
(2.3868 -0.598201 0)
(2.33412 -0.649109 0)
(2.2948 -0.652828 0)
(2.25639 -0.665244 0)
(2.24739 -0.660876 0)
(2.18069 -0.735861 0)
(2.13471 -0.781191 0)
(1.30234 1.54099 0)
(1.67522 1.73467 0)
(1.92758 1.57971 0)
(2.00201 1.38651 0)
(2.02601 1.38834 0)
(2.30915 1.2245 0)
(2.52572 0.919784 0)
(2.65459 0.498516 0)
(2.65908 0.297791 0)
(2.63741 0.198844 0)
(2.62717 0.0628671 0)
(2.6071 -0.0537747 0)
(2.5815 -0.140703 0)
(2.54722 -0.221234 0)
(2.49529 -0.294679 0)
(2.47276 -0.306366 0)
(2.43388 -0.36459 0)
(2.37786 -0.472089 0)
(2.30191 -0.591517 0)
(2.29501 -0.571583 0)
(1.42202 1.65213 0)
(1.60607 1.899 0)
(1.76573 1.90398 0)
(1.97441 1.50819 0)
(2.02195 1.63661 0)
(2.21546 1.30445 0)
(2.28963 1.40983 0)
(2.42571 1.13113 0)
(2.51235 0.904608 0)
(2.52995 0.839412 0)
(2.57255 0.636758 0)
(2.59778 0.473796 0)
(2.59994 0.309112 0)
(2.62272 0.19267 0)
(2.58033 -0.00485021 0)
(2.59006 -0.0991022 0)
(2.5362 -0.283391 0)
(2.48782 -0.366686 0)
(2.42836 -0.405941 0)
(2.45874 -0.321672 0)
(1.60725 1.7941 0)
(1.63208 2.04894 0)
(1.7186 2.12644 0)
(1.82276 1.94154 0)
(1.97467 1.91443 0)
(2.14971 1.50795 0)
(2.115 1.57357 0)
(2.26967 1.3757 0)
(2.35219 1.2397 0)
(2.41677 1.11684 0)
(2.52343 0.927243 0)
(2.60226 0.718589 0)
(2.64912 0.485378 0)
(2.70594 0.308202 0)
(2.66525 0.0524239 0)
(2.65662 -0.0506163 0)
(2.6253 -0.180615 0)
(2.60092 -0.103985 0)
(2.55219 -0.126231 0)
(2.58705 -0.0452054 0)
(1.68194 1.82786 0)
(1.74957 2.09834 0)
(1.79834 2.20184 0)
(1.79583 2.16396 0)
(1.94656 1.99953 0)
(2.09243 1.66257 0)
(2.14848 1.65399 0)
(2.27032 1.50645 0)
(2.39783 1.40275 0)
(2.53005 1.15104 0)
(2.66363 0.919502 0)
(2.72912 0.669074 0)
(2.74775 0.496077 0)
(2.75351 0.35631 0)
(2.74285 0.25434 0)
(2.72408 0.241186 0)
(2.70093 0.203921 0)
(2.68931 0.275532 0)
(2.64796 0.187157 0)
(2.61858 0.0264145 0)
(1.61309 1.76179 0)
(1.8807 2.10331 0)
(1.95783 2.28761 0)
(1.913 2.30121 0)
(2.07804 2.10464 0)
(2.20486 1.80418 0)
(2.36395 1.67516 0)
(2.49251 1.55366 0)
(2.67167 1.42375 0)
(2.74469 1.13149 0)
(2.78166 1.1347 0)
(2.80171 0.911071 0)
(2.76414 0.890979 0)
(2.75002 0.794775 0)
(2.73367 0.719801 0)
(2.71065 0.638738 0)
(2.70766 0.580704 0)
(2.73867 0.51307 0)
(2.71091 0.308166 0)
(2.68375 0.137173 0)
(1.49685 1.69109 0)
(1.87433 2.10409 0)
(2.06355 2.30882 0)
(2.15159 2.43282 0)
(2.29266 2.24485 0)
(2.35188 2.16497 0)
(2.46914 1.78116 0)
(2.53799 1.6606 0)
(2.58809 1.62047 0)
(2.62044 1.49173 0)
(2.58319 1.51679 0)
(2.62741 1.34125 0)
(2.60848 1.23007 0)
(2.63485 1.14165 0)
(2.66295 0.999888 0)
(2.6951 0.872019 0)
(2.7551 0.76349 0)
(2.78851 0.562112 0)
(2.78961 0.38414 0)
(2.7445 0.308159 0)
(1.33519 1.58993 0)
(1.72303 2.0863 0)
(2.07484 2.34676 0)
(2.19529 2.43521 0)
(2.33013 2.3085 0)
(2.34666 2.23492 0)
(2.40328 1.8818 0)
(2.27431 1.88969 0)
(2.2569 1.8574 0)
(2.29948 1.77186 0)
(2.36336 1.63457 0)
(2.46143 1.52123 0)
(2.52217 1.3452 0)
(2.6356 1.25959 0)
(2.68858 1.10161 0)
(2.76328 0.926869 0)
(2.81602 0.768635 0)
(2.8313 0.576165 0)