/*--------------------------------*- C++ -*----------------------------------*\
  =========                 |
  \\      /  F ield         | OpenFOAM: The Open Source CFD Toolbox
   \\    /   O peration     | Website:  https://openfoam.org
    \\  /    A nd           | Version:  7
     \\/     M anipulation  |
\*---------------------------------------------------------------------------*/
FoamFile
{
    version     2.0;
    format      ascii;
    class       volScalarField;
    location    "9.2";
    object      rho;
}
// * * * * * * * * * * * * * * * * * * * * * * * * * * * * * * * * * * * * * //

dimensions      [1 -3 0 0 0 0 0];

internalField   nonuniform List<scalar> 
3700
(
0.169214
0.283082
0.349966
0.424676
0.493302
0.549763
0.56462
0.577547
0.573254
0.590255
0.612323
0.626157
0.655918
0.653394
0.659968
0.692454
0.704828
0.719521
0.716284
0.730771
0.101793
0.121419
0.154346
0.174646
0.171079
0.167083
0.16992
0.160877
0.133126
0.137113
0.169157
0.219199
0.267458
0.281111
0.279282
0.284211
0.295612
0.305201
0.297333
0.284596
0.0901169
0.0993306
0.10647
0.0995377
0.0805176
0.0679066
0.0689884
0.07143
0.079188
0.0897787
0.104287
0.11664
0.132491
0.149741
0.157827
0.16031
0.160096
0.159435
0.160149
0.168994
0.0820674
0.0947359
0.0954827
0.0851757
0.0679137
0.0673983
0.0702022
0.0743726
0.0822757
0.0944489
0.10879
0.122457
0.140749
0.168199
0.194027
0.216971
0.230597
0.233329
0.230295
0.234387
0.0696789
0.0870741
0.0897902
0.0818129
0.0754469
0.0815003
0.088175
0.0995227
0.115176
0.135737
0.128508
0.134139
0.143035
0.167767
0.201968
0.23767
0.269874
0.29524
0.31396
0.321514
0.0646294
0.086385
0.0887638
0.0810739
0.0794189
0.0951138
0.104133
0.122736
0.153836
0.18343
0.185578
0.198533
0.191465
0.196477
0.209813
0.245041
0.29317
0.345899
0.389534
0.449791
0.0629671
0.087901
0.0891234
0.0794808
0.0759987
0.0979802
0.110024
0.135162
0.177817
0.212451
0.245247
0.270715
0.284946
0.302394
0.303081
0.314546
0.336903
0.391437
0.459267
0.57766
0.0688526
0.0843077
0.082604
0.0720546
0.0723046
0.0947909
0.111276
0.139305
0.183018
0.230018
0.282756
0.320676
0.372072
0.413449
0.448098
0.47919
0.506527
0.5385
0.58965
0.746634
0.0807424
0.0750856
0.069558
0.0696205
0.0826695
0.107546
0.12427
0.153603
0.186834
0.233741
0.30098
0.356148
0.43882
0.505837
0.575307
0.645626
0.709979
0.770253
0.825048
1.00994
0.0852631
0.0588725
0.0626481
0.082041
0.116363
0.143393
0.178002
0.231954
0.272824
0.307521
0.353951
0.420262
0.514703
0.606896
0.70473
0.819354
0.938007
1.05047
1.15699
1.32933
0.0832016
0.048486
0.0656508
0.0965469
0.130815
0.172955
0.242326
0.320496
0.40349
0.498515
0.577476
0.660461
0.744416
0.834025
0.92063
1.03984
1.20971
1.37532
1.63654
1.59384
0.0810645
0.04694
0.0644524
0.0930798
0.119555
0.174918
0.27771
0.367764
0.496494
0.667024
0.80633
0.945516
1.08167
1.20692
1.32258
1.46166
1.6331
1.82113
2.15569
2.11709
0.0752618
0.0455071
0.0491759
0.0686719
0.0980212
0.165568
0.280961
0.388353
0.564237
0.808903
1.03356
1.25201
1.4658
1.65
1.86068
2.08472
2.3042
2.53121
2.8957
2.89353
0.0628918
0.0420925
0.0406179
0.0570332
0.0957119
0.214965
0.370032
0.596383
0.91813
1.22787
1.51581
1.77358
2.03396
2.28178
2.60088
2.93029
3.25282
3.57947
3.87251
4.17803
0.0441094
0.0346066
0.035978
0.0564897
0.166938
0.547029
0.891714
1.27687
1.72047
2.12592
2.44503
2.74083
3.04513
3.36041
3.76834
4.15212
4.52139
4.8496
5.06167
5.24809
0.0253313
0.0314039
0.0334123
0.162091
0.550228
1.07718
1.6043
2.15143
2.735
3.24572
3.62247
4.00283
4.39182
4.80386
5.24785
5.53185
5.69023
5.73903
5.6089
5.435
0.0163532
0.0320112
0.149498
0.575333
1.30347
2.00812
2.72985
3.52775
4.36312
4.88624
5.21562
5.55207
5.85471
6.08822
6.20596
6.10184
5.80142
5.0658
3.88656
2.64344
0.0301926
0.172359
0.742469
1.67859
2.88128
4.00008
4.9356
5.8783
6.5939
6.70808
6.58629
6.59871
6.54272
6.31092
5.60255
4.26776
2.91074
1.85945
1.42513
1.39003
0.44048
1.24795
2.78712
4.47557
5.80956
6.65923
7.46495
8.17011
7.97463
7.33826
6.7303
5.989
4.71657
3.24013
1.994
1.44237
1.38527
1.39296
1.39628
1.39923
3.23193
5.06576
6.81186
7.91721
8.53608
8.89378
9.07983
8.67437
6.32363
4.46649
3.30614
2.18372
1.50921
1.38216
1.38992
1.39472
1.39881
1.39997
1.40003
1.40002
9.69042
9.61064
9.55928
9.55078
9.62162
9.42002
8.36747
3.28861
0.885349
1.40001
1.40001
1.40001
1.40001
1.40001
1.40001
1.40001
1.40001
1.40001
1.40001
1.40001
9.6475
9.56485
9.48777
9.45453
9.56109
8.02895
3.59435
1.4221
1.40001
1.40001
1.40001
1.40001
1.40001
1.40001
1.40001
1.40001
1.40001
1.40001
1.40001
1.40001
9.43492
9.49945
9.4467
9.19394
8.87362
4.60484
1.44254
1.39937
1.40001
1.40001
1.40001
1.40001
1.40001
1.40001
1.40001
1.40001
1.40001
1.40001
1.40001
1.40001
9.25307
9.46981
9.44375
8.85788
6.56481
2.03568
1.39237
1.40013
1.4
1.40001
1.40001
1.40001
1.40001
1.40001
1.40001
1.40001
1.40001
1.40001
1.40001
1.40001
9.03305
9.47517
9.50444
8.55898
3.92121
1.36293
1.40051
1.4
1.40001
1.40001
1.40001
1.40001
1.40001
1.40001
1.40001
1.40001
1.40001
1.40001
1.40001
1.40001
8.86187
9.36847
9.49691
7.01467
1.93233
1.40001
1.40001
1.40001
1.40001
1.40001
1.40001
1.40001
1.40001
1.40001
1.40001
1.40001
1.40001
1.40001
1.40001
1.40001
8.80758
9.22088
9.15328
4.80131
1.36529
1.40001
1.40001
1.40001
1.40001
1.40001
1.40001
1.40001
1.40001
1.40001
1.40001
1.40001
1.40001
1.40001
1.40001
1.40001
8.98395
9.19461
8.42982
2.8828
1.40001
1.40001
1.40001
1.40001
1.40001
1.40001
1.40001
1.40001
1.40001
1.40001
1.40001
1.40001
1.40001
1.40001
1.40001
1.40001
9.63367
9.32476
6.86707
1.63266
1.40001
1.40001
1.40001
1.40001
1.40001
1.40001
1.40001
1.40001
1.40001
1.40001
1.40001
1.40001
1.40001
1.40001
1.40001
1.40001
9.99274
8.82044
4.92888
1.38272
1.40001
1.40001
1.40001
1.40001
1.40001
1.40001
1.40001
1.40001
1.40001
1.40001
1.40001
1.40001
1.40001
1.40001
1.40001
1.40001
10.2878
8.35569
3.20887
1.40001
1.40001
1.40001
1.40001
1.40001
1.40001
1.40001
1.40001
1.40001
1.40001
1.40001
1.40001
1.40001
1.40001
1.40001
1.40001
1.40001
10.4095
7.50139
2.2204
1.40001
1.40001
1.40001
1.40001
1.40001
1.40001
1.40001
1.40001
1.40001
1.40001
1.40001
1.40001
1.40001
1.40001
1.40001
1.40001
1.40001
10.4748
6.56508
1.64095
1.40001
1.40001
1.40001
1.40001
1.40001
1.40001
1.40001
1.40001
1.40001
1.40001
1.40001
1.40001
1.40001
1.40001
1.40001
1.40001
1.40001
10.2889
5.51671
1.40226
1.40001
1.40001
1.40001
1.40001
1.40001
1.40001
1.40001
1.40001
1.40001
1.40001
1.40001
1.40001
1.40001
1.40001
1.40001
1.40001
1.40001
9.89656
4.43221
1.40001
1.40001
1.40001
1.40001
1.40001
1.40001
1.40001
1.40001
1.40001
1.40001
1.40001
1.40001
1.40001
1.40001
1.40001
1.40001
1.40001
1.40001
9.55457
3.60015
1.40001
1.40001
1.40001
1.40001
1.40001
1.40001
1.40001
1.40001
1.40001
1.40001
1.40001
1.40001
1.40001
1.40001
1.40001
1.40001
1.40001
1.40001
9.35137
2.66897
1.40001
1.40001
1.40001
1.40001
1.40001
1.40001
1.40001
1.40001
1.40001
1.40001
1.40001
1.40001
1.40001
1.40001
1.40001
1.40001
1.40001
1.40001
8.74451
1.87855
1.40001
1.40001
1.40001
1.40001
1.40001
1.40001
1.40001
1.40001
1.40001
1.40001
1.40001
1.40001
1.40001
1.40001
1.40001
1.40001
1.40001
1.40001
7.85267
1.40671
1.40001
1.40001
1.40001
1.40001
1.40001
1.40001
1.40001
1.40001
1.40001
1.40001
1.40001
1.40001
1.40001
1.40001
1.40001
1.40001
1.40001
1.40001
6.48416
1.40009
1.40001
1.40001
1.40001
1.40001
1.40001
1.40001
1.40001
1.40001
1.40001
1.40001
1.40001
1.40001
1.40001
1.40001
1.40001
1.40001
1.40001
1.40001
6.48723
1.4001
1.40001
1.40001
1.40001
1.40001
1.40001
1.40001
1.40001
1.40001
1.40001
1.40001
1.40001
1.40001
1.40001
1.40001
1.40001
1.40001
1.40001
1.40001
7.87106
1.40646
1.40001
1.40001
1.40001
1.40001
1.40001
1.40001
1.40001
1.40001
1.40001
1.40001
1.40001
1.40001
1.40001
1.40001
1.40001
1.40001
1.40001
1.40001
8.71851
1.86637
1.40001
1.40001
1.40001
1.40001
1.40001
1.40001
1.40001
1.40001
1.40001
1.40001
1.40001
1.40001
1.40001
1.40001
1.40001
1.40001
1.40001
1.40001
9.37326
2.65061
1.40001
1.40001
1.40001
1.40001
1.40001
1.40001
1.40001
1.40001
1.40001
1.40001
1.40001
1.40001
1.40001
1.40001
1.40001
1.40001
1.40001
1.40001
9.57439
3.6125
1.40001
1.40001
1.40001
1.40001
1.40001
1.40001
1.40001
1.40001
1.40001
1.40001
1.40001
1.40001
1.40001
1.40001
1.40001
1.40001
1.40001
1.40001
9.87322
4.45865
1.40001
1.40001
1.40001
1.40001
1.40001
1.40001
1.40001
1.40001
1.40001
1.40001
1.40001
1.40001
1.40001
1.40001
1.40001
1.40001
1.40001
1.40001
10.2841
5.50256
1.40113
1.40001
1.40001
1.40001
1.40001
1.40001
1.40001
1.40001
1.40001
1.40001
1.40001
1.40001
1.40001
1.40001
1.40001
1.40001
1.40001
1.40001
10.4825
6.56023
1.63839
1.40001
1.40001
1.40001
1.40001
1.40001
1.40001
1.40001
1.40001
1.40001
1.40001
1.40001
1.40001
1.40001
1.40001
1.40001
1.40001
1.40001
10.4205
7.4912
2.21869
1.40001
1.40001
1.40001
1.40001
1.40001
1.40001
1.40001
1.40001
1.40001
1.40001
1.40001
1.40001
1.40001
1.40001
1.40001
1.40001
1.40001
10.307
8.36781
3.18759
1.40001
1.40001
1.40001
1.40001
1.40001
1.40001
1.40001
1.40001
1.40001
1.40001
1.40001
1.40001
1.40001
1.40001
1.40001
1.40001
1.40001
9.99884
8.81751
4.92544
1.38255
1.40001
1.40001
1.40001
1.40001
1.40001
1.40001
1.40001
1.40001
1.40001
1.40001
1.40001
1.40001
1.40001
1.40001
1.40001
1.40001
9.61618
9.3193
6.86715
1.64268
1.40001
1.40001
1.40001
1.40001
1.40001
1.40001
1.40001
1.40001
1.40001
1.40001
1.40001
1.40001
1.40001
1.40001
1.40001
1.40001
8.97488
9.21626
8.46419
2.88517
1.40001
1.40001
1.40001
1.40001
1.40001
1.40001
1.40001
1.40001
1.40001
1.40001
1.40001
1.40001
1.40001
1.40001
1.40001
1.40001
8.80456
9.21849
9.13044
4.82292
1.3707
1.40001
1.40001
1.40001
1.40001
1.40001
1.40001
1.40001
1.40001
1.40001
1.40001
1.40001
1.40001
1.40001
1.40001
1.40001
8.85224
9.35321
9.48779
6.95201
1.90919
1.40001
1.40001
1.40001
1.40001
1.40001
1.40001
1.40001
1.40001
1.40001
1.40001
1.40001
1.40001
1.40001
1.40001
1.40001
9.02227
9.47599
9.52038
8.67764
3.88426
1.36314
1.40052
1.4
1.40001
1.40001
1.40001
1.40001
1.40001
1.40001
1.40001
1.40001
1.40001
1.40001
1.40001
1.40001
9.24175
9.46937
9.4612
8.85959
6.60073
2.0701
1.39169
1.40014
1.4
1.40001
1.40001
1.40001
1.40001
1.40001
1.40001
1.40001
1.40001
1.40001
1.40001
1.40001
9.42288
9.49474
9.41698
9.13377
8.80383
4.63057
1.45051
1.39921
1.40001
1.40001
1.40001
1.40001
1.40001
1.40001
1.40001
1.40001
1.40001
1.40001
1.40001
1.40001
9.63738
9.5603
9.47626
9.43711
9.60563
8.01979
3.5708
1.41783
1.40001
1.40001
1.40001
1.40001
1.40001
1.40001
1.40001
1.40001
1.40001
1.40001
1.40001
1.40001
9.69407
9.6144
9.5701
9.58021
9.67142
9.42618
8.36327
3.25096
0.892349
1.40001
1.40001
1.40001
1.40001
1.40001
1.40001
1.40001
1.40001
1.40001
1.40001
1.40001
3.23255
5.06719
6.81538
7.92944
8.55365
8.90394
9.08433
8.67151
6.32118
4.46658
3.30903
2.18873
1.51159
1.38237
1.38998
1.39474
1.39881
1.39997
1.40003
1.40002
0.442083
1.2491
2.78349
4.48459
5.81568
6.65469
7.45713
8.16761
7.9738
7.33878
6.72959
5.98706
4.71596
3.23946
1.99292
1.44188
1.38524
1.39296
1.39628
1.39923
0.030878
0.176826
0.745603
1.68
2.87906
3.99602
4.92529
5.86604
6.59549
6.70603
6.57906
6.59351
6.53965
6.31083
5.60407
4.27003
2.91213
1.85944
1.42496
1.39004
0.0147817
0.0297275
0.16444
0.585074
1.31614
2.01179
2.72959
3.53214
4.3681
4.88346
5.20847
5.54596
5.85095
6.09007
6.2094
6.10507
5.80403
5.0663
3.88455
2.64132
0.0227598
0.0269873
0.0315316
0.167141
0.543687
1.0813
1.61349
2.15905
2.74585
3.25531
3.62737
4.00349
4.39158
4.80548
5.25315
5.53764
5.69173
5.73754
5.60683
5.43285
0.0391818
0.0279287
0.0307816
0.0596126
0.158524
0.530728
0.885224
1.27798
1.72056
2.12264
2.44107
2.7353
3.03899
3.35586
3.76828
4.15484
4.52252
4.84793
5.05952
5.2473
0.0588991
0.0352166
0.0359763
0.058699
0.097496
0.212101
0.36609
0.592036
0.908117
1.21796
1.5074
1.76753
2.03059
2.28217
2.60476
2.93441
3.25469
3.57892
3.87125
4.17724
0.073851
0.0435035
0.0460938
0.0712195
0.103634
0.17127
0.28805
0.393303
0.569133
0.813764
1.03544
1.25347
1.46798
1.65348
1.86374
2.0863
2.30391
2.52982
2.89401
2.89218
0.0798211
0.0467266
0.0621463
0.0957513
0.129636
0.18039
0.280197
0.370571
0.500611
0.669264
0.807463
0.946465
1.08267
1.20766
1.32166
1.45952
1.63177
1.82078
2.15613
2.11778
0.0815005
0.0475443
0.0621203
0.0954746
0.133552
0.174895
0.240995
0.319306
0.402078
0.49561
0.575138
0.658342
0.742125
0.831507
0.919386
1.04106
1.21256
1.3782
1.63728
1.59329
0.0851673
0.0532445
0.0574469
0.0777643
0.114036
0.141327
0.174908
0.228813
0.269454
0.30438
0.352665
0.420266
0.51607
0.608938
0.707726
0.822597
0.940138
1.05135
1.15637
1.32711
0.0876443
0.0688459
0.0623242
0.06726
0.0793148
0.105431
0.124673
0.154698
0.188525
0.236847
0.303733
0.358581
0.441137
0.508016
0.577046
0.646173
0.70918
0.767251
0.821498
1.00669
0.0781303
0.0818983
0.0777518
0.0707733
0.0724007
0.0978116
0.11364
0.141769
0.185218
0.232331
0.284582
0.322229
0.372852
0.413444
0.446624
0.47614
0.502185
0.53348
0.585718
0.745468
0.0718264
0.0877314
0.0854115
0.0781598
0.077256
0.100947
0.111668
0.136185
0.178841
0.213741
0.245602
0.270683
0.282398
0.298383
0.299134
0.310458
0.334306
0.391768
0.460174
0.579296
0.072288
0.0884724
0.0864604
0.0793174
0.0801163
0.096651
0.104657
0.122922
0.153794
0.183744
0.183574
0.195621
0.18885
0.194256
0.209408
0.246374
0.294847
0.347721
0.391205
0.45098
0.0767358
0.0900655
0.0876631
0.0797849
0.0745631
0.0813962
0.0875038
0.0987221
0.114604
0.134206
0.128172
0.133773
0.143412
0.169052
0.203602
0.239312
0.271198
0.296247
0.314195
0.320816
0.0884658
0.0994282
0.0967183
0.0851992
0.0685902
0.0679123
0.0701131
0.0742986
0.0828691
0.0950581
0.109898
0.123418
0.142
0.169787
0.195621
0.217691
0.230446
0.23295
0.229562
0.233459
0.0947494
0.101938
0.107445
0.10071
0.0827976
0.0688458
0.0698966
0.0725054
0.0803612
0.0907155
0.105357
0.117611
0.133546
0.150645
0.158125
0.159671
0.159061
0.158402
0.159468
0.169043
0.106163
0.127539
0.154668
0.17098
0.185044
0.182216
0.164569
0.17329
0.198779
0.225511
0.231272
0.227096
0.244719
0.275835
0.304256
0.306325
0.278855
0.256487
0.26736
0.26669
0.171366
0.297762
0.362936
0.425302
0.50239
0.558999
0.566612
0.584161
0.616706
0.645574
0.647958
0.628722
0.655016
0.659699
0.669694
0.685104
0.675857
0.678013
0.706619
0.722301
0.78109
0.899965
0.987388
1.07191
1.11633
1.20036
1.23603
1.24878
1.23789
1.23366
1.24742
1.28577
1.33508
1.34992
1.32721
1.29202
1.29261
1.32143
1.35495
1.35062
0.401679
0.583526
0.78022
0.939877
1.02995
1.13969
1.20072
1.25819
1.2576
1.2637
1.27497
1.29255
1.31288
1.32979
1.32756
1.316
1.31501
1.32543
1.33894
1.34086
0.192607
0.223935
0.340182
0.510815
0.734492
0.940752
1.07897
1.19634
1.2551
1.27911
1.28867
1.28843
1.29388
1.31264
1.32829
1.33453
1.33715
1.33552
1.32914
1.33077
0.260851
0.302081
0.324889
0.332198
0.359185
0.452932
0.703285
0.975937
1.16683
1.26301
1.30515
1.27972
1.26259
1.28085
1.32223
1.34523
1.34856
1.33768
1.31857
1.32495
0.323939
0.362071
0.404195
0.416239
0.408403
0.395686
0.410717
0.514536
0.817229
1.14062
1.25401
1.24993
1.23631
1.25942
1.31645
1.3561
1.35698
1.33586
1.31188
1.32324
0.429142
0.449919
0.479161
0.478079
0.461079
0.452969
0.451298
0.451514
0.497427
0.714659
1.03066
1.21798
1.22387
1.25265
1.3077
1.34825
1.35035
1.32906
1.31369
1.32836
0.556189
0.556255
0.562296
0.562691
0.549209
0.526531
0.511783
0.505973
0.503778
0.525916
0.646589
0.948868
1.20403
1.25883
1.29577
1.3386
1.33984
1.31877
1.32095
1.33884
0.730581
0.692336
0.647738
0.636095
0.628001
0.596675
0.561665
0.553306
0.550615
0.542169
0.54717
0.620982
0.909829
1.1834
1.25557
1.32524
1.31645
1.30986
1.33361
1.34625
0.953677
0.854264
0.747118
0.699335
0.705162
0.683435
0.643208
0.619841
0.601573
0.59604
0.573644
0.572089
0.625951
0.882009
1.17293
1.31785
1.28121
1.29917
1.34816
1.34586
1.22439
1.06103
0.881053
0.808065
0.794538
0.772825
0.7261
0.682779
0.635127
0.623385
0.614558
0.593732
0.598548
0.641126
0.857992
1.15179
1.22065
1.30244
1.35946
1.34182
1.75938
1.38332
1.09542
0.884267
0.849402
0.88304
0.873693
0.833704
0.767472
0.678177
0.654111
0.654778
0.651601
0.653858
0.66872
0.778392
1.03099
1.24286
1.31552
1.32783
2.81228
2.08833
1.70208
1.29824
1.06677
1.04773
1.02266
0.976703
0.892612
0.814343
0.770758
0.75954
0.747814
0.720792
0.675043
0.677755
0.729588
0.895276
1.10916
1.27475
3.48633
2.99908
2.41036
1.91595
1.51912
1.26359
1.11853
1.05574
0.985032
0.926992
0.921913
0.905431
0.871542
0.816572
0.765465
0.720664
0.727349
0.745352
0.809181
1.05148
3.29529
3.27222
3.10315
2.68438
2.20277
1.78682
1.4794
1.31052
1.21997
1.12362
1.04926
0.993401
0.932771
0.873727
0.840847
0.804441
0.787759
0.779868
0.768025
0.813371
2.34504
3.0007
3.09693
3.05999
2.87129
2.47843
2.07264
1.71839
1.5189
1.34725
1.19211
1.10255
1.01148
0.995187
0.997952
0.966314
0.903858
0.857969
0.795965
0.800077
1.55134
2.01204
2.58562
2.95234
2.94859
2.88952
2.69511
2.34605
1.99771
1.73193
1.50701
1.36828
1.25995
1.18168
1.12531
1.05293
0.966455
0.910062
0.883227
0.854976
1.40633
1.46189
1.68915
2.1686
2.60241
2.81936
2.81061
2.75072
2.55506
2.27271
1.96166
1.699
1.51916
1.3497
1.22847
1.15702
1.08621
1.02267
1.01629
0.979099
1.40013
1.40156
1.4148
1.51077
1.77488
2.2001
2.54481
2.70074
2.69171
2.6351
2.47425
2.20222
1.94037
1.71111
1.50509
1.40806
1.32785
1.23538
1.15883
1.06287
1.40001
1.40002
1.40021
1.40349
1.42689
1.53769
1.80512
2.17819
2.47434
2.59428
2.5865
2.53527
2.39418
2.17933
1.92584
1.70055
1.54493
1.40744
1.28932
1.15821
1.40001
1.40001
1.40001
1.40004
1.40048
1.40509
1.43535
1.55101
1.79959
2.12151
2.39236
2.50028
2.49259
2.45247
2.34446
2.14656
1.92704
1.72316
1.57454
1.3948
1.40001
1.40001
1.40001
1.40001
1.40001
1.40006
1.40075
1.40634
1.43727
1.54755
1.7709
2.0569
2.29142
2.41701
2.41205
2.38188
2.29866
2.1381
1.95311
1.671
1.40001
1.40001
1.40001
1.40001
1.40001
1.40001
1.40001
1.40008
1.40082
1.4069
1.43365
1.53612
1.72561
1.99188
2.19184
2.33117
2.33004
2.31422
2.26286
2.04959
1.40001
1.40001
1.40001
1.40001
1.40001
1.40001
1.40001
1.40001
1.40001
1.4001
1.40073
1.40667
1.4293
1.51247
1.67724
1.92152
2.10673
2.23393
2.25758
2.22631
1.40001
1.40001
1.40001
1.40001
1.40001
1.40001
1.40001
1.40001
1.40001
1.40001
1.40001
1.4001
1.40065
1.40496
1.42517
1.48773
1.62982
1.8392
2.01924
2.16408
1.40001
1.40001
1.40001
1.40001
1.40001
1.40001
1.40001
1.40001
1.40001
1.40001
1.40001
1.40001
1.40001
1.40007
1.40058
1.40353
1.41977
1.47182
1.59111
1.94167
2.25477
3.43015
3.59427
2.90525
1.83087
1.45143
1.40262
1.40007
1.40001
1.40001
1.40001
1.40001
1.40001
1.40001
1.40001
3.2685
3.91755
3.51956
2.15133
1.46715
1.40114
1.40001
1.4
1.40001
1.40001
1.40001
1.40001
1.40001
1.40001
1.40001
4.07825
3.99649
2.76283
1.61253
1.40732
1.40008
1.40001
1.40001
1.40001
1.40001
1.40001
1.40001
1.40001
1.40001
1.40001
4.52692
3.56563
1.90815
1.42662
1.40025
1.40001
1.40001
1.40001
1.40001
1.40001
1.40001
1.40001
1.40001
1.40001
1.40001
4.61949
2.35167
1.46576
1.40073
1.40001
1.40001
1.40001
1.40001
1.40001
1.40001
1.40001
1.40001
1.40001
1.40001
1.40001
2.8842
1.50223
1.40069
1.4
1.4
1.40001
1.40001
1.40001
1.40001
1.40001
1.40001
1.40001
1.40001
1.40001
1.40001
1.54312
1.40079
1.4
1.4
1.40001
1.40001
1.40001
1.40001
1.40001
1.40001
1.40001
1.40001
1.40001
1.40001
1.40001
1.3974
1.39982
1.4
1.40001
1.40001
1.40001
1.40001
1.40001
1.40001
1.40001
1.40001
1.40001
1.40001
1.40001
1.40001
1.39996
1.40001
1.40001
1.40001
1.40001
1.40001
1.40001
1.40001
1.40001
1.40001
1.40001
1.40001
1.40001
1.40001
1.40001
1.40001
1.40001
1.40001
1.40001
1.40001
1.40001
1.40001
1.40001
1.40001
1.40001
1.40001
1.40001
1.40001
1.40001
1.40001
1.40001
1.40001
1.40001
1.40001
1.40001
1.40001
1.40001
1.40001
1.40001
1.40001
1.40001
1.40001
1.40001
1.40001
1.40001
1.40001
1.40001
1.40001
1.40001
1.40001
1.40001
1.40001
1.40001
1.40001
1.40001
1.40001
1.40001
1.40001
1.40001
1.40001
1.40001
1.40001
1.40001
1.40001
1.40001
1.40001
1.40001
1.40001
1.40001
1.40001
1.40001
1.40001
1.40001
1.40001
1.40001
1.40001
1.40001
1.40001
1.40001
1.40001
1.40001
1.40001
1.40001
1.40001
1.40001
1.40001
1.40001
1.40001
1.40001
1.40001
1.40001
1.40001
1.40001
1.40001
1.40001
1.40001
1.40001
1.40001
1.40001
1.40001
1.40001
1.40001
1.40001
1.40001
1.40001
1.40001
1.40001
1.40001
1.40001
1.40001
1.40001
1.40001
1.40001
1.40001
1.40001
1.40001
1.40001
1.40001
1.40001
1.40001
1.40001
1.40001
1.40001
1.40001
1.40001
1.40001
1.40001
1.40001
1.40001
1.40001
1.40001
1.40001
1.40001
1.40001
1.40001
1.40001
1.40001
1.40001
1.40001
1.40001
1.40001
1.40001
1.40001
1.40001
1.40001
1.40001
1.40001
1.40001
1.40001
1.40001
1.40001
1.40001
1.40001
1.40001
1.40001
1.40001
1.40001
1.40001
1.40001
1.40001
1.40001
1.40001
1.40001
1.40001
1.40001
1.40001
1.40001
1.40001
1.40001
1.40001
1.40001
1.40001
1.40001
1.40001
1.40001
1.40001
1.40001
1.40001
1.40001
1.40001
1.40001
1.40001
1.40001
1.40001
1.40001
1.40001
1.40001
1.40001
1.40001
1.40001
1.40001
1.40001
1.40001
1.40001
1.40001
1.40001
1.40001
1.40001
1.40001
1.40001
1.40001
1.40001
1.40001
1.40001
1.40001
1.40001
1.40001
1.40001
1.40001
1.40001
1.40001
1.40001
1.40001
1.40001
1.40001
1.40001
1.40001
1.40001
1.40001
1.40001
1.40001
1.40001
1.40001
1.40001
1.40001
1.40001
1.40001
1.40001
1.40001
1.40001
1.40001
1.40001
1.40001
1.40001
1.40001
1.40001
1.40001
1.40001
1.40001
1.40001
1.40001
1.40001
1.40001
1.40001
1.40001
1.40001
1.40001
1.40001
1.40001
1.40001
1.40001
1.40001
1.40001
1.40001
1.40001
1.40001
1.40001
1.40001
1.40001
1.40001
1.40001
1.40001
1.40001
1.40001
1.40001
1.40001
1.40001
1.40001
1.40001
1.40001
1.40001
1.40001
1.40001
1.40001
1.40001
1.40001
1.40001
1.40001
1.40001
1.40001
1.40001
1.40001
1.40001
1.40001
1.40001
1.40001
1.40001
1.40001
1.40001
1.40001
1.40001
1.40001
1.40001
1.40001
1.40001
1.40001
1.40001
1.40001
1.40001
1.40001
1.40001
1.40001
1.40001
1.40001
1.40001
1.40001
1.40001
1.40001
1.40001
1.40001
1.40001
1.40001
1.40001
1.40001
1.40001
1.40001
1.40001
1.40001
1.40001
1.40001
1.40001
1.40001
1.40001
1.40001
1.40001
1.40001
1.40001
1.40001
1.40001
1.40001
1.40001
1.40001
1.40001
1.40001
1.40001
1.40001
1.40001
1.40001
1.40001
1.40001
1.40001
1.40001
1.40001
1.40001
1.40001
1.40001
1.40001
1.40001
1.40001
1.40001
1.40001
1.40001
1.40001
1.40001
1.40001
1.40001
1.40001
1.40001
1.40001
1.40001
1.40001
1.40001
1.40001
1.40001
1.40001
1.40001
1.40001
1.40001
1.40001
1.40001
1.40001
1.40001
1.40001
1.40001
1.40001
1.40001
1.40001
1.40001
1.40001
1.40001
1.40001
1.40001
1.40001
1.40001
1.40001
1.40001
1.40001
1.40001
1.40001
1.40001
1.40001
1.40001
1.40001
1.40001
1.40001
1.40001
1.40001
1.40001
1.40001
1.40001
1.40001
1.40001
1.40001
1.40001
1.40001
1.40001
1.40001
1.40001
1.40001
1.40001
1.40001
1.40001
1.40001
1.40001
1.40001
1.40001
1.40001
1.40001
1.40001
1.40001
1.40001
1.40001
1.40001
1.40001
1.40001
1.40001
1.40001
1.40001
1.40001
1.40001
1.40001
1.40001
1.40001
1.40001
1.40001
1.40001
1.40001
1.40001
1.40001
1.40001
1.40001
1.40001
1.40001
1.40001
1.40001
1.40001
1.40001
1.40001
1.40001
1.40001
1.40001
1.40001
1.40001
1.40001
1.40001
1.40001
1.40001
1.40001
1.40001
1.40001
1.40001
1.40001
1.40001
1.40001
1.40001
1.40001
1.40001
1.40001
1.40001
1.40001
1.40001
1.40001
1.40001
1.40001
1.40001
1.40001
1.40001
1.40001
1.40001
1.40001
1.40001
1.40001
1.40001
1.40001
1.40001
1.40001
1.40001
1.40001
1.40001
1.40001
1.40001
1.40001
1.40001
1.40001
1.40001
1.40001
1.40001
1.40001
1.40001
1.40001
1.40001
1.40001
1.40001
1.40001
1.40001
1.40001
1.40001
1.40001
1.40001
1.40001
1.40001
1.40001
1.40001
1.40001
1.40001
1.40001
1.40001
1.40001
1.40001
1.40001
1.40001
1.40001
1.40001
1.40001
1.40001
1.40001
1.40001
1.40001
1.40001
1.40001
1.40001
1.40001
1.40001
1.40001
1.40001
1.40001
1.40001
1.40001
1.40001
1.40001
1.40001
1.40001
1.40001
1.40001
1.40001
1.40001
1.40001
1.40001
1.40001
1.40001
1.40001
1.40001
1.40001
1.40001
1.40001
1.40001
1.40001
1.40001
1.40001
1.40001
1.40001
1.40001
1.40001
1.40001
1.40001
1.40001
1.40001
1.40001
1.40001
1.40001
1.40001
1.40001
1.40001
1.40001
1.40001
1.40001
1.40001
1.40001
1.40001
1.40001
1.40001
1.40001
1.40001
1.40001
1.40001
1.40001
1.40001
1.40001
1.40001
1.40001
1.40001
1.40001
1.40001
1.40001
1.40001
1.40001
1.40001
1.40001
1.40001
1.40001
1.40001
1.40001
1.40001
1.40001
1.40001
1.40001
1.40001
1.40001
1.40001
1.40001
1.40001
1.40001
1.40001
1.40001
1.40001
1.40001
1.40001
1.40001
1.40001
1.40001
1.40001
1.40001
1.40001
1.40001
1.40001
1.40001
1.40001
1.40001
1.40001
1.40001
1.40001
1.40001
1.40001
1.40001
1.40001
1.40001
1.40001
1.40001
1.40001
1.40001
1.40001
1.40001
1.40001
1.40001
1.40001
1.40001
1.40001
1.40001
1.40001
1.40001
1.40001
1.40001
1.40001
1.40001
1.40001
1.40001
1.40001
1.40001
1.40001
1.40001
1.40001
1.40001
1.40001
1.40001
1.40001
1.40001
1.40001
1.40001
1.40001
1.40001
1.40001
1.40001
1.40001
1.40001
1.40001
1.40001
1.40001
1.40001
1.40001
1.40001
1.40001
1.40001
1.40001
1.40001
1.40001
1.40001
1.40001
1.40001
1.40001
1.40001
1.40001
1.40001
1.40001
1.40001
1.40001
1.40001
1.40001
1.40001
1.40001
1.40001
1.40001
1.40001
1.40001
1.40001
1.40001
1.40001
1.40001
1.40001
1.40001
1.40001
1.40001
1.40001
1.40001
1.40001
1.40001
1.40001
1.40001
1.40001
1.40001
1.40001
1.40001
1.40001
1.40001
1.40001
1.40001
1.40001
1.40001
1.40001
1.40001
1.40001
1.40001
1.40001
1.40001
1.40001
1.40001
1.40001
1.40001
1.40001
1.40001
1.40001
1.40001
1.40001
1.40001
1.40001
1.40001
1.40001
1.40001
1.40001
1.40001
1.40001
1.40001
1.40001
1.40001
1.40001
1.40001
1.40001
1.40001
1.40001
1.40001
1.40001
1.40001
1.40001
1.40001
1.40001
1.40001
1.40001
1.40001
1.40001
1.40001
1.40001
1.40001
1.40001
1.40001
1.40001
1.40001
1.40001
1.40001
1.40001
1.40001
1.40001
1.40001
1.40001
1.40001
1.40001
1.40001
1.40001
1.40001
1.40001
1.40001
1.40001
1.40001
1.40001
1.40001
1.40001
1.40001
1.40001
1.40001
1.40001
1.40001
1.40001
1.40001
1.40001
1.40001
1.40001
1.40001
1.40001
1.40001
1.40001
1.40001
1.40001
1.40001
1.40001
1.40001
1.40001
1.40001
1.40001
1.40001
1.40001
1.40001
1.40001
1.40001
1.40001
1.40001
1.40001
1.40001
1.40001
1.40001
1.40001
1.40001
1.40001
1.40001
1.40001
1.40001
1.40001
1.40001
1.40001
1.40001
1.40001
1.40001
1.40001
1.40001
1.40001
1.40001
1.40001
1.40001
1.39996
1.40001
1.40001
1.40001
1.40001
1.40001
1.40001
1.40001
1.40001
1.40001
1.40001
1.40001
1.40001
1.40001
1.40001
1.3974
1.39982
1.4
1.40001
1.40001
1.40001
1.40001
1.40001
1.40001
1.40001
1.40001
1.40001
1.40001
1.40001
1.40001
1.54287
1.40079
1.4
1.4
1.40001
1.40001
1.40001
1.40001
1.40001
1.40001
1.40001
1.40001
1.40001
1.40001
1.40001
2.88406
1.50234
1.40069
1.4
1.4
1.40001
1.40001
1.40001
1.40001
1.40001
1.40001
1.40001
1.40001
1.40001
1.40001
4.6196
2.35197
1.46584
1.40073
1.40001
1.40001
1.40001
1.40001
1.40001
1.40001
1.40001
1.40001
1.40001
1.40001
1.40001
4.5273
3.56637
1.90825
1.4266
1.40025
1.40001
1.40001
1.40001
1.40001
1.40001
1.40001
1.40001
1.40001
1.40001
1.40001
4.07765
3.99695
2.76327
1.61257
1.40732
1.40008
1.40001
1.40001
1.40001
1.40001
1.40001
1.40001
1.40001
1.40001
1.40001
3.26849
3.91763
3.51987
2.1513
1.46714
1.40114
1.40001
1.4
1.40001
1.40001
1.40001
1.40001
1.40001
1.40001
1.40001
2.2539
3.43057
3.59458
2.90508
1.83076
1.45142
1.40262
1.40007
1.40001
1.40001
1.40001
1.40001
1.40001
1.40001
1.40001
1.76148
2.80794
3.4857
3.29593
2.34581
1.55155
1.40633
1.40013
1.40001
1.40001
1.40001
1.40001
1.40001
1.40001
1.40001
1.38988
2.09256
2.99681
3.27168
2.99967
2.01242
1.462
1.40156
1.40002
1.40001
1.40001
1.40001
1.40001
1.40001
1.40001
1.09408
1.70558
2.41699
3.10131
3.09799
2.5847
1.68857
1.41479
1.40021
1.40001
1.40001
1.40001
1.40001
1.40001
1.40001
0.880401
1.27953
1.90933
2.69319
3.06125
2.95211
2.16723
1.51006
1.40346
1.40004
1.40001
1.40001
1.40001
1.40001
1.40001
0.85879
1.07913
1.49656
2.20173
2.87102
2.9477
2.60158
1.77443
1.42683
1.40048
1.40001
1.40001
1.40001
1.40001
1.40001
0.892382
1.06726
1.27076
1.76526
2.47346
2.88989
2.81851
2.19908
1.53796
1.40515
1.40007
1.40001
1.40001
1.40001
1.40001
0.874389
1.03029
1.14381
1.48827
2.07204
2.69311
2.80986
2.54538
1.80519
1.43513
1.40074
1.40001
1.40001
1.40001
1.40001
0.828644
0.961937
1.05661
1.32603
1.73241
2.3461
2.75079
2.70121
2.17786
1.55129
1.40637
1.40009
1.40001
1.40001
1.40001
0.773077
0.869505
0.972424
1.22593
1.51923
2.00661
2.55749
2.69192
2.47327
1.79899
1.43729
1.40083
1.40001
1.40001
1.40001
0.699094
0.799764
0.937932
1.135
1.33189
1.73726
2.27213
2.63587
2.59578
2.12271
1.54694
1.40682
1.4001
1.40001
1.40001
0.670142
0.762845
0.930772
1.06301
1.17924
1.50274
1.95994
2.47359
2.5877
2.39112
1.77098
1.43381
1.40073
1.40001
1.40001
0.661775
0.755094
0.90492
0.993584
1.09268
1.36724
1.7042
2.20304
2.53588
2.50013
2.05694
1.5362
1.40669
1.4001
1.40001
0.66208
0.744724
0.866744
0.927087
1.00564
1.25622
1.51756
1.9419
2.39634
2.49299
2.29319
1.72572
1.4292
1.40065
1.40001
0.658904
0.721922
0.813508
0.874738
0.996284
1.18154
1.3469
1.70595
2.17857
2.4532
2.41695
1.99188
1.5127
1.40497
1.40007
0.669025
0.67526
0.763805
0.848702
0.998813
1.12306
1.23399
1.51174
1.92366
2.344
2.41151
2.19195
1.67755
1.42523
1.40058
0.771194
0.676278
0.718741
0.813313
0.968841
1.04865
1.15675
1.41381
1.70193
2.14573
2.38096
2.33135
1.9215
1.48776
1.40353
1.02552
0.726748
0.72602
0.795215
0.912437
0.968529
1.0783
1.32489
1.54476
1.92628
2.29803
2.33022
2.1065
1.62966
1.41973
1.23607
0.890945
0.743526
0.78602
0.867634
0.913182
1.01973
1.23131
1.40526
1.72146
2.13779
2.31439
2.23437
1.83935
1.47186
1.31658
1.10341
0.803211
0.768711
0.806991
0.880322
1.01452
1.15673
1.2887
1.57405
1.95317
2.26295
2.25784
2.0194
1.59133
1.3329
1.27221
1.03862
0.811431
0.80235
0.851789
0.976166
1.06207
1.15912
1.39595
1.6715
2.04985
2.22658
2.16429
1.94199
1.22805
1.05979
0.873426
0.802096
0.794454
0.774475
0.723057
0.686576
0.646397
0.619663
0.607563
0.598118
0.605565
0.645513
0.857447
1.14473
1.2157
1.29706
1.35659
1.34452
0.950132
0.845509
0.740635
0.702116
0.708895
0.680467
0.630286
0.611636
0.5948
0.588055
0.567784
0.571127
0.627324
0.886803
1.15577
1.31311
1.27504
1.29427
1.34564
1.34889
0.723366
0.689215
0.647898
0.63466
0.622111
0.58411
0.552169
0.551781
0.551924
0.541561
0.546637
0.620868
0.906752
1.18431
1.25111
1.32564
1.31877
1.30805
1.33283
1.34782
0.555329
0.55734
0.558667
0.55943
0.545683
0.519977
0.508286
0.507523
0.513049
0.529292
0.642129
0.949514
1.20938
1.24412
1.29119
1.34485
1.34813
1.32274
1.32256
1.33893
0.42973