/*--------------------------------*- C++ -*----------------------------------*\
  =========                 |
  \\      /  F ield         | OpenFOAM: The Open Source CFD Toolbox
   \\    /   O peration     | Website:  https://openfoam.org
    \\  /    A nd           | Version:  7
     \\/     M anipulation  |
\*---------------------------------------------------------------------------*/
FoamFile
{
    version     2.0;
    format      ascii;
    class       volScalarField;
    location    "9.2";
    object      T;
}
// * * * * * * * * * * * * * * * * * * * * * * * * * * * * * * * * * * * * * //

dimensions      [0 0 0 1 0 0 0];

internalField   nonuniform List<scalar> 
3700
(
100.523
100.692
100.78
100.881
100.981
101.093
101.121
101.111
101.066
101.022
101.047
101.139
101.165
101.151
101.128
101.124
101.123
101.117
101.101
101.073
100.167
100.233
100.354
100.4
100.421
100.537
100.598
100.542
100.306
100.249
100.353
100.548
100.614
100.59
100.528
100.53
100.565
100.581
100.546
100.468
100.103
100.121
100.11
100.047
99.9495
99.8797
99.8796
99.8904
99.9129
99.9496
99.9878
100.015
100.036
100.051
100.056
100.051
100.038
100.02
100.01
100.021
100.057
100.089
100.055
99.9825
99.8877
99.8702
99.8671
99.8784
99.9016
99.9378
99.9738
100
100.032
100.062
100.083
100.097
100.105
100.097
100.068
100.049
100.013
100.068
100.035
99.9802
99.9568
99.9606
99.9492
99.9549
99.967
99.9923
99.9759
99.9945
100.018
100.05
100.08
100.105
100.13
100.146
100.146
100.14
100.01
100.073
100.056
100.033
100.031
100.064
100.045
100.054
100.081
100.092
100.073
100.072
100.054
100.057
100.07
100.094
100.128
100.167
100.186
100.213
100.027
100.102
100.08
100.047
100.037
100.089
100.084
100.107
100.149
100.158
100.167
100.163
100.158
100.154
100.139
100.133
100.135
100.166
100.209
100.263
100.085
100.106
100.075
100.011
100.008
100.067
100.087
100.124
100.164
100.191
100.213
100.215
100.233
100.235
100.238
100.239
100.24
100.244
100.258
100.315
100.128
100.063
99.9867
99.9657
100.001
100.054
100.084
100.129
100.158
100.189
100.221
100.236
100.269
100.284
100.298
100.311
100.319
100.33
100.342
100.387
100.111
99.9289
99.9113
99.9603
100.041
100.085
100.13
100.184
100.198
100.22
100.23
100.254
100.288
100.313
100.337
100.361
100.382
100.399
100.42
100.455
100.029
99.8282
99.9013
99.9859
100.06
100.14
100.2
100.25
100.286
100.322
100.337
100.356
100.371
100.382
100.39
100.407
100.435
100.46
100.504
100.497
99.9668
99.7786
99.8875
99.9852
100.03
100.148
100.24
100.283
100.341
100.394
100.414
100.433
100.451
100.464
100.478
100.492
100.51
100.529
100.571
100.569
99.908
99.7245
99.7751
99.9066
99.9849
100.139
100.253
100.298
100.368
100.434
100.466
100.491
100.513
100.53
100.554
100.577
100.6
100.62
100.649
100.652
99.8308
99.6548
99.6855
99.8586
100.035
100.283
100.348
100.414
100.488
100.524
100.544
100.559
100.576
100.597
100.629
100.661
100.688
100.711
100.725
100.735
99.7151
99.5846
99.6612
99.8843
100.258
100.486
100.532
100.581
100.622
100.643
100.651
100.66
100.675
100.697
100.726
100.751
100.77
100.782
100.778
100.773
99.5248
99.5544
99.6788
100.173
100.482
100.591
100.639
100.677
100.707
100.723
100.732
100.748
100.769
100.795
100.816
100.825
100.823
100.815
100.789
100.744
99.3717
99.6717
100.171
100.482
100.641
100.686
100.723
100.762
100.793
100.805
100.816
100.831
100.848
100.856
100.855
100.844
100.792
100.677
100.517
100.279
99.5214
100.095
100.495
100.668
100.759
100.808
100.838
100.865
100.879
100.883
100.882
100.882
100.881
100.858
100.773
100.623
100.357
100.1
100.005
99.9978
100.114
100.526
100.737
100.838
100.884
100.9
100.916
100.926
100.922
100.911
100.894
100.837
100.721
100.467
100.147
100.011
99.9967
99.9985
99.9992
99.9998
100.696
100.836
100.913
100.946
100.955
100.949
100.951
100.932
100.846
100.763
100.575
100.233
100.03
99.9957
99.9977
99.9989
99.9998
100
100
100
100.999
100.996
100.992
100.986
100.975
100.948
100.885
100.468
99.8398
100
100
100
100
100
100
100
100
100
100
100
100.999
100.996
100.991
100.98
100.957
100.849
100.473
100.012
100
100
100
100
100
100
100
100
100
100
100
100
100.993
100.994
100.99
100.969
100.924
100.627
100.03
99.9995
100
100
100
100
100
100
100
100
100
100
100
100
100.986
100.992
100.988
100.949
100.801
100.259
99.9965
100
100
100
100
100
100
100
100
100
100
100
100
100
100.978
100.99
100.987
100.924
100.581
99.9917
100
100
100
100
100
100
100
100
100
100
100
100
100
100
100.972
100.983
100.979
100.833
100.231
100
100
100
100
100
100
100
100
100
100
100
100
100
100
100
100.971
100.977
100.962
100.688
99.9932
100
100
100
100
100
100
100
100
100
100
100
100
100
100
100
100.983
100.976
100.919
100.478
100
100
100
100
100
100
100
100
100
100
100
100
100
100
100
100
101.005
100.977
100.827
100.13
100
100
100
100
100
100
100
100
100
100
100
100
100
100
100
100
101.016
100.944
100.693
99.9964
100
100
100
100
100
100
100
100
100
100
100
100
100
100
100
100
101.024
100.909
100.504
100
100
100
100
100
100
100
100
100
100
100
100
100
100
100
100
100
101.028
100.854
100.311
100
100
100
100
100
100
100
100
100
100
100
100
100
100
100
100
100
101.03
100.795
100.118
100
100
100
100
100
100
100
100
100
100
100
100
100
100
100
100
100
101.023
100.727
100.001
100
100
100
100
100
100
100
100
100
100
100
100
100
100
100
100
100
101.013
100.66
100
100
100
100
100
100
100
100
100
100
100
100
100
100
100
100
100
100
100.992
100.588
100
100
100
100
100
100
100
100
100
100
100
100
100
100
100
100
100
100
100.961
100.445
100
100
100
100
100
100
100
100
100
100
100
100
100
100
100
100
100
100
100.901
100.22
100
100
100
100
100
100
100
100
100
100
100
100
100
100
100
100
100
100
100.853
100.004
100
100
100
100
100
100
100
100
100
100
100
100
100
100
100
100
100
100
100.815
100
100
100
100
100
100
100
100
100
100
100
100
100
100
100
100
100
100
100
100.816
100
100
100
100
100
100
100
100
100
100
100
100
100
100
100
100
100
100
100
100.855
100.004
100
100
100
100
100
100
100
100
100
100
100
100
100
100
100
100
100
100
100.898
100.214
100
100
100
100
100
100
100
100
100
100
100
100
100
100
100
100
100
100
100.959
100.44
100
100
100
100
100
100
100
100
100
100
100
100
100
100
100
100
100
100
100.993
100.591
100
100
100
100
100
100
100
100
100
100
100
100
100
100
100
100
100
100
101.014
100.664
100
100
100
100
100
100
100
100
100
100
100
100
100
100
100
100
100
100
101.025
100.726
100
100
100
100
100
100
100
100
100
100
100
100
100
100
100
100
100
100
101.03
100.794
100.117
100
100
100
100
100
100
100
100
100
100
100
100
100
100
100
100
100
101.027
100.853
100.311
100
100
100
100
100
100
100
100
100
100
100
100
100
100
100
100
100
101.024
100.908
100.501
100
100
100
100
100
100
100
100
100
100
100
100
100
100
100
100
100
101.015
100.943
100.691
99.9964
100
100
100
100
100
100
100
100
100
100
100
100
100
100
100
100
101.005
100.978
100.828
100.135
100
100
100
100
100
100
100
100
100
100
100
100
100
100
100
100
100.984
100.978
100.922
100.479
100
100
100
100
100
100
100
100
100
100
100
100
100
100
100
100
100.971
100.978
100.963
100.691
99.9967
100
100
100
100
100
100
100
100
100
100
100
100
100
100
100
100.972
100.983
100.978
100.829
100.223
100
100
100
100
100
100
100
100
100
100
100
100
100
100
100
100.977
100.989
100.986
100.926
100.575
99.9918
100
100
100
100
100
100
100
100
100
100
100
100
100
100
100.985
100.992
100.988
100.949
100.805
100.27
99.9963
100
100
100
100
100
100
100
100
100
100
100
100
100
100.992
100.994
100.989
100.967
100.925
100.633
100.034
99.9995
100
100
100
100
100
100
100
100
100
100
100
100
100.999
100.997
100.991
100.98
100.959
100.849
100.469
100.01
100
100
100
100
100
100
100
100
100
100
100
100
100.999
100.997
100.993
100.987
100.977
100.948
100.882
100.461
99.8437
100
100
100
100
100
100
100
100
100
100
100
100.696
100.836
100.914
100.948
100.956
100.949
100.951
100.931
100.847
100.765
100.577
100.235
100.03
99.9958
99.9977
99.9989
99.9998
100
100
100
100.115
100.527
100.736
100.839
100.884
100.9
100.915
100.925
100.921
100.911
100.895
100.838
100.721
100.467
100.147
100.01
99.9967
99.9985
99.9992
99.9998
99.5266
100.104
100.498
100.668
100.758
100.807
100.837
100.863
100.878
100.884
100.882
100.882
100.881
100.857
100.772
100.623
100.358
100.1
100.005
99.9978
99.3634
99.6979
100.197
100.49
100.643
100.686
100.722
100.762
100.793
100.806
100.816
100.831
100.848
100.855
100.855
100.844
100.792
100.678
100.517
100.279
99.5041
99.5399
99.7555
100.193
100.48
100.593
100.64
100.677
100.708
100.725
100.734
100.749
100.769
100.795
100.816
100.825
100.823
100.815
100.789
100.744
99.695
99.5382
99.6417
99.9066
100.247
100.48
100.532
100.581
100.622
100.644
100.651
100.66
100.674
100.695
100.725
100.751
100.771
100.782
100.778
100.773
99.8079
99.6
99.6744
99.8762
100.034
100.276
100.346
100.413
100.485
100.522
100.543
100.558
100.575
100.596
100.629
100.662
100.689
100.711
100.725
100.735
99.8857
99.7009
99.7711
99.9376
100.014
100.15
100.26
100.302
100.371
100.437
100.467
100.491
100.513
100.53
100.554
100.578
100.6
100.62
100.648
100.652
99.9452
99.7787
99.8914
100
100.055
100.157
100.242
100.286
100.343
100.395
100.414
100.433
100.451
100.464
100.478
100.492
100.51
100.529
100.571
100.569
100.002
99.8226
99.8919
99.9862
100.065
100.141
100.197
100.25
100.285
100.322
100.337
100.355
100.369
100.38
100.39
100.408
100.437
100.461
100.504
100.497
100.091
99.8987
99.8925
99.9486
100.036
100.079
100.125
100.183
100.199
100.222
100.233
100.256
100.289
100.314
100.339
100.363
100.383
100.399
100.419
100.454
100.143
100.026
99.9493
99.954
99.9964
100.056
100.088
100.134
100.164
100.196
100.224
100.238
100.271
100.286
100.3
100.312
100.319
100.328
100.34
100.385
100.11
100.091
100.049
100.003
100.01
100.075
100.092
100.128
100.168
100.193
100.213
100.215
100.234
100.236
100.237
100.237
100.236
100.24
100.254
100.314
100.056
100.091
100.062
100.037
100.045
100.097
100.085
100.107
100.149
100.156
100.164
100.161
100.156
100.151
100.135
100.129
100.133
100.167
100.209
100.263
100.033
100.077
100.047
100.025
100.035
100.065
100.042
100.05
100.076
100.089
100.067
100.067
100.052
100.057
100.071
100.097
100.13
100.168
100.187
100.213
100.032
100.073
100.03
99.9732
99.9502
99.9546
99.9406
99.9471
99.961
99.987
99.9773
99.9978
100.022
100.053
100.083
100.107
100.131
100.146
100.147
100.14
100.07
100.096
100.057
99.9835
99.8925
99.8722
99.868
99.8792
99.904
99.9413
99.9779
100.005
100.036
100.066
100.085
100.098
100.104
100.097
100.067
100.048
100.114
100.125
100.114
100.054
99.9591
99.8837
99.8815
99.8938
99.9201
99.9564
99.9934
100.018
100.038
100.053
100.057
100.049
100.036
100.018
100.01
100.021
100.192
100.271
100.352
100.388
100.51
100.58
100.542
100.553
100.656
100.671
100.609
100.474
100.474
100.547
100.636
100.639
100.573
100.435
100.431
100.406
100.554
100.738
100.794
100.871
101.018
101.109
101.112
101.107
101.131
101.139
101.125
101.091
101.099
101.142
101.156
101.151
101.126
101.08
101.054
101.043
101.05
101.025
101.013
100.998
100.963
100.934
100.917
100.906
100.89
100.872
100.864
100.859
100.858
100.854
100.839
100.824
100.82
100.819
100.818
100.806
100.576
100.631
100.718
100.764
100.777
100.781
100.786
100.795
100.805
100.812
100.813
100.81
100.804
100.802
100.797
100.797
100.796
100.793
100.789
100.782
100.029
100.052
100.187
100.323
100.436
100.504
100.556
100.598
100.64
100.679
100.689
100.687
100.686
100.69
100.7
100.714
100.719
100.718
100.715
100.717
100.075
100.089
100.096
100.094
100.121
100.195
100.332
100.417
100.488
100.551
100.568
100.562
100.561
100.57
100.59
100.61
100.618
100.618
100.618
100.627
100.12
100.134
100.145
100.145
100.132
100.122
100.136
100.207
100.344
100.458
100.485
100.486
100.484
100.494
100.516
100.534
100.537
100.536
100.536
100.547
100.181
100.181
100.183
100.179
100.168
100.165
100.159
100.156
100.181
100.295
100.401
100.449
100.45
100.459
100.477
100.488
100.489
100.486
100.486
100.494
100.241
100.227
100.224
100.221
100.216
100.209
100.2
100.186
100.177
100.185
100.247
100.364
100.432
100.442
100.451
100.462
100.462
100.457
100.458
100.464
100.303
100.281
100.26
100.256
100.253
100.243
100.227
100.211
100.197
100.182
100.184
100.218
100.335
100.407
100.423
100.441
100.439
100.437
100.443
100.446
100.368
100.338
100.303
100.284
100.284
100.274
100.259
100.241
100.219
100.205
100.185
100.181
100.204
100.303
100.384
100.421
100.415
100.421
100.432
100.431
100.438
100.401
100.351
100.323
100.311
100.3
100.283
100.263
100.232
100.213
100.199
100.184
100.182
100.192
100.274
100.36
100.383
100.408
100.419
100.413
100.534
100.465
100.4
100.338
100.315
100.322
100.316
100.301
100.273
100.226
100.206
100.2
100.193
100.183
100.177
100.218
100.305
100.363
100.376
100.379
100.616
100.544
100.493
100.427
100.366
100.347
100.333
100.317
100.29
100.259
100.236
100.224
100.21
100.189
100.165
100.152
100.166
100.223
100.281
100.322
100.608
100.585
100.54
100.486
100.43
100.375
100.332
100.312
100.29
100.272
100.26
100.245
100.226
100.199
100.174
100.149
100.14
100.134
100.147
100.223
100.488
100.547
100.54
100.516
100.476
100.424
100.373
100.337
100.314
100.288
100.262
100.237
100.213
100.189
100.172
100.151
100.133
100.117
100.099
100.106
100.25
100.378
100.446
100.483
100.475
100.448
100.409
100.361
100.328
100.294
100.258
100.231
100.203
100.191
100.184
100.167
100.14
100.114
100.089
100.072
100.043
100.146
100.254
100.337
100.389
100.414
100.405
100.379
100.342
100.307
100.271
100.243
100.218
100.194
100.173
100.149
100.121
100.098
100.083
100.062
100.002
100.015
100.066
100.156
100.234
100.29
100.329
100.348
100.339
100.317
100.283
100.247
100.217
100.184
100.156
100.136
100.116
100.097
100.088
100.067
100
100
100.003
100.025
100.078
100.149
100.208
100.25
100.279
100.291
100.282
100.259
100.229
100.198
100.166
100.146
100.128
100.106
100.085
100.055
100
100
100
100.001
100.006
100.03
100.081
100.14
100.188
100.217
100.241
100.244
100.235
100.217
100.187
100.156
100.13
100.104
100.079
100.047
100
100
100
100
100
100.001
100.008
100.032
100.078
100.128
100.17
100.193
100.21
100.209
100.202
100.182
100.155
100.126
100.101
100.069
100
100
100
100
100
100
100
100.001
100.008
100.032
100.073
100.117
100.154
100.175
100.187
100.184
100.178
100.161
100.137
100.097
100
100
100
100
100
100
100
100
100
100.002
100.007
100.029
100.065
100.107
100.139
100.159
100.168
100.167
100.162
100.139
100
100
100
100
100
100
100
100
100
100
100
100.001
100.007
100.024
100.057
100.097
100.127
100.145
100.154
100.151
100
100
100
100
100
100
100
100
100
100
100
100
100
100.001
100.006
100.019
100.048
100.085
100.113
100.137
100
100
100
100
100
100
100
100
100
100
100
100
100
100
100
100.001
100.004
100.016
100.041
100.105
100.599
100.654
100.61
100.415
100.142
100.017
100.001
100
100
100
100
100
100
100
100
100.673
100.664
100.517
100.217
100.022
100
100
100
100
100
100
100
100
100
100
100.704
100.636
100.373
100.074
100.002
100
100
100
100
100
100
100
100
100
100
100.72
100.519
100.167
100.009
100
100
100
100
100
100
100
100
100
100
100
100.652
100.286
100.025
100
100
100
100
100
100
100
100
100
100
100
100
100.394
100.038
100
100
100
100
100
100
100
100
100
100
100
100
100
100.043
100
100
100
100
100
100
100
100
100
100
100
100
100
100
99.9995
100
100
100
100
100
100
100
100
100
100
100
100
100
100
100
100
100
100
100
100
100
100
100
100
100
100
100
100
100
100
100
100
100
100
100
100
100
100
100
100
100
100
100
100
100
100
100
100
100
100
100
100
100
100
100
100
100
100
100
100
100
100
100
100
100
100
100
100
100
100
100
100
100
100
100
100
100
100
100
100
100
100
100
100
100
100
100
100
100
100
100
100
100
100
100
100
100
100
100
100
100
100
100
100
100
100
100
100
100
100
100
100
100
100
100
100
100
100
100
100
100
100
100
100
100
100
100
100
100
100
100
100
100
100
100
100
100
100
100
100
100
100
100
100
100
100
100
100
100
100
100
100
100
100
100
100
100
100
100
100
100
100
100
100
100
100
100
100
100
100
100
100
100
100
100
100
100
100
100
100
100
100
100
100
100
100
100
100
100
100
100
100
100
100
100
100
100
100
100
100
100
100
100
100
100
100
100
100
100
100
100
100
100
100
100
100
100
100
100
100
100
100
100
100
100
100
100
100
100
100
100
100
100
100
100
100
100
100
100
100
100
100
100
100
100
100
100
100
100
100
100
100
100
100
100
100
100
100
100
100
100
100
100
100
100
100
100
100
100
100
100
100
100
100
100
100
100
100
100
100
100
100
100
100
100
100
100
100
100
100
100
100
100
100
100
100
100
100
100
100
100
100
100
100
100
100
100
100
100
100
100
100
100
100
100
100
100
100
100
100
100
100
100
100
100
100
100
100
100
100
100
100
100
100
100
100
100
100
100
100
100
100
100
100
100
100
100
100
100
100
100
100
100
100
100
100
100
100
100
100
100
100
100
100
100
100
100
100
100
100
100
100
100
100
100
100
100
100
100
100
100
100
100
100
100
100
100
100
100
100
100
100
100
100
100
100
100
100
100
100
100
100
100
100
100
100
100
100
100
100
100
100
100
100
100
100
100
100
100
100
100
100
100
100
100
100
100
100
100
100
100
100
100
100
100
100
100
100
100
100
100
100
100
100
100
100
100
100
100
100
100
100
100
100
100
100
100
100
100
100
100
100
100
100
100
100
100
100
100
100
100
100
100
100
100
100
100
100
100
100
100
100
100
100
100
100
100
100
100
100
100
100
100
100
100
100
100
100
100
100
100
100
100
100
100
100
100
100
100
100
100
100
100
100
100
100
100
100
100
100
100
100
100
100
100
100
100
100
100
100
100
100
100
100
100
100
100
100
100
100
100
100
100
100
100
100
100
100
100
100
100
100
100
100
100
100
100
100
100
100
100
100
100
100
100
100
100
100
100
100
100
100
100
100
100
100
100
100
100
100
100
100
100
100
100
100
100
100
100
100
100
100
100
100
100
100
100
100
100
100
100
100
100
100
100
100
100
100
100
100
100
100
100
100
100
100
100
100
100
100
100
100
100
100
100
100
100
100
100
100
100
100
100
100
100
100
100
100
100
100
100
100
100
100
100
100
100
100
100
100
100
100
100
100
100
100
100
100
100
100
100
100
100
100
100
100
100
100
100
100
100
100
100
100
100
100
100
100
100
100
100
100
100
100
100
100
100
100
100
100
100
100
100
100
100
100
100
100
100
100
100
100
100
100
100
100
100
100
100
100
100
100
100
100
100
100
100
100
100
100
100
100
100
100
100
100
100
100
100
100
100
100
100
100
100
100
100
100
100
100
100
100
100
100
100
100
100
100
100
100
100
100
100
100
100
100
100
100
100
100
100
100
100
100
100
100
100
100
100
100
100
100
100
100
100
100
100
100
100
100
100
100
100
100
100
100
100
100
100
100
100
100
100
100
100
100
100
100
100
100
100
100
100
100
100
100
100
100
100
100
100
100
100
100
100
100
100
100
100
100
100
100
100
100
100
100
100
100
100
100
100
100
100
100
100
100
100
100
100
100
100
100
100
100
100
100
100
100
100
100
100
100
100
100
100
100
100
100
100
100
100
100
100
100
100
100
100
100
100
100
100
100
100
100
99.9995
100
100
100
100
100
100
100
100
100
100
100
100
100
100
100.043
100
100
100
100
100
100
100
100
100
100
100
100
100
100
100.394
100.038
100
100
100
100
100
100
100
100
100
100
100
100
100
100.652
100.286
100.025
100
100
100
100
100
100
100
100
100
100
100
100
100.72
100.519
100.167
100.009
100
100
100
100
100
100
100
100
100
100
100
100.704
100.636
100.373
100.074
100.002
100
100
100
100
100
100
100
100
100
100
100.673
100.664
100.517
100.217
100.022
100
100
100
100
100
100
100
100
100
100
100.599
100.654
100.61
100.415
100.142
100.017
100.001
100
100
100
100
100
100
100
100
100.534
100.615
100.608
100.489
100.25
100.043
100.002
100
100
100
100
100
100
100
100
100.466
100.544
100.584
100.547
100.378
100.146
100.015
100
100
100
100
100
100
100
100
100.4
100.493
100.541
100.54
100.446
100.254
100.066
100.003
100
100
100
100
100
100
100
100.336
100.423
100.486
100.517
100.484
100.337
100.156
100.025
100.001
100
100
100
100
100
100
100.319
100.368
100.426
100.476
100.475
100.388
100.233
100.078
100.006
100
100
100
100
100
100
100.326
100.352
100.375
100.421
100.448
100.414
100.29
100.149
100.03
100.001
100
100
100
100
100
100.318
100.335
100.338
100.374
100.408
100.405
100.329
100.208
100.081
100.008
100
100
100
100
100
100.3
100.314
100.313
100.34
100.363
100.379
100.349
100.25
100.14
100.032
100.001
100
100
100
100
100.274
100.284
100.29
100.316
100.329
100.344
100.339
100.279
100.187
100.078
100.008
100
100
100
100
100.234
100.253
100.275
100.29
100.292
100.308
100.317
100.291
100.217
100.128
100.032
100.002
100
100
100
100.213
100.233
100.262
100.264
100.255
100.271
100.283
100.282
100.241
100.17
100.073
100.008
100
100
100
100.204
100.222
100.245
100.237
100.228
100.243
100.248
100.259
100.244
100.193
100.117
100.029
100.001
100
100
100.197
100.21
100.225
100.211
100.202
100.217
100.217
100.229
100.236
100.211
100.154
100.065
100.007
100
100
100.186
100.19
100.199
100.19
100.191
100.194
100.184
100.198
100.217
100.21
100.175
100.107
100.025
100.001
100
100.178
100.165
100.173
100.174
100.185
100.173
100.157
100.167
100.187
100.202
100.186
100.139
100.057
100.006
100
100.216
100.151
100.148
100.154
100.168
100.148
100.137
100.147
100.156
100.182
100.184
100.159
100.097
100.019
100.001
100.303
100.166
100.141
100.135
100.142
100.121
100.114
100.128
100.13
100.155
100.177
100.168
100.127
100.048
100.004
100.361
100.221
100.133
100.119
100.117
100.099
100.095
100.105
100.104
100.126
100.161
100.167
100.145
100.085
100.016
100.376
100.278
100.145
100.101
100.092
100.082
100.087
100.084
100.079
100.101
100.137
100.162
100.154
100.113
100.041
100.38
100.32
100.219
100.106
100.073
100.061
100.066
100.055
100.047
100.069
100.097
100.139
100.152
100.137
100.105
100.438
100.401
100.349
100.32
100.311
100.302
100.284
100.265
100.236
100.21
100.196
100.187
100.185
100.195
100.275
100.359
100.381
100.406
100.418
100.414
100.367
100.335
100.301
100.285
100.285
100.274
100.256
100.237
100.216
100.201
100.183
100.182
100.204
100.305
100.379
100.42
100.414
100.419
100.43
100.431
100.3
100.28
100.26
100.255
100.251
100.238
100.222
100.209
100.198
100.182
100.184
100.219
100.334
100.407
100.421
100.441
100.44
100.437
100.442
100.445
100.24
100.228
100.221
100.219
100.214
100.206
100.196
100.186
100.183
100.186
100.245
100.366
100.434
100.438
100.449
100.463
100.464
100.458
100.458
100.463
100.181
100.176
100.187
100.185
100.171
100.161
100.154
100.155
100.19
100.291
100.396
100.451
100.454
100.459
100.477
100.489
100.49
100.487
100.485
100.492
100.118
100.135
100.136
100.139
100.121
100.118
100.139
100.218
100.359
100.45
100.475
100.484
100.489
100.503
100.522
100.534
100.537
100.536
100.536
100.544
100.072
100.095
100.103
100.096
100.122
100.201
100.341
100.429
100.497
100.542
100.554
100.553
100.563
100.583
100.601
100.61
100.614
100.616
100.617
100.624
100.03
100.048
100.154
100.282
100.43
100.513
100.567
100.615
100.656
100.671
100.669
100.671
100.683
100.701
100.71
100.712
100.712
100.711
100.711
100.713
100.59
100.643
100.676
100.706
100.755
100.788
100.802
100.816
100.817
100.809
100.798
100.798
100.804
100.807
100.802
100.793
100.787
100.785
100.786
100.781
101.047
101.034
101
100.974
100.951
100.934
100.922
100.917
100.9
100.878
100.864
100.86
100.859
100.853
100.837
100.823
100.818
100.817
100.816
100.807
)
;

boundaryField
{
    inlet
    {
        type            fixedValue;
        value           uniform 100;
    }
    outlet
    {
        type            inletOutlet;
        inletValue      uniform 100;
        value           nonuniform List<scalar> 
50
(
100.379
100.322
100.223
100.106
100.072
100.062
100.067
100.055
100.047
100.069
100.097
100.139
100.152
100.137
100.105
100.806
100.782
100.717
100.627
100.547
100.494
100.464
100.446
100.431
100.413
100.414
100.431
100.445
100.463
100.492
100.544
100.624
100.713
100.781
100.807
100.38
100.32
100.219
100.106
100.073
100.061
100.066
100.055
100.047
100.069
100.097
100.139
100.152
100.137
100.105
)
;
    }
    airfoil
    {
        type            zeroGradient;
    }
    top
    {
        type            symmetryPlane;
    }
    bottom
    {
        type            symmetryPlane;
    }
    defaultFaces
    {
        type            empty;
    }
}


// ************************************************************************* //
