/*--------------------------------*- C++ -*----------------------------------*\
  =========                 |
  \\      /  F ield         | OpenFOAM: The Open Source CFD Toolbox
   \\    /   O peration     | Website:  https://openfoam.org
    \\  /    A nd           | Version:  7
     \\/     M anipulation  |
\*---------------------------------------------------------------------------*/
FoamFile
{
    version     2.0;
    format      ascii;
    class       volScalarField;
    location    "3.8";
    object      rho;
}
// * * * * * * * * * * * * * * * * * * * * * * * * * * * * * * * * * * * * * //

dimensions      [1 -3 0 0 0 0 0];

internalField   nonuniform List<scalar> 
3700
(
0.236692
0.37175
0.448161
0.526753
0.549503
0.553278
0.556665
0.541989
0.546362
0.56589
0.587459
0.618124
0.636178
0.665325
0.68115
0.695521
0.708249
0.706638
0.696586
0.689166
0.148313
0.157514
0.173727
0.173327
0.174664
0.176089
0.179135
0.161429
0.160836
0.186093
0.23167
0.260914
0.265667
0.268651
0.275046
0.278032
0.275671
0.264057
0.265593
0.25334
0.12778
0.122942
0.113101
0.0967448
0.074179
0.0663751
0.0701284
0.0794405
0.0942719
0.107744
0.12865
0.128739
0.130019
0.130151
0.130442
0.132587
0.138736
0.152626
0.170437
0.193408
0.116227
0.115958
0.108381
0.0873144
0.0622035
0.0645439
0.0675852
0.077254
0.0945109
0.111941
0.136483
0.157227
0.178394
0.190659
0.193519
0.197163
0.192545
0.19265
0.2041
0.244344
0.104615
0.1063
0.0991831
0.0697427
0.0578438
0.0640947
0.0704283
0.0791236
0.0933997
0.110265
0.133882
0.158573
0.192748
0.223156
0.242927
0.263975
0.260453
0.259903
0.258388
0.281574
0.0912324
0.0850277
0.0759598
0.0627112
0.066391
0.0815904
0.0950013
0.104813
0.115227
0.133362
0.141462
0.156976
0.191758
0.236684
0.274867
0.310711
0.342223
0.370857
0.382489
0.407769
0.0739166
0.0703731
0.0685261
0.0676655
0.0755143
0.0999729
0.125069
0.145671
0.16928
0.198917
0.192156
0.201647
0.213438
0.24589
0.289996
0.343
0.401036
0.459943
0.508195
0.586478
0.0589342
0.0659856
0.0680398
0.0692882
0.0781275
0.105867
0.135668
0.167027
0.216439
0.25721
0.283585
0.308039
0.321945
0.348639
0.372871
0.412023
0.467331
0.555717
0.635246
0.78156
0.0492523
0.0646143
0.0716048
0.0714479
0.0766991
0.104932
0.132871
0.167656
0.233169
0.296467
0.359478
0.407062
0.46506
0.51814
0.560933
0.605299
0.645549
0.715079
0.807031
1.02057
0.0438492
0.0637076
0.0754704
0.0771292
0.0831459
0.117511
0.135617
0.164263
0.228369
0.313675
0.406515
0.484739
0.590007
0.671561
0.758432
0.844598
0.927566
1.00301
1.121
1.32304
0.0428216
0.0596131
0.0706515
0.0835969
0.113603
0.164412
0.188877
0.234026
0.296069
0.373177
0.478622
0.590275
0.723438
0.837841
0.968596
1.11541
1.26293
1.38952
1.60871
1.55909
0.0520257
0.051586
0.0678583
0.111308
0.164751
0.229007
0.289401
0.392677
0.517009
0.649688
0.772519
0.894937
1.02057
1.14018
1.27184
1.45749
1.6816
1.88378
2.17561
2.10191
0.0606166
0.0463116
0.075892
0.136494
0.199953
0.267295
0.37062
0.534488
0.729079
0.949777
1.13011
1.31183
1.48561
1.65121
1.82872
2.0471
2.29669
2.54424
2.92353
2.91606
0.0636464
0.0513657
0.0785441
0.128488
0.197287
0.269142
0.426082
0.651453
0.939444
1.27265
1.54697
1.81258
2.06994
2.3219
2.62752
2.95037
3.25787
3.58605
3.89941
4.17253
0.0581056
0.0521636
0.0580999
0.0953825
0.170416
0.340185
0.678014
1.06101
1.52688
1.96349
2.32291
2.64451
2.96774
3.30981
3.75008
4.15021
4.52336
4.86248
5.08436
5.26292
0.0347146
0.0390628
0.0501877
0.114564
0.362383
0.93787
1.53441
2.1309
2.76537
3.28792
3.66486
4.01758
4.38457
4.79717
5.25635
5.53266
5.68272
5.73169
5.60301
5.43026
0.0183991
0.0368081
0.124952
0.52079
1.2818
2.11176
2.84281
3.62853
4.43193
4.94818
5.24172
5.55025
5.83998
6.08569
6.22947
6.1277
5.82978
5.09022
3.89292
2.63435
0.0262358
0.168926
0.713212
1.73062
3.0088
4.05474
4.92364
5.83449
6.58474
6.68272
6.55798
6.56701
6.51192
6.28699
5.59335
4.2784
2.93043
1.86987
1.42672
1.39014
0.43377
1.26557
2.84027
4.46784
5.85301
6.76365
7.53664
8.16226
7.95263
7.32012
6.72493
5.97744
4.70593
3.23197
1.98966
1.44062
1.38504
1.39287
1.39625
1.39922
3.24216
5.05587
6.80618
7.91411
8.70915
8.98788
9.0891
8.65152
6.29135
4.45215
3.30198
2.19008
1.51572
1.38289
1.3902
1.39484
1.39882
1.39997
1.40003
1.40002
9.68718
9.60919
9.51311
9.55058
9.76405
9.45365
8.35076
3.25823
0.891562
1.40001
1.40001
1.40001
1.40001
1.40001
1.40001
1.40001
1.40001
1.40001
1.40001
1.40001
9.57881
9.52174
9.33399
9.18698
9.50733
8.13719
3.61858
1.42044
1.40001
1.40001
1.40001
1.40001
1.40001
1.40001
1.40001
1.40001
1.40001
1.40001
1.40001
1.40001
9.41732
9.49476
9.36547
9.07594
8.77668
4.72649
1.46971
1.3989
1.40001
1.40001
1.40001
1.40001
1.40001
1.40001
1.40001
1.40001
1.40001
1.40001
1.40001
1.40001
9.25675
9.49873
9.5199
9.03395
6.62046
2.0746
1.39063
1.40015
1.4
1.40001
1.40001
1.40001
1.40001
1.40001
1.40001
1.40001
1.40001
1.40001
1.40001
1.40001
9.04152
9.47637
9.53182
8.74391
3.75774
1.36485
1.40051
1.4
1.40001
1.40001
1.40001
1.40001
1.40001
1.40001
1.40001
1.40001
1.40001
1.40001
1.40001
1.40001
8.867
9.33822
9.38851
6.74068
1.91944
1.40001
1.40001
1.40001
1.40001
1.40001
1.40001
1.40001
1.40001
1.40001
1.40001
1.40001
1.40001
1.40001
1.40001
1.40001
8.80617
9.22304
9.13097
4.85985
1.36454
1.40001
1.40001
1.40001
1.40001
1.40001
1.40001
1.40001
1.40001
1.40001
1.40001
1.40001
1.40001
1.40001
1.40001
1.40001
8.92207
9.20728
8.44019
2.90202
1.4
1.40001
1.40001
1.40001
1.40001
1.40001
1.40001
1.40001
1.40001
1.40001
1.40001
1.40001
1.40001
1.40001
1.40001
1.40001
9.61717
9.31861
6.89237
1.65949
1.40001
1.40001
1.40001
1.40001
1.40001
1.40001
1.40001
1.40001
1.40001
1.40001
1.40001
1.40001
1.40001
1.40001
1.40001
1.40001
9.98838
8.85369
4.93785
1.38235
1.40001
1.40001
1.40001
1.40001
1.40001
1.40001
1.40001
1.40001
1.40001
1.40001
1.40001
1.40001
1.40001
1.40001
1.40001
1.40001
10.2231
8.38264
3.21029
1.40001
1.40001
1.40001
1.40001
1.40001
1.40001
1.40001
1.40001
1.40001
1.40001
1.40001
1.40001
1.40001
1.40001
1.40001
1.40001
1.40001
10.3485
7.47194
2.25387
1.40001
1.40001
1.40001
1.40001
1.40001
1.40001
1.40001
1.40001
1.40001
1.40001
1.40001
1.40001
1.40001
1.40001
1.40001
1.40001
1.40001
10.4989
6.58281
1.67196
1.40001
1.40001
1.40001
1.40001
1.40001
1.40001
1.40001
1.40001
1.40001
1.40001
1.40001
1.40001
1.40001
1.40001
1.40001
1.40001
1.40001
10.4303
5.55048
1.40176
1.40001
1.40001
1.40001
1.40001
1.40001
1.40001
1.40001
1.40001
1.40001
1.40001
1.40001
1.40001
1.40001
1.40001
1.40001
1.40001
1.40001
9.90531
4.42038
1.40001
1.40001
1.40001
1.40001
1.40001
1.40001
1.40001
1.40001
1.40001
1.40001
1.40001
1.40001
1.40001
1.40001
1.40001
1.40001
1.40001
1.40001
9.62268
3.50412
1.40001
1.40001
1.40001
1.40001
1.40001
1.40001
1.40001
1.40001
1.40001
1.40001
1.40001
1.40001
1.40001
1.40001
1.40001
1.40001
1.40001
1.40001
9.33362
2.57178
1.40001
1.40001
1.40001
1.40001
1.40001
1.40001
1.40001
1.40001
1.40001
1.40001
1.40001
1.40001
1.40001
1.40001
1.40001
1.40001
1.40001
1.40001
8.68385
1.8478
1.40001
1.40001
1.40001
1.40001
1.40001
1.40001
1.40001
1.40001
1.40001
1.40001
1.40001
1.40001
1.40001
1.40001
1.40001
1.40001
1.40001
1.40001
7.93775
1.40603
1.40001
1.40001
1.40001
1.40001
1.40001
1.40001
1.40001
1.40001
1.40001
1.40001
1.40001
1.40001
1.40001
1.40001
1.40001
1.40001
1.40001
1.40001
6.48191
1.40026
1.40001
1.40001
1.40001
1.40001
1.40001
1.40001
1.40001
1.40001
1.40001
1.40001
1.40001
1.40001
1.40001
1.40001
1.40001
1.40001
1.40001
1.40001
6.47311
1.4002
1.40001
1.40001
1.40001
1.40001
1.40001
1.40001
1.40001
1.40001
1.40001
1.40001
1.40001
1.40001
1.40001
1.40001
1.40001
1.40001
1.40001
1.40001
7.94304
1.40642
1.40001
1.40001
1.40001
1.40001
1.40001
1.40001
1.40001
1.40001
1.40001
1.40001
1.40001
1.40001
1.40001
1.40001
1.40001
1.40001
1.40001
1.40001
8.68696
1.85809
1.40001
1.40001
1.40001
1.40001
1.40001
1.40001
1.40001
1.40001
1.40001
1.40001
1.40001
1.40001
1.40001
1.40001
1.40001
1.40001
1.40001
1.40001
9.32111
2.58429
1.40001
1.40001
1.40001
1.40001
1.40001
1.40001
1.40001
1.40001
1.40001
1.40001
1.40001
1.40001
1.40001
1.40001
1.40001
1.40001
1.40001
1.40001
9.61543
3.50544
1.40001
1.40001
1.40001
1.40001
1.40001
1.40001
1.40001
1.40001
1.40001
1.40001
1.40001
1.40001
1.40001
1.40001
1.40001
1.40001
1.40001
1.40001
9.88769
4.41866
1.40001
1.40001
1.40001
1.40001
1.40001
1.40001
1.40001
1.40001
1.40001
1.40001
1.40001
1.40001
1.40001
1.40001
1.40001
1.40001
1.40001
1.40001
10.4103
5.54574
1.40162
1.40001
1.40001
1.40001
1.40001
1.40001
1.40001
1.40001
1.40001
1.40001
1.40001
1.40001
1.40001
1.40001
1.40001
1.40001
1.40001
1.40001
10.5
6.59818
1.67416
1.40001
1.40001
1.40001
1.40001
1.40001
1.40001
1.40001
1.40001
1.40001
1.40001
1.40001
1.40001
1.40001
1.40001
1.40001
1.40001
1.40001
10.3524
7.47107
2.26558
1.40001
1.40001
1.40001
1.40001
1.40001
1.40001
1.40001
1.40001
1.40001
1.40001
1.40001
1.40001
1.40001
1.40001
1.40001
1.40001
1.40001
10.2215
8.37714
3.20503
1.40001
1.40001
1.40001
1.40001
1.40001
1.40001
1.40001
1.40001
1.40001
1.40001
1.40001
1.40001
1.40001
1.40001
1.40001
1.40001
1.40001
9.99058
8.8492
4.9206
1.38238
1.40001
1.40001
1.40001
1.40001
1.40001
1.40001
1.40001
1.40001
1.40001
1.40001
1.40001
1.40001
1.40001
1.40001
1.40001
1.40001
9.63156
9.32109
6.88725
1.66248
1.40001
1.40001
1.40001
1.40001
1.40001
1.40001
1.40001
1.40001
1.40001
1.40001
1.40001
1.40001
1.40001
1.40001
1.40001
1.40001
8.92431
9.21369
8.44548
2.91681
1.4
1.40001
1.40001
1.40001
1.40001
1.40001
1.40001
1.40001
1.40001
1.40001
1.40001
1.40001
1.40001
1.40001
1.40001
1.40001
8.80753
9.22948
9.14534
4.89253
1.36419
1.40001
1.40001
1.40001
1.40001
1.40001
1.40001
1.40001
1.40001
1.40001
1.40001
1.40001
1.40001
1.40001
1.40001
1.40001
8.86881
9.32876
9.36363
6.73246
1.92942
1.40001
1.40001
1.40001
1.40001
1.40001
1.40001
1.40001
1.40001
1.40001
1.40001
1.40001
1.40001
1.40001
1.40001
1.40001
9.04452
9.47248
9.5266
8.72758
3.73702
1.36517
1.40051
1.4
1.40001
1.40001
1.40001
1.40001
1.40001
1.40001
1.40001
1.40001
1.40001
1.40001
1.40001
1.40001
9.26356
9.50218
9.52318
9.06394
6.59963
2.07193
1.39046
1.40015
1.4
1.40001
1.40001
1.40001
1.40001
1.40001
1.40001
1.40001
1.40001
1.40001
1.40001
1.40001
9.42426
9.49948
9.38187
9.08584
8.76769
4.73417
1.4711
1.39885
1.40001
1.40001
1.40001
1.40001
1.40001
1.40001
1.40001
1.40001
1.40001
1.40001
1.40001
1.40001
9.57409
9.51761
9.32692
9.19528
9.51309
8.14085
3.62863
1.42178
1.40001
1.40001
1.40001
1.40001
1.40001
1.40001
1.40001
1.40001
1.40001
1.40001
1.40001
1.40001
9.68176
9.6004
9.49921
9.54737
9.7716
9.44736
8.35162
3.25724
0.893196
1.40001
1.40001
1.40001
1.40001
1.40001
1.40001
1.40001
1.40001
1.40001
1.40001
1.40001
3.24099
5.07071
6.82524
7.90889
8.69872
8.98323
9.08732
8.64709
6.28804
4.45135
3.30232
2.1908
1.51615
1.38286
1.39022
1.39485
1.39882
1.39997
1.40003
1.40002
0.422777
1.19895
2.77967
4.47171
5.87538
6.77114
7.53541
8.15773
7.94901
7.319
6.72471
5.9773
4.70587
3.23278
1.99055
1.44085
1.38505
1.39287
1.39625
1.39922
0.0456714
0.231769
0.745707
1.70604
2.9968
4.0603
4.92302
5.82765
6.58376
6.68231
6.55585
6.5632
6.5084
6.28411
5.59178
4.27885
2.93135
1.87014
1.42669
1.39015
0.0121903
0.0461218
0.116249
0.525463
1.28639
2.10747
2.83922
3.62357
4.42485
4.94052
5.23551
5.54534
5.83482
6.08041
6.23028
6.12975
5.83286
5.09345
3.89494
2.63425
0.0185645
0.0387847
0.0771859
0.141315
0.372166
0.950405
1.54348
2.13704
2.77012
3.29284
3.66786
4.01889
4.3846
4.79593
5.25755
5.53761
5.68911
5.73447
5.60452
5.42973
0.0389159
0.0461485
0.0795923
0.0966892
0.162834
0.339893
0.679648
1.06748
1.53875
1.97426
2.33087
2.64795
2.96744
3.30774
3.74869
4.15073
4.52597
4.86384
5.08328
5.26155
0.0591164
0.0563351
0.0825556
0.116648
0.191462
0.253912
0.41647
0.64111
0.929995
1.26479
1.54155
1.8084
2.06668
2.31902
2.62702
2.95121
3.25977
3.58788
3.90016
4.17233
0.0610654
0.0525687
0.0780198
0.13157
0.199169
0.257731
0.366406
0.528917
0.723036
0.946466
1.12782
1.31077
1.48559
1.65247
1.83162
2.05041
2.29735
2.54314
2.92266
2.91527
0.0583452
0.0541859
0.0651856
0.111799
0.169701
0.225532
0.290509
0.396157
0.521165
0.655283
0.778307
0.899732
1.02352
1.14223
1.2712
1.45421
1.67856
1.88119
2.17512
2.10356
0.0504933
0.0601603
0.0651167
0.0812042
0.119213
0.16483
0.190935
0.239124
0.304424
0.376864
0.476717
0.586517
0.718482
0.833965
0.96497
1.11329
1.26272
1.39141
1.61007
1.55977
0.0495916
0.0646627
0.0706271
0.0728538
0.0850044
0.120026
0.135227
0.162515
0.222436
0.30709
0.400433
0.479725
0.58699
0.670177
0.758872
0.846311
0.930482
1.00661
1.124
1.32429
0.0544199
0.0672246
0.0708236
0.0690137
0.0790807
0.108251
0.128563
0.163579
0.228589
0.29348
0.357828
0.406897
0.467596
0.521656
0.565646
0.610301
0.649971
0.715785
0.806112
1.01875
0.0620246
0.0697885
0.0667644
0.0665871
0.0794114
0.108524
0.131564
0.164074
0.215845
0.257988
0.287204
0.313067
0.328333
0.355405
0.377895
0.413863
0.465242
0.551142
0.631459
0.780598
0.0731239
0.0746049
0.0673849
0.064753
0.0756809
0.102667
0.123471
0.145929
0.172162
0.202847
0.196216
0.205746
0.21554
0.244506
0.286164
0.338645
0.397164
0.45719
0.506571
0.588751
0.088009
0.0853172
0.074553
0.0608654
0.065831
0.084996
0.0963647
0.107513
0.118625
0.136307
0.142367
0.155767
0.18824
0.233146
0.271808
0.308103
0.340898
0.37144
0.385542
0.411403
0.0993623
0.102294
0.0958538
0.0676183
0.0569405
0.0654142
0.0716886
0.0801126
0.09376
0.109645
0.132141
0.155941
0.19005
0.221252
0.2421
0.264473
0.262604
0.263313
0.261729
0.283014
0.107648
0.11196
0.106884
0.0869915
0.0615182
0.0648543
0.0678191
0.0769138
0.0939612
0.110731
0.134764
0.15548
0.1775
0.191132
0.194864
0.19908
0.194159
0.193844
0.203612
0.24234
0.117876
0.119584
0.111694
0.0962282
0.0743566
0.0660114
0.070167
0.0792421
0.0937312
0.106868
0.128043
0.129167
0.131073
0.131458
0.131438
0.133172
0.138922
0.15217
0.16959
0.191498
0.138384
0.143544
0.155738
0.161313
0.146045
0.123258
0.130521
0.153465
0.190123
0.197713
0.204465
0.216357
0.236045
0.247747
0.238633
0.233472
0.242498
0.267012
0.303281
0.331453
0.230536
0.352037
0.42267
0.507445
0.518134
0.510775
0.516416
0.528073
0.566887
0.574092
0.569168
0.598272
0.630676
0.665123
0.675439
0.6889
0.717984
0.736734
0.747388
0.74439
0.779154
0.899059
0.969602
1.07854
1.16378
1.21997
1.23168
1.21944
1.19392
1.20265
1.24981
1.32758
1.3531
1.33386
1.28971
1.27714
1.28952
1.32346
1.3195
1.25859
0.381363
0.596647
0.760537
0.907293
1.06678
1.17396
1.20914
1.22828
1.22264
1.22307
1.24973
1.30471
1.34026
1.33766
1.31302
1.29345
1.29388
1.31051
1.303
1.25556
0.194957
0.231226
0.339271
0.456891
0.69301
0.945023
1.09207
1.20274
1.25886
1.25011
1.25321
1.26986
1.30097
1.32226
1.33113
1.33205
1.32168
1.3058
1.28396
1.24344
0.270722
0.304478
0.332551
0.327369
0.339392
0.436911
0.71023
1.03029
1.18158
1.26901
1.2725
1.25125
1.26235
1.2998
1.33998
1.34939
1.33984
1.30515
1.27021
1.24099
0.331369
0.373363
0.39265
0.39723
0.385194
0.385004
0.408834
0.555822
0.89249
1.17427
1.22856
1.21974
1.23208
1.28353
1.34793
1.3634
1.35095
1.29971
1.25893
1.24203
0.420145
0.458922
0.490053
0.469216
0.441738
0.436046
0.441068
0.457689
0.528267
0.762099
1.06327
1.19846
1.19956
1.24999
1.3364
1.35545
1.34266
1.29481
1.25815
1.24929
0.544193
0.57133
0.570507
0.541072
0.496325
0.494317
0.498751
0.512892
0.528359
0.547341
0.667508
0.960821
1.16856
1.22741
1.31558
1.34647
1.33117
1.28163
1.26047
1.25625
0.722454
0.694507
0.682392
0.653949
0.595971
0.564292
0.555871
0.553438
0.550424
0.558694
0.564206
0.627826
0.896281
1.15931
1.2668
1.32122
1.2995
1.27351
1.27319
1.26285
0.940845
0.844475
0.79928
0.756086
0.682945
0.627523
0.610137
0.595137
0.596818
0.599312
0.591713
0.586038
0.626685
0.876854
1.15467
1.30191
1.26549
1.27281
1.28791
1.26716
1.21365
1.02214
0.934443
0.891252
0.806508
0.71759
0.670145
0.633676
0.618274
0.630739
0.629383
0.615965
0.610492
0.641708
0.853247
1.16505
1.22541
1.29155
1.29831
1.26931
1.80073
1.31739
1.00587
0.97289
0.969013
0.939183
0.854148
0.744301
0.709315
0.69866
0.696243
0.685529
0.669384
0.653172
0.667878
0.790556
1.05026
1.23455
1.26365
1.24513
2.82889
2.14246
1.5703
1.21491
1.16006
1.14997
1.0723
0.923117
0.819581
0.773412
0.767434
0.769837
0.751256
0.718585
0.679439
0.684847
0.74438
0.898644
1.06767
1.1752
3.47943
3.02385
2.42596
1.87625
1.45989
1.28211
1.20347
1.10246
0.947975
0.909011
0.914474
0.900711
0.858264
0.812412
0.768351
0.730312
0.740625
0.75433
0.794757
0.949809
3.29549
3.27057
3.11489
2.70398
2.20029
1.70964
1.47253
1.39052
1.24876
1.1276
1.06185
0.992197
0.931135
0.881837
0.828561
0.800204
0.78991
0.780772
0.773053
0.774929
2.34881
2.99751
3.09844
3.05339
2.87512
2.48614
2.02697
1.74313
1.52934
1.34096
1.20822
1.07302
1.0362
1.02289
0.978558
0.934747
0.900128
0.862049
0.821753
0.775424
1.55227
2.01408
2.57933
2.94694
2.94489
2.89389
2.69558
2.34042
1.99642
1.71941
1.52942
1.34817
1.25837
1.20804
1.12751
1.04424
0.967613
0.909193
0.877157
0.84345
1.40635
1.46225
1.68684
2.16239
2.60452
2.82009
2.81099
2.74304
2.56525
2.26367
1.95409
1.70083
1.50465
1.35562
1.23662
1.15732
1.09325
1.02218
1.00856
0.966092
1.40014
1.40155
1.41482
1.50863
1.7749
2.19768
2.54733
2.70179
2.69395
2.63707
2.4626
2.21452
1.93575
1.68844
1.52554
1.40032
1.32125
1.24012
1.15871
1.05046
1.40001
1.40002
1.40021
1.40347
1.42602
1.5417
1.80644
2.17706
2.47254
2.59506
2.58495
2.53865
2.39595
2.16691
1.93832
1.70378
1.53034
1.41027
1.29538
1.14217
1.40001
1.40001
1.40001
1.40004
1.40045
1.40552
1.43484
1.55014
1.79968
2.1294
2.37924
2.50051
2.49385
2.45356
2.34145
2.15399
1.92827
1.72256
1.57848
1.37813
1.40001
1.40001
1.40001
1.40001
1.40001
1.40007
1.4007
1.40652
1.43664
1.54877
1.7699
2.0616
2.29105
2.41088
2.40626
2.38075
2.29877
2.13117
1.94942
1.65945
1.40001
1.40001
1.40001
1.40001
1.40001
1.40001
1.40001
1.40009
1.4008
1.40681
1.43563
1.53139
1.72405
1.99111
2.19897
2.3292
2.32783
2.30956
2.25365
2.02647
1.40001
1.40001
1.40001
1.40001
1.40001
1.40001
1.40001
1.40001
1.40001
1.4001
1.40081
1.40599
1.42994
1.51222
1.67745
1.91403
2.11179
2.24719
2.24622
2.19591
1.40001
1.40001
1.40001
1.40001
1.40001
1.40001
1.40001
1.40001
1.40001
1.40001
1.40001
1.40008
1.40069
1.40484
1.42469
1.48931
1.62699
1.83967
2.02162
2.13958
1.40001
1.40001
1.40001
1.40001
1.40001
1.40001
1.40001
1.40001
1.40001
1.40001
1.40001
1.40001
1.40001
1.40007
1.40057
1.40359
1.41933
1.47188
1.59337
1.91219
2.24284
3.42435
3.59464
2.90757
1.83132
1.45145
1.40262
1.40007
1.40001
1.40001
1.40001
1.40001
1.40001
1.40001
1.40001
3.26258
3.91334
3.51619
2.14901
1.46674
1.40112
1.40001
1.4
1.40001
1.40001
1.40001
1.40001
1.40001
1.40001
1.40001
4.07357
3.98829
2.75807
1.61229
1.40732
1.40008
1.40001
1.40001
1.40001
1.40001
1.40001
1.40001
1.40001
1.40001
1.40001
4.52017
3.56355
1.90899
1.42705
1.40027
1.40001
1.40001
1.40001
1.40001
1.40001
1.40001
1.40001
1.40001
1.40001
1.40001
4.62377
2.35007
1.46497
1.40067
1.40001
1.40001
1.40001
1.40001
1.40001
1.40001
1.40001
1.40001
1.40001
1.40001
1.40001
2.8822
1.50233
1.40073
1.4
1.4
1.40001
1.40001
1.40001
1.40001
1.40001
1.40001
1.40001
1.40001
1.40001
1.40001
1.54112
1.40077
1.4
1.4
1.40001
1.40001
1.40001
1.40001
1.40001
1.40001
1.40001
1.40001
1.40001
1.40001
1.40001
1.39742
1.39982
1.4
1.40001
1.40001
1.40001
1.40001
1.40001
1.40001
1.40001
1.40001
1.40001
1.40001
1.40001
1.40001
1.39996
1.40001
1.40001
1.40001
1.40001
1.40001
1.40001
1.40001
1.40001
1.40001
1.40001
1.40001
1.40001
1.40001
1.40001
1.40001
1.40001
1.40001
1.40001
1.40001
1.40001
1.40001
1.40001
1.40001
1.40001
1.40001
1.40001
1.40001
1.40001
1.40001
1.40001
1.40001
1.40001
1.40001
1.40001
1.40001
1.40001
1.40001
1.40001
1.40001
1.40001
1.40001
1.40001
1.40001
1.40001
1.40001
1.40001
1.40001
1.40001
1.40001
1.40001
1.40001
1.40001
1.40001
1.40001
1.40001
1.40001
1.40001
1.40001
1.40001
1.40001
1.40001
1.40001
1.40001
1.40001
1.40001
1.40001
1.40001
1.40001
1.40001
1.40001
1.40001
1.40001
1.40001
1.40001
1.40001
1.40001
1.40001
1.40001
1.40001
1.40001
1.40001
1.40001
1.40001
1.40001
1.40001
1.40001
1.40001
1.40001
1.40001
1.40001
1.40001
1.40001
1.40001
1.40001
1.40001
1.40001
1.40001
1.40001
1.40001
1.40001
1.40001
1.40001
1.40001
1.40001
1.40001
1.40001
1.40001
1.40001
1.40001
1.40001
1.40001
1.40001
1.40001
1.40001
1.40001
1.40001
1.40001
1.40001
1.40001
1.40001
1.40001
1.40001
1.40001
1.40001
1.40001
1.40001
1.40001
1.40001
1.40001
1.40001
1.40001
1.40001
1.40001
1.40001
1.40001
1.40001
1.40001
1.40001
1.40001
1.40001
1.40001
1.40001
1.40001
1.40001
1.40001
1.40001
1.40001
1.40001
1.40001
1.40001
1.40001
1.40001
1.40001
1.40001
1.40001
1.40001
1.40001
1.40001
1.40001
1.40001
1.40001
1.40001
1.40001
1.40001
1.40001
1.40001
1.40001
1.40001
1.40001
1.40001
1.40001
1.40001
1.40001
1.40001
1.40001
1.40001
1.40001
1.40001
1.40001
1.40001
1.40001
1.40001
1.40001
1.40001
1.40001
1.40001
1.40001
1.40001
1.40001
1.40001
1.40001
1.40001
1.40001
1.40001
1.40001
1.40001
1.40001
1.40001
1.40001
1.40001
1.40001
1.40001
1.40001
1.40001
1.40001
1.40001
1.40001
1.40001
1.40001
1.40001
1.40001
1.40001
1.40001
1.40001
1.40001
1.40001
1.40001
1.40001
1.40001
1.40001
1.40001
1.40001
1.40001
1.40001
1.40001
1.40001
1.40001
1.40001
1.40001
1.40001
1.40001
1.40001
1.40001
1.40001
1.40001
1.40001
1.40001
1.40001
1.40001
1.40001
1.40001
1.40001
1.40001
1.40001
1.40001
1.40001
1.40001
1.40001
1.40001
1.40001
1.40001
1.40001
1.40001
1.40001
1.40001
1.40001
1.40001
1.40001
1.40001
1.40001
1.40001
1.40001
1.40001
1.40001
1.40001
1.40001
1.40001
1.40001
1.40001
1.40001
1.40001
1.40001
1.40001
1.40001
1.40001
1.40001
1.40001
1.40001
1.40001
1.40001
1.40001
1.40001
1.40001
1.40001
1.40001
1.40001
1.40001
1.40001
1.40001
1.40001
1.40001
1.40001
1.40001
1.40001
1.40001
1.40001
1.40001
1.40001
1.40001
1.40001
1.40001
1.40001
1.40001
1.40001
1.40001
1.40001
1.40001
1.40001
1.40001
1.40001
1.40001
1.40001
1.40001
1.40001
1.40001
1.40001
1.40001
1.40001
1.40001
1.40001
1.40001
1.40001
1.40001
1.40001
1.40001
1.40001
1.40001
1.40001
1.40001
1.40001
1.40001
1.40001
1.40001
1.40001
1.40001
1.40001
1.40001
1.40001
1.40001
1.40001
1.40001
1.40001
1.40001
1.40001
1.40001
1.40001
1.40001
1.40001
1.40001
1.40001
1.40001
1.40001
1.40001
1.40001
1.40001
1.40001
1.40001
1.40001
1.40001
1.40001
1.40001
1.40001
1.40001
1.40001
1.40001
1.40001
1.40001
1.40001
1.40001
1.40001
1.40001
1.40001
1.40001
1.40001
1.40001
1.40001
1.40001
1.40001
1.40001
1.40001
1.40001
1.40001
1.40001
1.40001
1.40001
1.40001
1.40001
1.40001
1.40001
1.40001
1.40001
1.40001
1.40001
1.40001
1.40001
1.40001
1.40001
1.40001
1.40001
1.40001
1.40001
1.40001
1.40001
1.40001
1.40001
1.40001
1.40001
1.40001
1.40001
1.40001
1.40001
1.40001
1.40001
1.40001
1.40001
1.40001
1.40001
1.40001
1.40001
1.40001
1.40001
1.40001
1.40001
1.40001
1.40001
1.40001
1.40001
1.40001
1.40001
1.40001
1.40001
1.40001
1.40001
1.40001
1.40001
1.40001
1.40001
1.40001
1.40001
1.40001
1.40001
1.40001
1.40001
1.40001
1.40001
1.40001
1.40001
1.40001
1.40001
1.40001
1.40001
1.40001
1.40001
1.40001
1.40001
1.40001
1.40001
1.40001
1.40001
1.40001
1.40001
1.40001
1.40001
1.40001
1.40001
1.40001
1.40001
1.40001
1.40001
1.40001
1.40001
1.40001
1.40001
1.40001
1.40001
1.40001
1.40001
1.40001
1.40001
1.40001
1.40001
1.40001
1.40001
1.40001
1.40001
1.40001
1.40001
1.40001
1.40001
1.40001
1.40001
1.40001
1.40001
1.40001
1.40001
1.40001
1.40001
1.40001
1.40001
1.40001
1.40001
1.40001
1.40001
1.40001
1.40001
1.40001
1.40001
1.40001
1.40001
1.40001
1.40001
1.40001
1.40001
1.40001
1.40001
1.40001
1.40001
1.40001
1.40001
1.40001
1.40001
1.40001
1.40001
1.40001
1.40001
1.40001
1.40001
1.40001
1.40001
1.40001
1.40001
1.40001
1.40001
1.40001
1.40001
1.40001
1.40001
1.40001
1.40001
1.40001
1.40001
1.40001
1.40001
1.40001
1.40001
1.40001
1.40001
1.40001
1.40001
1.40001
1.40001
1.40001
1.40001
1.40001
1.40001
1.40001
1.40001
1.40001
1.40001
1.40001
1.40001
1.40001
1.40001
1.40001
1.40001
1.40001
1.40001
1.40001
1.40001
1.40001
1.40001
1.40001
1.40001
1.40001
1.40001
1.40001
1.40001
1.40001
1.40001
1.40001
1.40001
1.40001
1.40001
1.40001
1.40001
1.40001
1.40001
1.40001
1.40001
1.40001
1.40001
1.40001
1.40001
1.40001
1.40001
1.40001
1.40001
1.40001
1.40001
1.40001
1.40001
1.40001
1.40001
1.40001
1.40001
1.40001
1.40001
1.40001
1.40001
1.40001
1.40001
1.40001
1.40001
1.40001
1.40001
1.40001
1.40001
1.40001
1.40001
1.40001
1.40001
1.40001
1.40001
1.40001
1.40001
1.40001
1.40001
1.40001
1.40001
1.40001
1.40001
1.40001
1.40001
1.40001
1.40001
1.40001
1.40001
1.40001
1.40001
1.40001
1.40001
1.40001
1.40001
1.40001
1.40001
1.40001
1.40001
1.40001
1.40001
1.40001
1.40001
1.40001
1.40001
1.40001
1.40001
1.40001
1.40001
1.40001
1.40001
1.40001
1.40001
1.40001
1.40001
1.40001
1.40001
1.40001
1.40001
1.40001
1.40001
1.40001
1.40001
1.40001
1.40001
1.40001
1.40001
1.40001
1.40001
1.40001
1.40001
1.40001
1.40001
1.40001
1.40001
1.40001
1.40001
1.40001
1.40001
1.40001
1.40001
1.40001
1.40001
1.40001
1.40001
1.40001
1.40001
1.40001
1.40001
1.40001
1.40001
1.40001
1.40001
1.40001
1.40001
1.40001
1.40001
1.40001
1.40001
1.40001
1.40001
1.40001
1.40001
1.40001
1.40001
1.40001
1.40001
1.40001
1.40001
1.40001
1.40001
1.40001
1.40001
1.40001
1.40001
1.40001
1.40001
1.40001
1.40001
1.40001
1.40001
1.40001
1.40001
1.40001
1.40001
1.40001
1.40001
1.40001
1.40001
1.40001
1.40001
1.40001
1.40001
1.40001
1.40001
1.40001
1.40001
1.40001
1.40001
1.40001
1.40001
1.40001
1.40001
1.40001
1.40001
1.40001
1.40001
1.40001
1.40001
1.40001
1.40001
1.40001
1.40001
1.40001
1.40001
1.40001
1.40001
1.40001
1.40001
1.40001
1.40001
1.40001
1.40001
1.40001
1.40001
1.40001
1.40001
1.40001
1.40001
1.40001
1.40001
1.40001
1.40001
1.40001
1.40001
1.40001
1.40001
1.40001
1.40001
1.40001
1.40001
1.40001
1.40001
1.40001
1.40001
1.40001
1.40001
1.40001
1.40001
1.40001
1.40001
1.40001
1.40001
1.40001
1.40001
1.40001
1.40001
1.40001
1.40001
1.40001
1.40001
1.40001
1.40001
1.40001
1.40001
1.40001
1.40001
1.40001
1.40001
1.40001
1.40001
1.40001
1.40001
1.40001
1.40001
1.40001
1.40001
1.40001
1.40001
1.40001
1.40001
1.40001
1.40001
1.40001
1.40001
1.40001
1.40001
1.40001
1.40001
1.40001
1.40001
1.40001
1.40001
1.40001
1.40001
1.40001
1.39996
1.40001
1.40001
1.40001
1.40001
1.40001
1.40001
1.40001
1.40001
1.40001
1.40001
1.40001
1.40001
1.40001
1.40001
1.39742
1.39982
1.4
1.40001
1.40001
1.40001
1.40001
1.40001
1.40001
1.40001
1.40001
1.40001
1.40001
1.40001
1.40001
1.54089
1.40076
1.4
1.4
1.40001
1.40001
1.40001
1.40001
1.40001
1.40001
1.40001
1.40001
1.40001
1.40001
1.40001
2.88115
1.50216
1.40072
1.4
1.4
1.40001
1.40001
1.40001
1.40001
1.40001
1.40001
1.40001
1.40001
1.40001
1.40001
4.6225
2.34981
1.46506
1.40067
1.40001
1.40001
1.40001
1.40001
1.40001
1.40001
1.40001
1.40001
1.40001
1.40001
1.40001
4.51941
3.56275
1.90881
1.42706
1.40027
1.40001
1.40001
1.40001
1.40001
1.40001
1.40001
1.40001
1.40001
1.40001
1.40001
4.07274
3.98778
2.75783
1.61223
1.40731
1.40007
1.40001
1.40001
1.40001
1.40001
1.40001
1.40001
1.40001
1.40001
1.40001
3.26154
3.91268
3.51611
2.14916
1.46679
1.40113
1.40001
1.4
1.40001
1.40001
1.40001
1.40001
1.40001
1.40001
1.40001
2.24269
3.42327
3.5948
2.90791
1.83149
1.45146
1.40262
1.40007
1.40001
1.40001
1.40001
1.40001
1.40001
1.40001
1.40001
1.80003
2.83356
3.47861
3.29612
2.3495
1.55243
1.40635
1.40014
1.40001
1.40001
1.40001
1.40001
1.40001
1.40001
1.40001
1.32088
2.1306
3.02822
3.27112
2.99742
2.0141
1.46227
1.40155
1.40002
1.40001
1.40001
1.40001
1.40001
1.40001
1.40001
1.01011
1.55375
2.42623
3.11503
3.0988
2.57926
1.68672
1.41481
1.40021
1.40001
1.40001
1.40001
1.40001
1.40001
1.40001
0.976681
1.23633
1.87319
2.70659
3.0537
2.94688
2.16222
1.5086
1.40347
1.40004
1.40001
1.40001
1.40001
1.40001
1.40001
0.963839
1.18373
1.45468
2.20027
2.87494
2.94482
2.60444
1.77493
1.42604
1.40045
1.40001
1.40001
1.40001
1.40001
1.40001
0.926561
1.16266
1.28401
1.70621
2.48544
2.89378
2.82001
2.19775
1.54174
1.40552
1.40007
1.40001
1.40001
1.40001
1.40001
0.833095
1.07431
1.20617
1.46662
2.02669
2.69533
2.81095
2.54751
1.80655
1.43485
1.4007
1.40001
1.40001
1.40001
1.40001
0.728239
0.918674
1.10952
1.38975
1.74301
2.34049
2.74275
2.70159
2.17712
1.55021
1.40652
1.40009
1.40001
1.40001
1.40001
0.70299
0.81488
0.957787
1.25291
1.52904
1.99629
2.56487
2.69372
2.47245
1.79972
1.43666
1.4008
1.40001
1.40001
1.40001
0.698309
0.76864
0.915034
1.13037
1.34012
1.71793
2.26304
2.63687
2.59501
2.12939
1.54875
1.4068
1.4001
1.40001
1.40001
0.697062
0.763487
0.917841
1.06256
1.20729
1.52731
1.95331
2.46258
2.58494
2.37924
1.76988
1.43562
1.40081
1.40001
1.40001
0.687358
0.767514
0.899892
0.991245
1.07308
1.34749
1.70078
2.21446
2.53864
2.50048
2.06163
1.5314
1.406
1.40008
1.40001
0.670967
0.750498
0.854761
0.92918
1.03644
1.25854
1.50538
1.93587
2.3959
2.49383
2.29101
1.72407
1.42995
1.40069
1.40001
0.655046
0.718291
0.810163
0.881349
1.02422
1.20844
1.35582
1.68796
2.16687
2.45355
2.41089
1.99111
1.51221
1.40484
1.40007
0.668616
0.679735
0.767669
0.827327
0.979588
1.12724
1.23654
1.52615
1.93842
2.34144
2.40629
2.19897
1.67742
1.42468
1.40057
0.791031
0.685526
0.730831
0.798938
0.935137
1.0434
1.15679
1.4008
1.70433
2.15416
2.38078
2.32923
1.91402
1.48931
1.40359
1.05067
0.745313
0.741617
0.789287
0.900399
0.967064
1.09319
1.32113
1.52998
1.92858
2.29893
2.32787
2.11182
1.627
1.41934
1.23469
0.89889
0.755015
0.780686
0.862019
0.909063
1.02252
1.24034
1.40973
1.72236
2.13123
2.30959
2.24722
1.83969
1.47189
1.26345
1.06819
0.795168
0.772799
0.82095
0.877141
1.00861
1.15903
1.29532
1.5782
1.94925
2.25365
2.24624
2.02164
1.59339
1.24485
1.1754
0.950228
0.774886
0.774391
0.84343
0.965931
1.0503
1.14225
1.37821
1.65942
2.02647
2.19594
2.13961
1.91223
1.21588
1.03799
0.938423
0.886503
0.805474
0.719265
0.680096
0.648911
0.625054
0.633445
0.630106
0.617615
0.611269
0.640555
0.851678
1.16675
1.22643
1.2916
1.2978
1.26916
0.935664
0.853756
0.800431
0.749663
0.679318
0.630777
0.618332
0.603917
0.600792
0.599447
0.594757
0.587988
0.626008
0.870278
1.15088
1.29967
1.26506
1.27263
1.28739
1.26673
0.710508
0.700224
0.685448
0.645963
0.578114
0.549137
0.549605
0.555518
0.559445
0.570133
0.569299
0.631444
0.895126
1.15672
1.26403
1.31996
1.29929
1.27418
1.27289
1.26271
0.545641
0.56477
0.576368
0.54482
0.504309
0.499195
0.502302
0.514127
0.527159
0.543854
0.667321
0.964859
1.16915
1.22442
1.31037
1.34475
1.33085
1.28299
1.26154
1.25672