/*--------------------------------*- C++ -*----------------------------------*\
  =========                 |
  \\      /  F ield         | OpenFOAM: The Open Source CFD Toolbox
   \\    /   O peration     | Website:  https://openfoam.org
    \\  /    A nd           | Version:  7
     \\/     M anipulation  |
\*---------------------------------------------------------------------------*/
FoamFile
{
    version     2.0;
    format      ascii;
    class       volScalarField;
    location    "3.8";
    object      T;
}
// * * * * * * * * * * * * * * * * * * * * * * * * * * * * * * * * * * * * * //

dimensions      [0 0 0 1 0 0 0];

internalField   nonuniform List<scalar> 
3700
(
100.583
100.77
100.884
100.973
101.028
101.03
101.021
100.991
100.966
101.001
101.106
101.144
101.135
101.134
101.133
101.128
101.116
101.094
101.05
100.998
100.277
100.334
100.426
100.484
100.584
100.642
100.611
100.464
100.343
100.423
100.598
100.657
100.641
100.613
100.617
100.614
100.576
100.486
100.393
100.303
100.236
100.211
100.157
100.07
99.9522
99.8894
99.8994
99.9411
99.9938
100.028
100.058
100.044
100.027
100.008
99.9905
99.9872
99.9956
100.015
100.036
100.051
100.214
100.194
100.134
100.025
99.8773
99.8613
99.8659
99.908
99.9642
100.023
100.066
100.078
100.092
100.094
100.081
100.064
100.031
100.017
100.031
100.081
100.151
100.131
100.071
99.9182
99.8288
99.8421
99.8553
99.8946
99.9393
99.9946
100.039
100.074
100.105
100.127
100.133
100.135
100.122
100.1
100.076
100.088
100.086
100.038
99.9678
99.864
99.8471
99.8848
99.904
99.9177
99.9405
99.9927
100.027
100.055
100.091
100.126
100.149
100.164
100.176
100.181
100.178
100.185
100.027
99.9906
99.9302
99.9058
99.9414
100.01
100.043
100.048
100.053
100.073
100.057
100.07
100.089
100.116
100.142
100.171
100.202
100.227
100.239
100.267
99.9822
99.9914
99.9621
99.9547
100.007
100.087
100.12
100.135
100.16
100.169
100.173
100.174
100.176
100.18
100.182
100.193
100.218
100.258
100.283
100.326
99.9637
100.025
100.021
100.006
100.045
100.124
100.137
100.161
100.204
100.226
100.246
100.252
100.272
100.282
100.289
100.293
100.296
100.308
100.33
100.385
99.9594
100.049
100.051
100.025
100.063
100.137
100.138
100.159
100.208
100.249
100.276
100.293
100.326
100.341
100.358
100.371
100.381
100.392
100.412
100.448
99.964
100.032
100.006
100.005
100.077
100.146
100.147
100.195
100.241
100.279
100.302
100.326
100.357
100.379
100.405
100.431
100.452
100.468
100.503
100.492
99.9609
99.876
99.9427
100.03
100.13
100.198
100.234
100.295
100.342
100.389
100.407
100.422
100.432
100.442
100.457
100.483
100.516
100.541
100.579
100.57
99.9262
99.7643
99.9296
100.086
100.162
100.224
100.296
100.369
100.425
100.471
100.487
100.503
100.516
100.529
100.547
100.569
100.595
100.618
100.653
100.654
99.8819
99.7338
99.9085
100.085
100.156
100.216
100.33
100.413
100.48
100.531
100.551
100.569
100.586
100.605
100.634
100.664
100.69
100.711
100.725
100.734
99.8123
99.7012
99.7697
99.9882
100.121
100.303
100.452
100.525
100.586
100.617
100.634
100.648
100.665
100.689
100.722
100.752
100.774
100.784
100.78
100.775
99.6248
99.6218
99.7211
100.075
100.379
100.567
100.631
100.675
100.709
100.727
100.738
100.752
100.769
100.792
100.813
100.824
100.822
100.815
100.789
100.744
99.3562
99.6342
100.061
100.432
100.634
100.707
100.739
100.771
100.796
100.811
100.822
100.836
100.851
100.856
100.855
100.844
100.795
100.682
100.518
100.277
99.455
100.068
100.479
100.676
100.777
100.813
100.836
100.859
100.874
100.882
100.882
100.883
100.881
100.857
100.771
100.624
100.362
100.103
100.006
99.9978
100.11
100.528
100.744
100.841
100.887
100.905
100.918
100.923
100.919
100.909
100.895
100.839
100.722
100.466
100.146
100.01
99.9966
99.9985
99.9992
99.9998
100.697
100.836
100.913
100.949
100.962
100.955
100.951
100.929
100.843
100.761
100.574
100.234
100.031
99.9959
99.9978
99.9989
99.9998
100
100
100
100.998
100.996
100.992
100.988
100.981
100.944
100.871
100.454
99.844
100
100
100
100
100
100
100
100
100
100
100
100.994
100.993
100.985
100.973
100.962
100.872
100.489
100.012
100
100
100
100
100
100
100
100
100
100
100
100
100.99
100.992
100.985
100.965
100.929
100.649
100.043
99.9993
100
100
100
100
100
100
100
100
100
100
100
100
100.985
100.991
100.988
100.953
100.802
100.262
99.9961
100
100
100
100
100
100
100
100
100
100
100
100
100
100.979
100.989
100.984
100.922
100.558
99.9921
100
100
100
100
100
100
100
100
100
100
100
100
100
100
100.974
100.985
100.977
100.815
100.226
100
100
100
100
100
100
100
100
100
100
100
100
100
100
100
100.973
100.98
100.966
100.695
99.9928
100
100
100
100
100
100
100
100
100
100
100
100
100
100
100
100.984
100.979
100.924
100.485
100
100
100
100
100
100
100
100
100
100
100
100
100
100
100
100
101.005
100.978
100.83
100.142
100
100
100
100
100
100
100
100
100
100
100
100
100
100
100
100
101.015
100.944
100.69
99.9963
100
100
100
100
100
100
100
100
100
100
100
100
100
100
100
100
101.023
100.91
100.504
100
100
100
100
100
100
100
100
100
100
100
100
100
100
100
100
100
101.027
100.854
100.319
100
100
100
100
100
100
100
100
100
100
100
100
100
100
100
100
100
101.032
100.798
100.132
100
100
100
100
100
100
100
100
100
100
100
100
100
100
100
100
100
101.025
100.731
100
100
100
100
100
100
100
100
100
100
100
100
100
100
100
100
100
100
101.006
100.661
100
100
100
100
100
100
100
100
100
100
100
100
100
100
100
100
100
100
100.985
100.574
100
100
100
100
100
100
100
100
100
100
100
100
100
100
100
100
100
100
100.95
100.422
100
100
100
100
100
100
100
100
100
100
100
100
100
100
100
100
100
100
100.898
100.208
100
100
100
100
100
100
100
100
100
100
100
100
100
100
100
100
100
100
100.865
100.004
100
100
100
100
100
100
100
100
100
100
100
100
100
100
100
100
100
100
100.818
100
100
100
100
100
100
100
100
100
100
100
100
100
100
100
100
100
100
100
100.816
100
100
100
100
100
100
100
100
100
100
100
100
100
100
100
100
100
100
100
100.864
100.004
100
100
100
100
100
100
100
100
100
100
100
100
100
100
100
100
100
100
100.9
100.213
100
100
100
100
100
100
100
100
100
100
100
100
100
100
100
100
100
100
100.952
100.425
100
100
100
100
100
100
100
100
100
100
100
100
100
100
100
100
100
100
100.986
100.574
100
100
100
100
100
100
100
100
100
100
100
100
100
100
100
100
100
100
101.006
100.66
100
100
100
100
100
100
100
100
100
100
100
100
100
100
100
100
100
100
101.024
100.73
100
100
100
100
100
100
100
100
100
100
100
100
100
100
100
100
100
100
101.031
100.799
100.133
100
100
100
100
100
100
100
100
100
100
100
100
100
100
100
100
100
101.027
100.855
100.323
100
100
100
100
100
100
100
100
100
100
100
100
100
100
100
100
100
101.022
100.91
100.503
100
100
100
100
100
100
100
100
100
100
100
100
100
100
100
100
100
101.015
100.943
100.688
99.9964
100
100
100
100
100
100
100
100
100
100
100
100
100
100
100
100
101.005
100.977
100.829
100.142
100
100
100
100
100
100
100
100
100
100
100
100
100
100
100
100
100.984
100.979
100.925
100.488
100
100
100
100
100
100
100
100
100
100
100
100
100
100
100
100
100.973
100.981
100.967
100.699
99.9927
100
100
100
100
100
100
100
100
100
100
100
100
100
100
100
100.974
100.985
100.976
100.816
100.231
100
100
100
100
100
100
100
100
100
100
100
100
100
100
100
100.979
100.989
100.984
100.921
100.554
99.9922
100
100
100
100
100
100
100
100
100
100
100
100
100
100
100.985
100.992
100.988
100.953
100.799
100.259
99.9961
100
100
100
100
100
100
100
100
100
100
100
100
100
100.99
100.992
100.985
100.965
100.929
100.649
100.043
99.9993
100
100
100
100
100
100
100
100
100
100
100
100
100.994
100.993
100.985
100.973
100.963
100.873
100.491
100.013
100
100
100
100
100
100
100
100
100
100
100
100
100.998
100.995
100.991
100.988
100.981
100.944
100.871
100.454
99.8442
100
100
100
100
100
100
100
100
100
100
100
100.696
100.836
100.914
100.948
100.961
100.954
100.951
100.929
100.843
100.761
100.575
100.234
100.031
99.9958
99.9978
99.9989
99.9998
100
100
100
100.122
100.52
100.74
100.841
100.888
100.905
100.917
100.923
100.919
100.909
100.895
100.839
100.722
100.467
100.146
100.01
99.9966
99.9985
99.9992
99.9998
99.4878
100.108
100.48
100.672
100.777
100.814
100.836
100.859
100.874
100.882
100.882
100.883
100.881
100.857
100.771
100.624
100.363
100.103
100.006
99.9978
99.4749
99.7706
100.085
100.449
100.634
100.705
100.738
100.77
100.795
100.81
100.821
100.835
100.851
100.856
100.855
100.845
100.795
100.682
100.518
100.277
99.6505
99.7473
99.8913
100.144
100.397
100.572
100.632
100.675
100.709
100.728
100.739
100.752
100.77
100.792
100.813
100.824
100.822
100.815
100.789
100.743
99.9113
99.7862
99.8913
100.005
100.124
100.316
100.456
100.527
100.588
100.619
100.635
100.649
100.665
100.689
100.722
100.751
100.773
100.784
100.78
100.775
99.9621
99.8139
99.9214
100.073
100.154
100.202
100.324
100.408
100.477
100.529
100.55
100.569
100.586
100.605
100.634
100.664
100.69
100.711
100.725
100.734
99.9886
99.8188
99.9226
100.082
100.158
100.212
100.291
100.365
100.423
100.47
100.487
100.504
100.517
100.529
100.547
100.57
100.595
100.617
100.653
100.654
100.014
99.8748
99.9175
100.032
100.128
100.187
100.231
100.294
100.341
100.389
100.408
100.425
100.434
100.443
100.457
100.482
100.515
100.54
100.579
100.57
100.007
99.9984
99.9519
99.9878
100.074
100.131
100.141
100.194
100.241
100.279
100.301
100.325
100.355
100.377
100.403
100.429
100.451
100.468
100.503
100.493
99.9721
100.033
100.022
100.007
100.064
100.127
100.127
100.15
100.2
100.244
100.273
100.292
100.325
100.34
100.358
100.371
100.381
100.393
100.414
100.449
99.9654
100.021
100.022
100.008
100.067
100.129
100.124
100.153
100.201
100.225
100.246
100.253
100.274
100.284
100.291
100.295
100.298
100.309
100.33
100.384
99.9685
99.9979
99.9698
99.9674
100.034
100.1
100.111
100.134
100.164
100.173
100.179
100.18
100.181
100.185
100.186
100.194
100.216
100.256
100.282
100.326
99.9991
99.9971
99.9279
99.9056
99.9578
100.025
100.046
100.057
100.065
100.083
100.064
100.074
100.087
100.112
100.137
100.166
100.199
100.226
100.238
100.268
100.057
100.029
99.9551
99.8548
99.8508
99.9007
99.9127
99.9282
99.9472
99.9939
100.024
100.05
100.085
100.121
100.146
100.162
100.176
100.182
100.18
100.189
100.123
100.11
100.052
99.9038
99.821
99.842
99.8546
99.8943
99.9402
99.9926
100.033
100.067
100.1
100.124
100.132
100.136
100.125
100.105
100.081
100.089
100.189
100.184
100.13
100.02
99.8693
99.8583
99.8642
99.9055
99.9597
100.017
100.06
100.074
100.09
100.095
100.085
100.069
100.036
100.018
100.029
100.078
100.224
100.213
100.16
100.068
99.9481
99.8835
99.895
99.9373
99.9899
100.024
100.054
100.044
100.03
100.013
99.9937
99.9883
99.995
100.014
100.036
100.05
100.269
100.293
100.365
100.438
100.423
100.354
100.351
100.471
100.569
100.509
100.419
100.453
100.555
100.576
100.529
100.45
100.444
100.462
100.492
100.516
100.569
100.728
100.847
100.976
100.998
100.979
100.963
100.981
101.046
101.047
101.034
101.069
101.114
101.12
101.106
101.085
101.083
101.092
101.09
101.087
101.035
101.038
101.015
100.984
100.962
100.95
100.937
100.912
100.881
100.865
100.861
100.861
100.859
100.845
100.827
100.818
100.816
100.817
100.811
100.782
100.536
100.677
100.722
100.713
100.749
100.797
100.809
100.81
100.807
100.802
100.8
100.801
100.801
100.797
100.792
100.787
100.784
100.782
100.775
100.752
100.026
100.09
100.191
100.269
100.398
100.506
100.567
100.617
100.658
100.67
100.672
100.673
100.68
100.69
100.702
100.709
100.708
100.702
100.693
100.679
100.085
100.086
100.101
100.09
100.1
100.182
100.331
100.44
100.51
100.553
100.554
100.55
100.559
100.578
100.598
100.608
100.609
100.604
100.597
100.59
100.126
100.142
100.139
100.133
100.109
100.11
100.132
100.231
100.381
100.471
100.478
100.476
100.482
100.503
100.525
100.533
100.533
100.526
100.519
100.515
100.177
100.183
100.191
100.175
100.156
100.15
100.151
100.159
100.201
100.322
100.418
100.444
100.442
100.458
100.483
100.489
100.488
100.48
100.472
100.467
100.233
100.235
100.229
100.21
100.191
100.187
100.186
100.187
100.193
100.201
100.264
100.369
100.419
100.432
100.456
100.464
100.461
100.451
100.445
100.44
100.3
100.281
100.275
100.263
100.243
100.228
100.215
100.203
100.195
100.195
100.196
100.224
100.328
100.4
100.426
100.442
100.437
100.431
100.43
100.422
100.363
100.334
100.32
100.304
100.279
100.258
100.24
100.22
100.212
100.208
100.2
100.191
100.205
100.302
100.38
100.421
100.413
100.415
100.417
100.408
100.432
100.389
100.363
100.346
100.318
100.29
100.266
100.236
100.214
100.215
100.209
100.198
100.189
100.193
100.274
100.369
100.386
100.405
100.403
100.389
100.539
100.451
100.374
100.357
100.352
100.343
100.318
100.274
100.246
100.231
100.223
100.214
100.203
100.183
100.178
100.225
100.311
100.362
100.361
100.351
100.617
100.552
100.477
100.404
100.378
100.371
100.35
100.31
100.271
100.241
100.231
100.227
100.213
100.19
100.164
100.155
100.172
100.223
100.268
100.289
100.608
100.587
100.545
100.484
100.414
100.37
100.351
100.331
100.292
100.266
100.257
100.244
100.222
100.198
100.174
100.151
100.143
100.132
100.14
100.187
100.488
100.547
100.542
100.518
100.475
100.409
100.368
100.353
100.324
100.291
100.265
100.237
100.213
100.192
100.17
100.149
100.132
100.115
100.104
100.089
100.25
100.377
100.446
100.483
100.474
100.449
100.403
100.363
100.329
100.294
100.262
100.224
100.209
100.199
100.18
100.158
100.138
100.115
100.092
100.065
100.043
100.146
100.254
100.335
100.388
100.415
100.405
100.378
100.342
100.305
100.274
100.24
100.217
100.2
100.175
100.148
100.121
100.099
100.081
100.058
100.002
100.015
100.065
100.154
100.233
100.29
100.331
100.348
100.339
100.316
100.281
100.247
100.215
100.185
100.158
100.137
100.117
100.097
100.086
100.064
100
100
100.003
100.025
100.078
100.149
100.209
100.25
100.28
100.291
100.281
100.26
100.229
100.196
100.169
100.144
100.127
100.107
100.086
100.052
100
100
100
100.001
100.006
100.031
100.081
100.139
100.187
100.216
100.24
100.245
100.236
100.215
100.188
100.156
100.127
100.105
100.081
100.044
100
100
100
100
100
100.001
100.008
100.032
100.078
100.129
100.169
100.193
100.21
100.209
100.201
100.183
100.155
100.126
100.102
100.066
100
100
100
100
100
100
100
100.001
100.008
100.032
100.073
100.118
100.154
100.174
100.186
100.184
100.178
100.16
100.136
100.096
100
100
100
100
100
100
100
100
100
100.002
100.008
100.028
100.065
100.107
100.14
100.159
100.168
100.167
100.161
100.136
100
100
100
100
100
100
100
100
100
100
100
100.001
100.007
100.024
100.057
100.096
100.127
100.147
100.154
100.148
100
100
100
100
100
100
100
100
100
100
100
100
100
100.001
100.006
100.02
100.047
100.085
100.114
100.134
100
100
100
100
100
100
100
100
100
100
100
100
100
100
100
100.001
100.004
100.016
100.041
100.1
100.596
100.653
100.609
100.416
100.142
100.017
100.001
100
100
100
100
100
100
100
100
100.672
100.663
100.518
100.217
100.022
100
100
100
100
100
100
100
100
100
100
100.704
100.635
100.373
100.074
100.002
100
100
100
100
100
100
100
100
100
100
100.718
100.518
100.167
100.009
100
100
100
100
100
100
100
100
100
100
100
100.651
100.284
100.024
100
100
100
100
100
100
100
100
100
100
100
100
100.394
100.038
100
100
100
100
100
100
100
100
100
100
100
100
100
100.042
100
100
100
100
100
100
100
100
100
100
100
100
100
100
99.9995
100
100
100
100
100
100
100
100
100
100
100
100
100
100
100
100
100
100
100
100
100
100
100
100
100
100
100
100
100
100
100
100
100
100
100
100
100
100
100
100
100
100
100
100
100
100
100
100
100
100
100
100
100
100
100
100
100
100
100
100
100
100
100
100
100
100
100
100
100
100
100
100
100
100
100
100
100
100
100
100
100
100
100
100
100
100
100
100
100
100
100
100
100
100
100
100
100
100
100
100
100
100
100
100
100
100
100
100
100
100
100
100
100
100
100
100
100
100
100
100
100
100
100
100
100
100
100
100
100
100
100
100
100
100
100
100
100
100
100
100
100
100
100
100
100
100
100
100
100
100
100
100
100
100
100
100
100
100
100
100
100
100
100
100
100
100
100
100
100
100
100
100
100
100
100
100
100
100
100
100
100
100
100
100
100
100
100
100
100
100
100
100
100
100
100
100
100
100
100
100
100
100
100
100
100
100
100
100
100
100
100
100
100
100
100
100
100
100
100
100
100
100
100
100
100
100
100
100
100
100
100
100
100
100
100
100
100
100
100
100
100
100
100
100
100
100
100
100
100
100
100
100
100
100
100
100
100
100
100
100
100
100
100
100
100
100
100
100
100
100
100
100
100
100
100
100
100
100
100
100
100
100
100
100
100
100
100
100
100
100
100
100
100
100
100
100
100
100
100
100
100
100
100
100
100
100
100
100
100
100
100
100
100
100
100
100
100
100
100
100
100
100
100
100
100
100
100
100
100
100
100
100
100
100
100
100
100
100
100
100
100
100
100
100
100
100
100
100
100
100
100
100
100
100
100
100
100
100
100
100
100
100
100
100
100
100
100
100
100
100
100
100
100
100
100
100
100
100
100
100
100
100
100
100
100
100
100
100
100
100
100
100
100
100
100
100
100
100
100
100
100
100
100
100
100
100
100
100
100
100
100
100
100
100
100
100
100
100
100
100
100
100
100
100
100
100
100
100
100
100
100
100
100
100
100
100
100
100
100
100
100
100
100
100
100
100
100
100
100
100
100
100
100
100
100
100
100
100
100
100
100
100
100
100
100
100
100
100
100
100
100
100
100
100
100
100
100
100
100
100
100
100
100
100
100
100
100
100
100
100
100
100
100
100
100
100
100
100
100
100
100
100
100
100
100
100
100
100
100
100
100
100
100
100
100
100
100
100
100
100
100
100
100
100
100
100
100
100
100
100
100
100
100
100
100
100
100
100
100
100
100
100
100
100
100
100
100
100
100
100
100
100
100
100
100
100
100
100
100
100
100
100
100
100
100
100
100
100
100
100
100
100
100
100
100
100
100
100
100
100
100
100
100
100
100
100
100
100
100
100
100
100
100
100
100
100
100
100
100
100
100
100
100
100
100
100
100
100
100
100
100
100
100
100
100
100
100
100
100
100
100
100
100
100
100
100
100
100
100
100
100
100
100
100
100
100
100
100
100
100
100
100
100
100
100
100
100
100
100
100
100
100
100
100
100
100
100
100
100
100
100
100
100
100
100
100
100
100
100
100
100
100
100
100
100
100
100
100
100
100
100
100
100
100
100
100
100
100
100
100
100
100
100
100
100
100
100
100
100
100
100
100
100
100
100
100
100
100
100
100
100
100
100
100
100
100
100
100
100
100
100
100
100
100
100
100
100
100
100
100
100
100
100
100
100
100
100
100
100
100
100
100
100
100
100
100
100
100
100
100
100
100
100
100
100
100
100
100
100
100
100
100
100
100
100
100
100
100
100
100
100
100
100
100
100
100
100
100
100
100
100
100
100
100
100
100
100
100
100
100
100
100
100
100
100
100
100
100
100
100
100
100
100
100
100
100
100
100
100
100
100
100
100
100
100
100
100
100
100
100
100
100
100
100
100
100
100
100
100
100
100
100
100
100
100
100
100
100
100
100
100
100
100
100
100
100
100
100
100
100
100
100
100
100
100
100
100
100
100
100
100
100
100
100
100
100
100
100
100
100
100
100
100
100
99.9995
100
100
100
100
100
100
100
100
100
100
100
100
100
100
100.042
100
100
100
100
100
100
100
100
100
100
100
100
100
100
100.393
100.038
100
100
100
100
100
100
100
100
100
100
100
100
100
100.651
100.284
100.024
100
100
100
100
100
100
100
100
100
100
100
100
100.718
100.518
100.167
100.009
100
100
100
100
100
100
100
100
100
100
100
100.704
100.635
100.373
100.074
100.002
100
100
100
100
100
100
100
100
100
100
100.672
100.663
100.518
100.217
100.022
100
100
100
100
100
100
100
100
100
100
100.596
100.653
100.609
100.416
100.142
100.017
100.001
100
100
100
100
100
100
100
100
100.539
100.618
100.608
100.488
100.251
100.043
100.002
100
100
100
100
100
100
100
100
100.451
100.551
100.587
100.548
100.377
100.146
100.015
100
100
100
100
100
100
100
100
100.374
100.474
100.545
100.542
100.446
100.254
100.065
100.003
100
100
100
100
100
100
100
100.359
100.407
100.483
100.519
100.483
100.335
100.154
100.025
100.001
100
100
100
100
100
100
100.352
100.383
100.412
100.475
100.474
100.388
100.233
100.078
100.006
100
100
100
100
100
100
100.341
100.374
100.37
100.409
100.449
100.415
100.29
100.149
100.031
100.001
100
100
100
100
100
100.312
100.351
100.351
100.367
100.403
100.405
100.331
100.209
100.081
100.008
100
100
100
100
100
100.268
100.31
100.332
100.353
100.363
100.378
100.348
100.25
100.139
100.032
100.001
100
100
100
100
100.243
100.27
100.295
100.325
100.329
100.342
100.339
100.28
100.187
100.078
100.008
100
100
100
100
100.231
100.239
100.269
100.292
100.294
100.305
100.315
100.291
100.217
100.129
100.032
100.002
100
100
100
100.223
100.228
100.258
100.265
100.261
100.274
100.281
100.281
100.24
100.169
100.073
100.008
100
100
100
100.214
100.225
100.243
100.236
100.224
100.24
100.247
100.26
100.245
100.193
100.118
100.028
100.001
100
100
100.203
100.212
100.221
100.212
100.209
100.217
100.215
100.229
100.236
100.21
100.154
100.065
100.007
100
100
100.183
100.19
100.198
100.192
100.199
100.2
100.185
100.196
100.215
100.209
100.174
100.107
100.024
100.001
100
100.178
100.164
100.174
100.17
100.18
100.175
100.158
100.169
100.188
100.201
100.186
100.14
100.057
100.006
100
100.225
100.155
100.151
100.149
100.159
100.148
100.137
100.144
100.156
100.183
100.184
100.159
100.096
100.02
100.001
100.312
100.172
100.143
100.132
100.138
100.121
100.117
100.127
100.127
100.156
100.178
100.168
100.127
100.047
100.004
100.362
100.223
100.132
100.115
100.115
100.099
100.097
100.107
100.105
100.126
100.16
100.167
100.147
100.085
100.016
100.361
100.268
100.141
100.104
100.092
100.081
100.086
100.086
100.081
100.102
100.136
100.161
100.154
100.114
100.041
100.351
100.289
100.187
100.089
100.064
100.058
100.064
100.052
100.044
100.066
100.096
100.136
100.148
100.134
100.1
100.432
100.393
100.364
100.345
100.32
100.291
100.268
100.242
100.218
100.216
100.209
100.198
100.189
100.193
100.274
100.369
100.386
100.405
100.402
100.389
100.361
100.337
100.321
100.303
100.281
100.26
100.244
100.224
100.213
100.208
100.201
100.193
100.204
100.299
100.38
100.421
100.413
100.415
100.416
100.407
100.296
100.284
100.276
100.26
100.237
100.221
100.212
100.205
100.2
100.201
100.199
100.226
100.328
100.399
100.426
100.442
100.437
100.431
100.429
100.422
100.234
100.232
100.231
100.212
100.195
100.19
100.188
100.188
100.192
100.2
100.264
100.371
100.418
100.43
100.455
100.464
100.461
100.451
100.445
100.439
100.175
100.186
100.186
100.167
100.145
100.143
100.148
100.159
100.199
100.315
100.415
100.443
100.443
100.457
100.482
100.488
100.487
100.48
100.472
100.467
100.125
100.139
100.143
100.136
100.118
100.119
100.141
100.238
100.376
100.464
100.473
100.473
100.481
100.504
100.524
100.532
100.532
100.527
100.52
100.516
100.087
100.089
100.094
100.09
100.098
100.18
100.337
100.45
100.512
100.548
100.546
100.546
100.56
100.581
100.599
100.609
100.61
100.606
100.6
100.594
100.029
100.046
100.19
100.313
100.405
100.488
100.558
100.632
100.671
100.67
100.667
100.67
100.682
100.696
100.706
100.712
100.711
100.707
100.7
100.686
100.607
100.625
100.708
100.761
100.768
100.778
100.792
100.818
100.818
100.806
100.799
100.801
100.805
100.803
100.798
100.791
100.788
100.787
100.78
100.757
101.06
101.021
101.009
101.002
100.973
100.948
100.929
100.908
100.884
100.864
100.862
100.864
100.864
100.852
100.83
100.819
100.818
100.819
100.813
100.786
)
;

boundaryField
{
    inlet
    {
        type            fixedValue;
        value           uniform 100;
    }
    outlet
    {
        type            inletOutlet;
        inletValue      uniform 100;
        value           nonuniform List<scalar> 
50
(
100.351
100.289
100.187
100.089
100.065
100.058
100.064
100.052
100.044
100.066
100.096
100.136
100.148
100.134
100.1
100.782
100.751
100.679
100.59
100.515
100.467
100.44
100.422
100.408
100.389
100.389
100.407
100.422
100.439
100.467
100.516
100.594
100.686
100.757
100.786
100.35
100.289
100.187
100.089
100.064
100.058
100.064
100.052
100.044
100.066
100.096
100.136
100.148
100.134
100.1
)
;
    }
    airfoil
    {
        type            zeroGradient;
    }
    top
    {
        type            symmetryPlane;
    }
    bottom
    {
        type            symmetryPlane;
    }
    defaultFaces
    {
        type            empty;
    }
}


// ************************************************************************* //
