/*--------------------------------*- C++ -*----------------------------------*\
  =========                 |
  \\      /  F ield         | OpenFOAM: The Open Source CFD Toolbox
   \\    /   O peration     | Website:  https://openfoam.org
    \\  /    A nd           | Version:  7
     \\/     M anipulation  |
\*---------------------------------------------------------------------------*/
FoamFile
{
    version     2.0;
    format      ascii;
    class       volScalarField;
    location    "9.8";
    object      T;
}
// * * * * * * * * * * * * * * * * * * * * * * * * * * * * * * * * * * * * * //

dimensions      [0 0 0 1 0 0 0];

internalField   nonuniform List<scalar> 
3700
(
100.481
100.718
100.775
100.851
100.891
100.953
101.058
101.112
101.109
101.087
101.081
101.115
101.126
101.107
101.095
101.106
101.107
101.103
101.084
101.041
100.152
100.215
100.324
100.422
100.418
100.452
100.603
100.675
100.616
100.449
100.444
100.534
100.545
100.482
100.446
100.471
100.534
100.557
100.522
100.414
100.142
100.153
100.138
100.098
100.033
99.9451
99.8935
99.8965
99.8737
99.8858
99.9151
99.9505
99.9898
100.018
100.035
100.04
100.035
100.025
100.012
100.01
100.159
100.147
100.113
100.066
100.032
100.02
99.9987
100.003
99.9586
99.9493
99.9206
99.9394
99.9817
100.022
100.051
100.069
100.084
100.086
100.083
100.062
100.191
100.138
100.103
100.066
100.054
100.048
100.056
100.081
100.091
100.087
100.048
100.027
99.9992
100.011
100.042
100.073
100.096
100.119
100.133
100.144
100.23
100.136
100.086
100.032
100.015
100.037
100.055
100.095
100.141
100.148
100.146
100.136
100.11
100.096
100.08
100.079
100.091
100.129
100.161
100.2
100.299
100.124
100.005
99.9665
99.9683
99.9902
100.007
100.056
100.138
100.169
100.185
100.182
100.186
100.185
100.182
100.18
100.176
100.176
100.189
100.245
100.316
100.054
99.9503
99.9408
99.9453
99.9735
99.994
100.041
100.102
100.15
100.187
100.198
100.222
100.233
100.245
100.258
100.264
100.271
100.278
100.315
100.272
99.9835
99.9146
99.9396
99.9576
99.9972
100.02
100.071
100.101
100.142
100.169
100.192
100.233
100.258
100.28
100.305
100.325
100.34
100.35
100.391
100.187
99.9065
99.8517
99.9331
99.9913
100.064
100.125
100.172
100.193
100.227
100.241
100.263
100.279
100.295
100.313
100.34
100.373
100.399
100.423
100.456
100.086
99.8355
99.7704
99.8719
99.9817
100.082
100.186
100.234
100.276
100.322
100.344
100.364
100.381
100.39
100.396
100.405
100.426
100.453
100.503
100.499
99.9923
99.7804
99.7064
99.8457
99.9741
100.088
100.22
100.259
100.313
100.375
100.406
100.43
100.452
100.462
100.477
100.492
100.513
100.533
100.573
100.569
99.8902
99.7297
99.6885
99.8483
100.016
100.225
100.311
100.322
100.377
100.423
100.459
100.484
100.508
100.524
100.548
100.573
100.598
100.622
100.656
100.653
99.7662
99.6736
99.7092
99.9043
100.179
100.394
100.425
100.476
100.523
100.55
100.563
100.574
100.586
100.601
100.626
100.655
100.684
100.711
100.727
100.736
99.6506
99.6106
99.7676
100.101
100.389
100.492
100.526
100.572
100.614
100.638
100.65
100.664
100.681
100.703
100.729
100.751
100.769
100.783
100.779
100.774
99.5347
99.5862
99.9816
100.31
100.511
100.566
100.603
100.65
100.689
100.709
100.724
100.744
100.768
100.795
100.815
100.824
100.822
100.815
100.79
100.747
99.343
99.7771
100.234
100.483
100.608
100.672
100.726
100.764
100.791
100.802
100.814
100.831
100.85
100.856
100.855
100.844
100.791
100.677
100.518
100.281
99.5003
100.131
100.493
100.66
100.756
100.808
100.843
100.868
100.879
100.881
100.881
100.882
100.881
100.859
100.774
100.623
100.358
100.101
100.006
99.9978
100.117
100.523
100.732
100.831
100.884
100.905
100.924
100.926
100.92
100.908
100.892
100.837
100.726
100.475
100.151
100.011
99.9967
99.9985
99.9992
99.9998
100.694
100.834
100.912
100.945
100.959
100.953
100.955
100.935
100.843
100.759
100.57
100.23
100.029
99.9956
99.9977
99.9989
99.9998
100
100
100
100.996
100.994
100.99
100.984
100.976
100.952
100.892
100.478
99.8329
100
100
100
100
100
100
100
100
100
100
100
100.997
100.994
100.988
100.973
100.947
100.853
100.497
100.019
100
100
100
100
100
100
100
100
100
100
100
100
100.993
100.993
100.989
100.969
100.916
100.616
100.025
99.9996
100
100
100
100
100
100
100
100
100
100
100
100
100.988
100.993
100.989
100.957
100.789
100.22
99.9969
100
100
100
100
100
100
100
100
100
100
100
100
100
100.982
100.993
100.987
100.918
100.582
99.9919
100
100
100
100
100
100
100
100
100
100
100
100
100
100
100.976
100.99
100.984
100.838
100.265
100
100
100
100
100
100
100
100
100
100
100
100
100
100
100
100.971
100.978
100.968
100.697
99.9926
100
100
100
100
100
100
100
100
100
100
100
100
100
100
100
100.977
100.97
100.913
100.472
100
100
100
100
100
100
100
100
100
100
100
100
100
100
100
100
101.004
100.97
100.817
100.127
100
100
100
100
100
100
100
100
100
100
100
100
100
100
100
100
101.017
100.943
100.682
99.9965
100
100
100
100
100
100
100
100
100
100
100
100
100
100
100
100
101.026
100.906
100.511
100
100
100
100
100
100
100
100
100
100
100
100
100
100
100
100
100
101.03
100.859
100.319
100
100
100
100
100
100
100
100
100
100
100
100
100
100
100
100
100
101.033
100.801
100.122
100
100
100
100
100
100
100
100
100
100
100
100
100
100
100
100
100
101.022
100.737
100.008
100
100
100
100
100
100
100
100
100
100
100
100
100
100
100
100
100
101.009
100.654
100
100
100
100
100
100
100
100
100
100
100
100
100
100
100
100
100
100
100.986
100.566
100
100
100
100
100
100
100
100
100
100
100
100
100
100
100
100
100
100
100.962
100.455
100
100
100
100
100
100
100
100
100
100
100
100
100
100
100
100
100
100
100.914
100.242
100
100
100
100
100
100
100
100
100
100
100
100
100
100
100
100
100
100
100.852
100.005
100
100
100
100
100
100
100
100
100
100
100
100
100
100
100
100
100
100
100.81
100
100
100
100
100
100
100
100
100
100
100
100
100
100
100
100
100
100
100
100.811
100
100
100
100
100
100
100
100
100
100
100
100
100
100
100
100
100
100
100
100.851
100.005
100
100
100
100
100
100
100
100
100
100
100
100
100
100
100
100
100
100
100.911
100.238
100
100
100
100
100
100
100
100
100
100
100
100
100
100
100
100
100
100
100.963
100.456
100
100
100
100
100
100
100
100
100
100
100
100
100
100
100
100
100
100
100.988
100.572
100
100
100
100
100
100
100
100
100
100
100
100
100
100
100
100
100
100
101.01
100.655
100
100
100
100
100
100
100
100
100
100
100
100
100
100
100
100
100
100
101.021
100.733
100.005
100
100
100
100
100
100
100
100
100
100
100
100
100
100
100
100
100
101.032
100.799
100.12
100
100
100
100
100
100
100
100
100
100
100
100
100
100
100
100
100
101.03
100.858
100.317
100
100
100
100
100
100
100
100
100
100
100
100
100
100
100
100
100
101.026
100.907
100.512
100
100
100
100
100
100
100
100
100
100
100
100
100
100
100
100
100
101.017
100.943
100.686
99.9965
100
100
100
100
100
100
100
100
100
100
100
100
100
100
100
100
101.005
100.973
100.818
100.124
100
100
100
100
100
100
100
100
100
100
100
100
100
100
100
100
100.979
100.971
100.913
100.473
100
100
100
100
100
100
100
100
100
100
100
100
100
100
100
100
100.971
100.977
100.966
100.694
99.9927
100
100
100
100
100
100
100
100
100
100
100
100
100
100
100
100.974
100.988
100.984
100.839
100.258
100
100
100
100
100
100
100
100
100
100
100
100
100
100
100
100.981
100.993
100.987
100.918
100.585
99.9918
100
100
100
100
100
100
100
100
100
100
100
100
100
100
100.988
100.993
100.989
100.955
100.791
100.226
99.9969
100
100
100
100
100
100
100
100
100
100
100
100
100
100.993
100.994
100.99
100.971
100.92
100.617
100.025
99.9996
100
100
100
100
100
100
100
100
100
100
100
100
100.998
100.995
100.989
100.975
100.949
100.852
100.491
100.018
100
100
100
100
100
100
100
100
100
100
100
100
100.997
100.994
100.991
100.984
100.974
100.951
100.891
100.479
99.832
100
100
100
100
100
100
100
100
100
100
100
100.694
100.834
100.913
100.946
100.957
100.952
100.954
100.935
100.844
100.759
100.571
100.229
100.029
99.9956
99.9977
99.9989
99.9998
100
100
100
100.126
100.525
100.729
100.83
100.886
100.905
100.922
100.927
100.921
100.908
100.892
100.837
100.724
100.473
100.15
100.011
99.9967
99.9985
99.9992
99.9998
99.5861
100.145
100.499
100.663
100.756
100.807
100.843
100.869
100.88
100.881
100.881
100.882
100.881
100.859
100.774
100.623
100.357
100.1
100.005
99.9978
99.3159
99.7629
100.207
100.466
100.607
100.679
100.727
100.765
100.792
100.803
100.814
100.831
100.85
100.856
100.855
100.844
100.791
100.677
100.517
100.281
99.4539
99.5985
99.9342
100.308
100.503
100.565
100.609
100.656
100.693
100.712
100.725
100.744
100.768
100.795
100.815
100.824
100.822
100.815
100.79
100.746
99.7361
99.6142
99.6946
100.1
100.376
100.49
100.528
100.574
100.616
100.639
100.65
100.664
100.68
100.703
100.729
100.751
100.77
100.782
100.779
100.774
99.9274
99.6695
99.6857
99.8961
100.186
100.384
100.419
100.47
100.519
100.547
100.56
100.572
100.584
100.6
100.627
100.656
100.684
100.711
100.726
100.736
100.005
99.7572
99.7084
99.8703
100.051
100.234
100.291
100.307
100.366
100.42
100.459
100.485
100.509
100.526
100.55
100.574
100.599
100.622
100.655
100.652
100.04
99.8179
99.7618
99.8629
99.9859
100.113
100.217
100.256
100.314
100.376
100.408
100.431
100.453
100.463
100.478
100.493
100.512
100.532
100.572
100.569
100.092
99.8718
99.8164
99.8887
99.9868
100.097
100.189
100.23
100.277
100.322
100.343
100.364
100.381
100.39
100.395
100.404
100.426
100.453
100.503
100.499
100.184
99.9286
99.8678
99.9372
99.9823
100.064
100.125
100.165
100.19
100.224
100.236
100.258
100.277
100.297
100.316
100.343
100.375
100.399
100.423
100.456
100.267
99.984
99.8978
99.926
99.9349
99.9832
100.022
100.064
100.099
100.14
100.17
100.198
100.241
100.263
100.284
100.308
100.326
100.34
100.35
100.392
100.288
100.043
99.9221
99.9299
99.9347
99.9571
99.9958
100.049
100.101
100.15
100.188
100.202
100.227
100.236
100.246
100.257
100.263
100.27
100.276
100.314
100.276
100.105
99.9757
99.9529
99.9602
99.975
100.012
100.071
100.133
100.163
100.184
100.182
100.186
100.185
100.18
100.176
100.171
100.173
100.19
100.248
100.202
100.113
100.058
100.027
100.031
100.037
100.054
100.094
100.128
100.137
100.137
100.131
100.104
100.091
100.077
100.079
100.096
100.136
100.166
100.202
100.135
100.099
100.088
100.074
100.058
100.045
100.048
100.065
100.066
100.068
100.031
100.016
99.9956
100.013
100.048
100.078
100.102
100.125
100.136
100.146
100.114
100.098
100.086
100.061
100.027
100.007
99.9802
99.9664
99.9222
99.9228
99.9153
99.9422
99.9868
100.026
100.055
100.074
100.088
100.089
100.084
100.061
100.108
100.101
100.101
100.078
100.029
99.9408
99.8803
99.8719
99.8687
99.8852
99.9179
99.9546
99.9928
100.02
100.037
100.041
100.036
100.025
100.012
100.011
100.133
100.182
100.247
100.273
100.348
100.472
100.52
100.527
100.603
100.635
100.587
100.443
100.431
100.488
100.576
100.588
100.537
100.468
100.481
100.476
100.509
100.704
100.733
100.764
100.848
100.967
101.047
101.067
101.103
101.11
101.105
101.081
101.083
101.118
101.135
101.132
101.113
101.089
101.069
101.058
101.039
101.027
101.006
100.994
100.969
100.948
100.921
100.894
100.88
100.877
100.879
100.874
100.859
100.841
100.832
100.827
100.822
100.818
100.812
100.805
100.563
100.636
100.717
100.746
100.771
100.782
100.79
100.806
100.811
100.811
100.811
100.808
100.799
100.79
100.79
100.792
100.791
100.789
100.786
100.783
100.027
100.062
100.198
100.298
100.408
100.492
100.559
100.633
100.661
100.667
100.673
100.677
100.679
100.685
100.697
100.707
100.711
100.713
100.716
100.721
100.072
100.093
100.094
100.087
100.096
100.18
100.346
100.46
100.508
100.538
100.547
100.556
100.565
100.578
100.593
100.605
100.612
100.616
100.622
100.632
100.127
100.136
100.139
100.128
100.123
100.126
100.155
100.259
100.396
100.455
100.465
100.478
100.496
100.513
100.523
100.53
100.534
100.536
100.54
100.55
100.186
100.188
100.182
100.157
100.142
100.146
100.165
100.176
100.221
100.315
100.394
100.425
100.453
100.477
100.488
100.489
100.49
100.488
100.489
100.495
100.237
100.24
100.229
100.194
100.186
100.188
100.195
100.208
100.206
100.205
100.255
100.349
100.407
100.445
100.465
100.467
100.465
100.459
100.46
100.464
100.295
100.287
100.276
100.249
100.225
100.214
100.219
100.221
100.219
100.211
100.196
100.219
100.317
100.39
100.43
100.446
100.441
100.438
100.444
100.446
100.36
100.342
100.323
100.295
100.265
100.249
100.238
100.234
100.229
100.216
100.206
100.188
100.199
100.292
100.366
100.412
100.409
100.418
100.431
100.43
100.427
100.397
100.374
100.344
100.307
100.279
100.255
100.242
100.237
100.227
100.214
100.2
100.184
100.186
100.263
100.355
100.379
100.406
100.417
100.413
100.533
100.438
100.399
100.378
100.357
100.323
100.277
100.262
100.253
100.241
100.23
100.218
100.2
100.175
100.176
100.222
100.308
100.361
100.372
100.379
100.621
100.547
100.463
100.416
100.401
100.38
100.333
100.292
100.267
100.246
100.234
100.228
100.211
100.189
100.168
100.157
100.17
100.22
100.274
100.319
100.609
100.589
100.543
100.473
100.416
100.39
100.357
100.312
100.288
100.27
100.257
100.243
100.223
100.2
100.178
100.156
100.143
100.13
100.143
100.221
100.488
100.547
100.541
100.517
100.465
100.416
100.383
100.346
100.319
100.29
100.264
100.237
100.21
100.186
100.17
100.153
100.133
100.114
100.1
100.108
100.25
100.377
100.446
100.483
100.475
100.446
100.409
100.365
100.327
100.291
100.258
100.236
100.21
100.182
100.17
100.159
100.141
100.117
100.092
100.073
100.043
100.145
100.253
100.336
100.389
100.414
100.406
100.38
100.342
100.307
100.27
100.245
100.224
100.194
100.169
100.148
100.122
100.1
100.083
100.061
100.002
100.015
100.065
100.155
100.234
100.291
100.329
100.349
100.339
100.317
100.283
100.244
100.215
100.188
100.157
100.135
100.114
100.097
100.089
100.068
100
100
100.003
100.025
100.078
100.149
100.208
100.249
100.279
100.291
100.283
100.259
100.227
100.198
100.167
100.143
100.127
100.108
100.086
100.055
100
100
100
100.001
100.006
100.031
100.081
100.14
100.186
100.216
100.242
100.243
100.235
100.216
100.188
100.156
100.13
100.104
100.08
100.048
100
100
100
100
100
100.001
100.008
100.032
100.078
100.129
100.17
100.191
100.21
100.209
100.202
100.183
100.155
100.126
100.101
100.07
100
100
100
100
100
100
100
100.001
100.009
100.031
100.073
100.118
100.156
100.173
100.186
100.184
100.177
100.16
100.136
100.098
100
100
100
100
100
100
100
100
100
100.001
100.008
100.028
100.065
100.106
100.142
100.16
100.168
100.167
100.162
100.138
100
100
100
100
100
100
100
100
100
100
100
100.001
100.007
100.025
100.056
100.096
100.127
100.148
100.155
100.151
100
100
100
100
100
100
100
100
100
100
100
100
100
100.001
100.005
100.02
100.048
100.085
100.113
100.138
100
100
100
100
100
100
100
100
100
100
100
100
100
100
100
100.001
100.004
100.016
100.04
100.105
100.599
100.654
100.61
100.416
100.142
100.017
100.001
100
100
100
100
100
100
100
100
100.671
100.663
100.518
100.218
100.022
100
100
100
100
100
100
100
100
100
100
100.704
100.635
100.373
100.073
100.002
100
100
100
100
100
100
100
100
100
100
100.72
100.518
100.168
100.009
100
100
100
100
100
100
100
100
100
100
100
100.651
100.284
100.024
100
100
100
100
100
100
100
100
100
100
100
100
100.395
100.038
100
100
100
100
100
100
100
100
100
100
100
100
100
100.043
100
100
100
100
100
100
100
100
100
100
100
100
100
100
99.9995
100
100
100
100
100
100
100
100
100
100
100
100
100
100
100
100
100
100
100
100
100
100
100
100
100
100
100
100
100
100
100
100
100
100
100
100
100
100
100
100
100
100
100
100
100
100
100
100
100
100
100
100
100
100
100
100
100
100
100
100
100
100
100
100
100
100
100
100
100
100
100
100
100
100
100
100
100
100
100
100
100
100
100
100
100
100
100
100
100
100
100
100
100
100
100
100
100
100
100
100
100
100
100
100
100
100
100
100
100
100
100
100
100
100
100
100
100
100
100
100
100
100
100
100
100
100
100
100
100
100
100
100
100
100
100
100
100
100
100
100
100
100
100
100
100
100
100
100
100
100
100
100
100
100
100
100
100
100
100
100
100
100
100
100
100
100
100
100
100
100
100
100
100
100
100
100
100
100
100
100
100
100
100
100
100
100
100
100
100
100
100
100
100
100
100
100
100
100
100
100
100
100
100
100
100
100
100
100
100
100
100
100
100
100
100
100
100
100
100
100
100
100
100
100
100
100
100
100
100
100
100
100
100
100
100
100
100
100
100
100
100
100
100
100
100
100
100
100
100
100
100
100
100
100
100
100
100
100
100
100
100
100
100
100
100
100
100
100
100
100
100
100
100
100
100
100
100
100
100
100
100
100
100
100
100
100
100
100
100
100
100
100
100
100
100
100
100
100
100
100
100
100
100
100
100
100
100
100
100
100
100
100
100
100
100
100
100
100
100
100
100
100
100
100
100
100
100
100
100
100
100
100
100
100
100
100
100
100
100
100
100
100
100
100
100
100
100
100
100
100
100
100
100
100
100
100
100
100
100
100
100
100
100
100
100
100
100
100
100
100
100
100
100
100
100
100
100
100
100
100
100
100
100
100
100
100
100
100
100
100
100
100
100
100
100
100
100
100
100
100
100
100
100
100
100
100
100
100
100
100
100
100
100
100
100
100
100
100
100
100
100
100
100
100
100
100
100
100
100
100
100
100
100
100
100
100
100
100
100
100
100
100
100
100
100
100
100
100
100
100
100
100
100
100
100
100
100
100
100
100
100
100
100
100
100
100
100
100
100
100
100
100
100
100
100
100
100
100
100
100
100
100
100
100
100
100
100
100
100
100
100
100
100
100
100
100
100
100
100
100
100
100
100
100
100
100
100
100
100
100
100
100
100
100
100
100
100
100
100
100
100
100
100
100
100
100
100
100
100
100
100
100
100
100
100
100
100
100
100
100
100
100
100
100
100
100
100
100
100
100
100
100
100
100
100
100
100
100
100
100
100
100
100
100
100
100
100
100
100
100
100
100
100
100
100
100
100
100
100
100
100
100
100
100
100
100
100
100
100
100
100
100
100
100
100
100
100
100
100
100
100
100
100
100
100
100
100
100
100
100
100
100
100
100
100
100
100
100
100
100
100
100
100
100
100
100
100
100
100
100
100
100
100
100
100
100
100
100
100
100
100
100
100
100
100
100
100
100
100
100
100
100
100
100
100
100
100
100
100
100
100
100
100
100
100
100
100
100
100
100
100
100
100
100
100
100
100
100
100
100
100
100
100
100
100
100
100
100
100
100
100
100
100
100
100
100
100
100
100
100
100
100
100
100
100
100
100
100
100
100
100
100
100
100
100
100
100
100
100
100
100
100
100
100
100
100
100
100
100
100
100
100
100
100
100
100
100
100
100
100
100
100
100
100
100
100
100
100
100
100
100
100
100
100
100
100
100
100
100
100
100
100
100
100
100
100
100
100
100
100
100
100
100
100
100
100
100
100
100
100
100
100
100
100
100
100
100
100
100
100
100
100
100
100
100
100
100
100
100
100
100
100
100
100
100
100
100
100
100
100
100
100
100
100
100
100
100
100
100
100
100
100
100
100
100
100
100
100
100
100
100
100
100
100
100
100
100
100
100
100
100
100
100
100
100
100
100
100
100
100
100
100
100
100
100
100
100
100
100
100
100
100
100
100
100
100
100
100
100
100
100
100
100
100
99.9995
100
100
100
100
100
100
100
100
100
100
100
100
100
100
100.043
100
100
100
100
100
100
100
100
100
100
100
100
100
100
100.395
100.038
100
100
100
100
100
100
100
100
100
100
100
100
100
100.651
100.284
100.024
100
100
100
100
100
100
100
100
100
100
100
100
100.72
100.518
100.168
100.009
100
100
100
100
100
100
100
100
100
100
100
100.704
100.635
100.372
100.073
100.002
100
100
100
100
100
100
100
100
100
100
100.671
100.663
100.518
100.217
100.022
100
100
100
100
100
100
100
100
100
100
100.599
100.654
100.61
100.416
100.142
100.017
100.001
100
100
100
100
100
100
100
100
100.534
100.621
100.609
100.488
100.25
100.043
100.002
100
100
100
100
100
100
100
100
100.435
100.547
100.589
100.547
100.377
100.145
100.015
100
100
100
100
100
100
100
100
100.397
100.465
100.542
100.541
100.446
100.253
100.065
100.003
100
100
100
100
100
100
100
100.378
100.417
100.472
100.517
100.483
100.336
100.155
100.025
100.001
100
100
100
100
100
100
100.359
100.402
100.421
100.466
100.474
100.389
100.234
100.079
100.006
100
100
100
100
100
100
100.321
100.377
100.391
100.418
100.447
100.414
100.291
100.149
100.031
100.001
100
100
100
100
100
100.283
100.331
100.35
100.38
100.41
100.406
100.329
100.208
100.081
100.008
100
100
100
100
100
100.271
100.294
100.313
100.345
100.363
100.38
100.348
100.249
100.14
100.032
100.001
100
100
100
100
100.259
100.267
100.284
100.318
100.327
100.343
100.339
100.279
100.186
100.078
100.009
100
100
100
100
100.244
100.245
100.268
100.29
100.291
100.306
100.317
100.291
100.216
100.129
100.031
100.001
100
100
100
100.232
100.236
100.259
100.265
100.257
100.27
100.283
100.283
100.241
100.169
100.073
100.008
100
100
100
100.218
100.23
100.244
100.237
100.233
100.246
100.247
100.259
100.244
100.191
100.118
100.028
100.001
100
100
100.197
100.212
100.222
100.209
100.206
100.222
100.217
100.228
100.235
100.21
100.155
100.065
100.007
100
100
100.175
100.189
100.197
100.185
100.186
100.193
100.186
100.199
100.217
100.209
100.173
100.106
100.025
100.001
100
100.176
100.165
100.176
100.172
100.178
100.17
100.156
100.167
100.188
100.202
100.186
100.142
100.056
100.005
100
100.22
100.156
100.155
100.155
100.165
100.147
100.133
100.145
100.156
100.183
100.184
100.16
100.096
100.02
100.001
100.308
100.17
100.143
100.134
100.143
100.121
100.111
100.127
100.129
100.155
100.177
100.168
100.127
100.048
100.004
100.363
100.221
100.13
100.114
100.118
100.098
100.095
100.106
100.104
100.126
100.16
100.167
100.148
100.085
100.016
100.375
100.276
100.143
100.1
100.093
100.083
100.088
100.084
100.08
100.102
100.137
100.162
100.155
100.113
100.041
100.38
100.32
100.219
100.107
100.074
100.063
100.068
100.055
100.048
100.07
100.098
100.138
100.151
100.138
100.105
100.426
100.397
100.376
100.344
100.304
100.274
100.251
100.247
100.242
100.23
100.215
100.195
100.18
100.186
100.265
100.353
100.38
100.407
100.418
100.414
100.358
100.343
100.327
100.294
100.262
100.247
100.239
100.236
100.231
100.217
100.201
100.182
100.198
100.297
100.379
100.418
100.412
100.42
100.431
100.431
100.295
100.29
100.279
100.249
100.224
100.219
100.221
100.219
100.214
100.204
100.19
100.213
100.32
100.395
100.426
100.443
100.441
100.439
100.444
100.446
100.238
100.242
100.229
100.191
100.178
100.183
100.192
100.2
100.199
100.197
100.244
100.342
100.415
100.449
100.458
100.462
100.463
100.459
100.46
100.465
100.186
100.188
100.184
100.16
100.147
100.15
100.164
100.171
100.211
100.302
100.388
100.429
100.457
100.476
100.482
100.484
100.487
100.488
100.49
100.496
100.124
100.14
100.142
100.129
100.116
100.12
100.156
100.255
100.386
100.452
100.462
100.48
100.5
100.515
100.523
100.525
100.53
100.536
100.544
100.552
100.071
100.091
100.091
100.084
100.097
100.194
100.361
100.46
100.5
100.526
100.538
100.559
100.574
100.59
100.598
100.6
100.605
100.616
100.626
100.633
100.025
100.07
100.195
100.282
100.403
100.514
100.584
100.641
100.649
100.649
100.657
100.678
100.695
100.705
100.707
100.705
100.705
100.712
100.719
100.72
100.561
100.646
100.713
100.727
100.761
100.803
100.814
100.813
100.8
100.793
100.796
100.806
100.81
100.806
100.799
100.792
100.788
100.788
100.787
100.782
101.043
101.026
101.002
100.986
100.965
100.95
100.926
100.896
100.876
100.871
100.871
100.867
100.857
100.845
100.835
100.828
100.822
100.816
100.811
100.804
)
;

boundaryField
{
    inlet
    {
        type            fixedValue;
        value           uniform 100;
    }
    outlet
    {
        type            inletOutlet;
        inletValue      uniform 100;
        value           nonuniform List<scalar> 
50
(
100.379
100.319
100.221
100.108
100.073
100.061
100.068
100.055
100.048
100.07
100.098
100.138
100.151
100.138
100.105
100.805
100.783
100.721
100.632
100.55
100.495
100.464
100.446
100.43
100.413
100.414
100.431
100.446
100.465
100.496
100.552
100.633
100.72
100.782
100.804
100.38
100.32
100.219
100.107
100.074
100.063
100.068
100.055
100.048
100.07
100.098
100.138
100.151
100.138
100.106
)
;
    }
    airfoil
    {
        type            zeroGradient;
    }
    top
    {
        type            symmetryPlane;
    }
    bottom
    {
        type            symmetryPlane;
    }
    defaultFaces
    {
        type            empty;
    }
}


// ************************************************************************* //
