/*--------------------------------*- C++ -*----------------------------------*\
  =========                 |
  \\      /  F ield         | OpenFOAM: The Open Source CFD Toolbox
   \\    /   O peration     | Website:  https://openfoam.org
    \\  /    A nd           | Version:  7
     \\/     M anipulation  |
\*---------------------------------------------------------------------------*/
FoamFile
{
    version     2.0;
    format      ascii;
    class       volVectorField;
    location    "9.8";
    object      U;
}
// * * * * * * * * * * * * * * * * * * * * * * * * * * * * * * * * * * * * * //

dimensions      [0 1 -1 0 0 0 0];

internalField   nonuniform List<vector> 
3700
(
(1.46287 -0.467311 0)
(1.23609 -0.612637 0)
(1.21754 -0.340263 0)
(1.29397 -0.276515 0)
(1.44297 -0.337045 0)
(1.53626 -0.271658 0)
(1.56526 -0.120525 0)
(1.58956 -0.0869054 0)
(1.5847 -0.132113 0)
(1.59024 -0.237256 0)
(1.5696 -0.292819 0)
(1.53697 -0.220227 0)
(1.59641 -0.156234 0)
(1.65356 -0.201521 0)
(1.73313 -0.26429 0)
(1.74826 -0.248416 0)
(1.74125 -0.175354 0)
(1.78693 -0.128394 0)
(1.81784 -0.143185 0)
(1.87377 -0.249197 0)
(1.58039 -1.35773 0)
(1.46012 -1.45134 0)
(1.48654 -1.2785 0)
(1.65469 -1.13935 0)
(1.78144 -1.29759 0)
(1.82629 -1.30006 0)
(1.79608 -1.08453 0)
(1.79616 -1.06203 0)
(1.87317 -1.20527 0)
(1.94644 -1.51591 0)
(1.89622 -1.62575 0)
(1.84355 -1.42915 0)
(1.90711 -1.30671 0)
(2.01579 -1.34102 0)
(2.11472 -1.34868 0)
(2.16886 -1.27841 0)
(2.20389 -1.1223 0)
(2.25612 -0.985202 0)
(2.32518 -0.977157 0)
(2.44137 -1.17699 0)
(1.38619 -1.38175 0)
(1.50765 -1.62468 0)
(1.62077 -1.74554 0)
(1.68624 -1.90711 0)
(1.78486 -2.08992 0)
(1.8787 -2.20565 0)
(1.94602 -2.16347 0)
(1.98675 -2.19181 0)
(2.07978 -2.18699 0)
(2.15273 -2.16115 0)
(2.18026 -2.18657 0)
(2.21658 -2.08601 0)
(2.24957 -1.98508 0)
(2.26473 -1.93679 0)
(2.31791 -1.84373 0)
(2.40777 -1.79143 0)
(2.50188 -1.71304 0)
(2.61492 -1.64816 0)
(2.69857 -1.5534 0)
(2.75253 -1.51683 0)
(1.28243 -1.39028 0)
(1.45861 -1.67914 0)
(1.62953 -1.98545 0)
(1.68954 -2.1957 0)
(1.76096 -2.28644 0)
(1.77337 -2.36554 0)
(1.92595 -2.19662 0)
(2.04455 -2.13418 0)
(2.2087 -1.94168 0)
(2.33659 -1.92805 0)
(2.4846 -1.79228 0)
(2.52776 -1.81977 0)
(2.5486 -1.78861 0)
(2.46822 -1.82174 0)
(2.4536 -1.7477 0)
(2.4743 -1.70427 0)
(2.51188 -1.58605 0)
(2.58298 -1.47661 0)
(2.66864 -1.37176 0)
(2.79199 -1.18453 0)
(1.19064 -1.41655 0)
(1.44063 -1.86483 0)
(1.70125 -2.11932 0)
(1.77134 -2.24124 0)
(1.92226 -2.28314 0)
(1.95157 -2.40887 0)
(2.10155 -2.2154 0)
(2.10473 -2.14452 0)
(2.16629 -1.96141 0)
(2.25048 -1.88261 0)
(2.3961 -1.71839 0)
(2.57197 -1.6218 0)
(2.68258 -1.43423 0)
(2.70216 -1.42259 0)
(2.69695 -1.39511 0)
(2.64967 -1.46043 0)
(2.61372 -1.42851 0)
(2.60692 -1.3233 0)
(2.63284 -1.34447 0)
(2.69828 -1.14175 0)
(1.20109 -1.46762 0)
(1.52222 -1.9886 0)
(1.85419 -2.2022 0)
(2.01903 -2.2201 0)
(2.17983 -2.17149 0)
(2.22479 -2.26317 0)
(2.29339 -2.15686 0)
(2.31224 -2.04403 0)
(2.2438 -1.94862 0)
(2.2589 -1.83613 0)
(2.3399 -1.68923 0)
(2.50486 -1.58839 0)
(2.57926 -1.45318 0)
(2.73548 -1.33899 0)
(2.785 -1.10403 0)
(2.80586 -1.00541 0)
(2.76825 -1.00833 0)
(2.7648 -0.943216 0)
(2.69466 -1.07404 0)
(2.68129 -0.98826 0)
(1.28827 -1.63512 0)
(1.63637 -2.07688 0)
(1.96537 -2.24865 0)
(2.09179 -2.2128 0)
(2.22516 -2.13275 0)
(2.33404 -2.09405 0)
(2.41745 -2.06121 0)
(2.50294 -1.8316 0)
(2.43369 -1.81701 0)
(2.41539 -1.74998 0)
(2.42064 -1.6341 0)
(2.49751 -1.52947 0)
(2.54307 -1.36594 0)
(2.64817 -1.28838 0)
(2.69006 -1.11117 0)
(2.76825 -0.924323 0)
(2.82216 -0.766142 0)
(2.84187 -0.572092 0)
(2.77903 -0.588779 0)
(2.72981 -0.618828 0)
(1.41578 -1.7611 0)
(1.71985 -2.13124 0)
(1.90668 -2.23641 0)
(2.04076 -2.21189 0)
(2.22626 -2.07273 0)
(2.37956 -1.91001 0)
(2.50204 -1.88319 0)
(2.59089 -1.70232 0)
(2.53813 -1.68871 0)
(2.63256 -1.44384 0)
(2.59378 -1.49544 0)
(2.63514 -1.33203 0)
(2.61228 -1.23116 0)
(2.63819 -1.14315 0)
(2.66279 -0.995108 0)
(2.69325 -0.869091 0)
(2.75479 -0.763131 0)
(2.79366 -0.558365 0)
(2.79696 -0.390291 0)
(2.75044 -0.309011 0)
(1.50599 -1.81896 0)
(1.71372 -2.14262 0)
(1.78987 -2.21857 0)
(1.84749 -2.12392 0)
(1.94248 -1.9569 0)
(2.1293 -1.81968 0)
(2.29833 -1.68292 0)
(2.46963 -1.51663 0)
(2.61141 -1.45941 0)
(2.68126 -1.16545 0)
(2.72436 -1.13437 0)
(2.75188 -0.908508 0)
(2.72824 -0.898762 0)
(2.73118 -0.802511 0)
(2.72479 -0.716566 0)
(2.70579 -0.622846 0)
(2.70534 -0.567604 0)
(2.74003 -0.504473 0)
(2.71703 -0.307658 0)
(2.68559 -0.135643 0)
(1.57165 -1.80428 0)
(1.59372 -2.04316 0)
(1.61311 -2.07444 0)
(1.71132 -2.02655 0)
(1.86938 -1.85596 0)
(1.98485 -1.74494 0)
(2.12219 -1.63844 0)
(2.25766 -1.52885 0)
(2.41319 -1.3643 0)
(2.53466 -1.14327 0)
(2.63999 -0.904931 0)
(2.69163 -0.658566 0)
(2.71319 -0.50947 0)
(2.73632 -0.382171 0)
(2.73258 -0.273302 0)
(2.71395 -0.243695 0)
(2.69025 -0.199947 0)
(2.68501 -0.270368 0)
(2.65014 -0.180924 0)
(2.61674 -0.0172077 0)
(1.4866 -1.58602 0)
(1.50591 -1.77544 0)
(1.56268 -1.79766 0)
(1.60947 -1.76801 0)
(1.82453 -1.68751 0)
(2.02275 -1.60812 0)
(2.18122 -1.55851 0)
(2.25912 -1.48061 0)
(2.36645 -1.24465 0)
(2.43777 -1.11715 0)
(2.53413 -0.913958 0)
(2.6018 -0.701681 0)
(2.6445 -0.477837 0)
(2.71069 -0.32157 0)
(2.66717 -0.068525 0)
(2.65354 0.0406592 0)
(2.61723 0.173422 0)
(2.59359 0.0990442 0)
(2.5505 0.124767 0)
(2.58322 0.0512119 0)
(1.30833 -1.32564 0)
(1.45872 -1.476 0)
(1.64317 -1.58128 0)
(1.67569 -1.56349 0)
(1.81962 -1.64622 0)
(2.07009 -1.44613 0)
(2.35405 -1.29158 0)
(2.4945 -1.21664 0)
(2.56023 -0.883058 0)
(2.56245 -0.822318 0)
(2.59227 -0.613067 0)
(2.60602 -0.448982 0)
(2.6022 -0.289728 0)
(2.63182 -0.194256 0)
(2.58888 -0.00288914 0)
(2.59286 0.0960957 0)
(2.53152 0.28709 0)
(2.48261 0.365383 0)
(2.42769 0.403332 0)
(2.4639 0.312836 0)
(1.13252 -1.10022 0)
(1.34433 -1.20644 0)
(1.64484 -1.46004 0)
(1.7988 -1.43412 0)
(1.89798 -1.60818 0)
(2.48231 -1.12288 0)
(2.75207 -1.01611 0)
(2.77193 -0.49748 0)
(2.70442 -0.303512 0)
(2.6587 -0.204222 0)
(2.64421 -0.0630609 0)
(2.60905 0.0709685 0)
(2.57492 0.160428 0)
(2.54585 0.227075 0)
(2.50015 0.288342 0)
(2.47783 0.301734 0)
(2.43221 0.368739 0)
(2.37435 0.478805 0)
(2.30161 0.595343 0)
(2.29536 0.575763 0)
(0.963094 -0.915783 0)
(1.25389 -1.03041 0)
(1.627 -1.4006 0)
(1.96831 -1.35881 0)
(2.50407 -1.15769 0)
(2.63061 -0.906796 0)
(2.64281 -0.869759 0)
(2.60915 -0.381738 0)
(2.58733 -0.275532 0)
(2.574 -0.0354496 0)
(2.57043 0.146956 0)
(2.49232 0.360201 0)
(2.44759 0.479785 0)
(2.38049 0.595696 0)
(2.33557 0.636218 0)
(2.29784 0.643842 0)
(2.25736 0.662098 0)
(2.24431 0.664151 0)
(2.17985 0.741376 0)
(2.13696 0.784026 0)
(0.778083 -0.76133 0)
(1.23829 -0.940597 0)
(1.87436 -1.14206 0)
(2.56246 -0.969939 0)
(2.43601 -0.884346 0)
(2.45185 -0.825399 0)
(2.46739 -0.479665 0)
(2.45952 -0.231565 0)
(2.44361 -0.0462224 0)
(2.45498 0.128353 0)
(2.42257 0.327186 0)
(2.34628 0.512638 0)
(2.29551 0.632798 0)
(2.21962 0.751616 0)
(2.16469 0.812112 0)
(2.11564 0.845694 0)
(2.06146 0.905263 0)
(2.05467 0.908168 0)
(2.04029 0.929013 0)
(2.06288 0.950571 0)
(0.626462 -0.562604 0)
(1.29089 -0.954404 0)
(2.47621 -0.594484 0)
(2.28009 -0.88341 0)
(2.33412 -0.613236 0)
(2.44582 -0.344208 0)
(2.3977 0.140462 0)
(2.37527 0.321553 0)
(2.31738 0.467385 0)
(2.30617 0.58861 0)
(2.21458 0.739192 0)
(2.1359 0.842994 0)
(2.07985 0.900816 0)
(2.02685 0.952079 0)
(1.99301 0.957506 0)
(1.95945 0.9807 0)
(1.95453 1.01382 0)
(1.96819 0.998409 0)
(1.99237 0.998556 0)
(2.06958 0.981089 0)
(1.05277 -0.499304 0)
(1.83659 -0.434838 0)
(2.18601 -0.784893 0)
(2.29194 -0.20473 0)
(2.37454 0.049923 0)
(2.30932 0.42611 0)
(2.28534 0.542821 0)
(2.19131 0.710519 0)
(2.13207 0.801914 0)
(2.07935 0.921293 0)
(1.97397 1.02289 0)
(1.90896 1.07529 0)
(1.87573 1.09152 0)
(1.86463 1.09318 0)
(1.87194 1.05568 0)
(1.90013 1.04511 0)
(1.96435 1.01776 0)
(2.16381 0.900774 0)
(2.37787 0.79366 0)
(2.77422 0.447367 0)
(1.10678 -0.0810103 0)
(1.85587 -0.0554907 0)
(2.26485 0.145015 0)
(2.22972 0.551805 0)
(2.1957 0.665389 0)
(2.14057 0.767957 0)
(2.03115 0.90698 0)
(1.96366 0.964432 0)
(1.91487 1.02926 0)
(1.85967 1.11687 0)
(1.79475 1.15651 0)
(1.79008 1.15071 0)
(1.80672 1.13154 0)
(1.8457 1.08969 0)
(2.03683 0.95418 0)
(2.25824 0.82955 0)
(2.66503 0.503382 0)
(3.0373 0.0908262 0)
(3.05619 -0.0245669 0)
(3.00416 -0.00478157 0)
(1.00738 0.0382665 0)
(1.93314 0.753825 0)
(2.09767 0.867306 0)
(2.01152 0.961816 0)
(1.95478 0.99592 0)
(1.86982 1.08559 0)
(1.78872 1.13452 0)
(1.75768 1.14629 0)
(1.75717 1.16257 0)
(1.73886 1.20387 0)
(1.72445 1.19398 0)
(1.87373 1.06279 0)
(2.09861 0.880606 0)
(2.49436 0.579915 0)
(2.9812 0.140312 0)
(3.07332 -0.028601 0)
(3.00819 -0.00767342 0)
(3.00295 -0.00382474 0)
(3.00124 -0.00219352 0)
(3.00008 -0.00048274 0)
(1.16991 0.758116 0)
(1.82478 1.16019 0)
(1.84534 1.14864 0)
(1.74372 1.19457 0)
(1.71487 1.20128 0)
(1.66092 1.24489 0)
(1.65031 1.21723 0)
(1.72008 1.16737 0)
(1.75034 1.24123 0)
(1.79282 1.15117 0)
(2.2802 0.740399 0)
(2.86285 0.205044 0)
(3.09793 -0.0302659 0)
(3.02104 -0.0127885 0)
(3.00475 -0.00561429 0)
(3.00188 -0.0030729 0)
(3.00005 -0.000589737 0)
(2.99998 -2.17168e-05 0)
(2.99999 1.44787e-05 0)
(3 5.95485e-06 0)
(1.58061 1.25688 0)
(1.58594 1.26132 0)
(1.5957 1.26599 0)
(1.6021 1.2682 0)
(1.60665 1.26213 0)
(1.59357 1.26752 0)
(1.87379 1.17659 0)
(2.95004 0.412977 0)
(3.37493 -0.657873 0)
(3 6.38992e-11 0)
(3 -7.61347e-11 0)
(3 7.91577e-11 0)
(3 5.28831e-15 0)
(3 -4.22583e-13 0)
(3 -1.42526e-14 0)
(3 1.10513e-14 0)
(3 -1.15185e-14 0)
(3 -2.67949e-15 0)
(3 -2.74317e-15 0)
(3 -3.58649e-15 0)
(1.57788 1.24114 0)
(1.59329 1.25268 0)
(1.60627 1.26252 0)
(1.60868 1.27427 0)
(1.63833 1.26622 0)
(1.74382 1.19924 0)
(2.24617 0.742539 0)
(2.99443 0.0156919 0)
(3 5.91031e-08 0)
(3 -3.16403e-11 0)
(3 -7.68497e-15 0)
(3 2.9987e-15 0)
(3 -2.99141e-15 0)
(3 -2.85969e-17 0)
(3 -2.45753e-15 0)
(3 -2.36505e-15 0)
(3 -1.60333e-15 0)
(3 -1.67977e-15 0)
(3 -1.81928e-15 0)
(3 -1.9523e-15 0)
(1.57928 1.24722 0)
(1.60354 1.25325 0)
(1.61698 1.2581 0)
(1.61049 1.26988 0)
(1.7401 1.19774 0)
(2.25334 0.776112 0)
(3.00675 -0.0117829 0)
(2.99996 -0.000267115 0)
(3 7.12216e-07 0)
(3 5.88445e-11 0)
(3 -5.17652e-14 0)
(3 -1.2884e-15 0)
(3 -1.45735e-15 0)
(3 -1.86202e-15 0)
(3 -3.35416e-15 0)
(3 -2.83639e-15 0)
(3 -1.534e-15 0)
(3 -2.01973e-15 0)
(3 -1.68983e-15 0)
(3 -1.21683e-15 0)
(1.58117 1.25217 0)
(1.60208 1.2568 0)
(1.62485 1.26387 0)
(1.62564 1.28045 0)
(1.89915 1.06477 0)
(2.76636 0.211014 0)
(3.00414 0.000112738 0)
(2.99993 5.79024e-05 0)
(3 -8.66213e-07 0)
(3 8.75906e-10 0)
(3 -1.66975e-14 0)
(3 -1.39406e-15 0)
(3 -2.27909e-15 0)
(3 -2.0293e-15 0)
(3 -3.31516e-15 0)
(3 -2.04689e-15 0)
(3 -1.51694e-15 0)
(3 -1.42617e-15 0)
(3 -1.55075e-15 0)
(3 -7.94879e-16 0)
(1.58203 1.26674 0)
(1.59476 1.27168 0)
(1.62538 1.26808 0)
(1.62835 1.28025 0)
(2.31111 0.67021 0)
(3.02176 -0.0194005 0)
(2.99972 0.000100398 0)
(3 -4.03527e-06 0)
(3 8.0415e-08 0)
(3 -8.98009e-10 0)
(3 1.88463e-13 0)
(3 -1.06785e-15 0)
(3 -2.24869e-15 0)
(3 -3.32362e-15 0)
(3 -2.20288e-15 0)
(3 -3.16975e-15 0)
(3 -2.53846e-15 0)
(3 -1.45825e-15 0)
(3 -1.51819e-15 0)
(3 -8.38278e-16 0)
(1.58249 1.28411 0)
(1.58791 1.28777 0)
(1.64478 1.26139 0)
(1.81468 1.1272 0)
(2.69423 0.253712 0)
(3 -5.95447e-10 0)
(3 1.3802e-08 0)
(3 -1.24055e-08 0)
(3 5.25865e-10 0)
(3 2.10161e-12 0)
(3 -9.9603e-14 0)
(3 4.37592e-16 0)
(3 -2.23678e-15 0)
(3 -3.11969e-15 0)
(3 -1.89428e-15 0)
(3 -2.86782e-15 0)
(3 -2.21138e-15 0)
(3 -2.85835e-15 0)
(3 -2.51977e-15 0)
(3 -1.82161e-15 0)
(1.58427 1.29848 0)
(1.55263 1.30306 0)
(1.68092 1.22472 0)
(2.18204 0.816996 0)
(3.02306 -0.0215747 0)
(3 -6.59723e-12 0)
(3 3.2526e-12 0)
(3 4.56629e-12 0)
(3 -2.75437e-12 0)
(3 1.56823e-14 0)
(3 1.46907e-15 0)
(3 -1.08694e-16 0)
(3 -1.37184e-15 0)
(3 -2.02467e-15 0)
(3 -2.0504e-15 0)
(3 -2.58565e-15 0)
(3 -2.84001e-15 0)
(3 -3.47734e-15 0)
(3 -2.61055e-15 0)
(3 -2.79815e-15 0)
(1.5952 1.33116 0)
(1.50145 1.33524 0)
(1.72233 1.19086 0)
(2.38091 0.55558 0)
(3 -4.94419e-08 0)
(3 1.86885e-11 0)
(3 -5.00753e-14 0)
(3 -1.80825e-15 0)
(3 6.61024e-15 0)
(3 1.53884e-15 0)
(3 1.46892e-15 0)
(3 9.81702e-16 0)
(3 -7.77545e-16 0)
(3 -1.9895e-15 0)
(3 -2.63605e-15 0)
(3 -2.68024e-15 0)
(3 -2.79106e-15 0)
(3 -3.04447e-15 0)
(3 -2.93695e-15 0)
(3 -3.25408e-15 0)
(1.5863 1.30081 0)
(1.47593 1.3402 0)
(1.99845 1.02044 0)
(2.89332 0.100875 0)
(3 -7.75877e-09 0)
(3 4.74478e-11 0)
(3 -1.12136e-13 0)
(3 3.41675e-15 0)
(3 2.21314e-15 0)
(3 2.27215e-15 0)
(3 1.60065e-15 0)
(3 1.22303e-15 0)
(3 7.46439e-16 0)
(3 -4.05168e-16 0)
(3 -1.95609e-15 0)
(3 -2.47628e-15 0)
(3 -2.40179e-15 0)
(3 -2.80603e-15 0)
(3 -4.18728e-15 0)
(3 -3.70682e-15 0)
(1.59927 1.2912 0)
(1.46901 1.38839 0)
(2.15767 0.835309 0)
(3.01046 -0.00832522 0)
(3 3.04436e-08 0)
(3 -5.29071e-11 0)
(3 1.12998e-13 0)
(3 9.81005e-16 0)
(3 2.69477e-15 0)
(3 2.74078e-15 0)
(3 2.25281e-15 0)
(3 2.07508e-15 0)
(3 1.5511e-15 0)
(3 4.45177e-16 0)
(3 -1.48235e-15 0)
(3 -1.67703e-15 0)
(3 -1.9277e-15 0)
(3 -1.90594e-15 0)
(3 -3.12842e-15 0)
(3 -3.21839e-15 0)
(1.6179 1.28066 0)
(1.55312 1.32776 0)
(2.40237 0.558507 0)
(3 -4.29981e-12 0)
(3 -2.24847e-11 0)
(3 4.02433e-13 0)
(3 -4.30223e-15 0)
(3 5.0158e-16 0)
(3 1.4425e-15 0)
(3 2.15412e-15 0)
(3 2.38939e-15 0)
(3 2.36118e-15 0)
(3 1.96677e-15 0)
(3 1.12136e-15 0)
(3 -3.49127e-16 0)
(3 -1.49641e-15 0)
(3 -1.6214e-15 0)
(3 -1.66308e-15 0)
(3 -1.46026e-15 0)
(3 -1.42408e-15 0)
(1.63651 1.267 0)
(1.65639 1.23494 0)
(2.65307 0.289532 0)
(3 1.93278e-12 0)
(3 -2.22528e-13 0)
(3 -6.35268e-15 0)
(3 -1.91552e-15 0)
(3 -2.05616e-15 0)
(3 -9.96656e-16 0)
(3 3.30462e-16 0)
(3 8.53745e-16 0)
(3 1.96068e-15 0)
(3 2.24988e-15 0)
(3 1.52471e-15 0)
(3 9.89222e-16 0)
(3 1.21434e-16 0)
(3 -1.14605e-15 0)
(3 -1.52483e-15 0)
(3 -1.51079e-15 0)
(3 -1.83931e-15 0)
(1.65285 1.2372 0)
(1.80292 1.103 0)
(2.86447 0.0991445 0)
(3 -5.5261e-15 0)
(3 -3.70729e-15 0)
(3 -3.46958e-15 0)
(3 -2.91081e-15 0)
(3 -2.15534e-15 0)
(3 -1.75897e-15 0)
(3 -4.9704e-16 0)
(3 6.11596e-16 0)
(3 1.75416e-15 0)
(3 2.37242e-15 0)
(3 2.3528e-15 0)
(3 2.17803e-15 0)
(3 1.42669e-15 0)
(3 5.17481e-16 0)
(3 6.3101e-17 0)
(3 -5.94874e-16 0)
(3 -1.83664e-15 0)
(1.66861 1.20457 0)
(1.89405 0.973276 0)
(2.98479 0.00910171 0)
(3 -4.5218e-15 0)
(3 -3.95869e-15 0)
(3 -3.93246e-15 0)
(3 -3.24013e-15 0)
(3 -2.96111e-15 0)
(3 -2.11078e-15 0)
(3 -1.55803e-15 0)
(3 -8.91354e-16 0)
(3 2.12959e-16 0)
(3 3.86772e-16 0)
(3 1.10771e-15 0)
(3 1.41263e-15 0)
(3 1.50249e-15 0)
(3 1.43415e-15 0)
(3 1.34582e-15 0)
(3 1.17386e-15 0)
(3 1.04329e-15 0)
(1.73372 1.16915 0)
(2.07591 0.816395 0)
(3 -5.57771e-15 0)
(3 -3.94521e-15 0)
(3 -3.36272e-15 0)
(3 -3.25427e-15 0)
(3 -3.85377e-15 0)
(3 -4.1373e-15 0)
(3 -4.53336e-15 0)
(3 -4.7734e-15 0)
(3 -4.01089e-15 0)
(3 -2.94788e-15 0)
(3 -2.27702e-15 0)
(3 -1.73822e-15 0)
(3 -1.19234e-15 0)
(3 -9.62804e-16 0)
(3 -3.95565e-16 0)
(3 4.22045e-17 0)
(3 7.76024e-16 0)
(3 1.4264e-15 0)
(1.75253 1.09518 0)
(2.2267 0.65473 0)
(3 -5.21921e-15 0)
(3 -4.24111e-15 0)
(3 -3.56114e-15 0)
(3 -2.77857e-15 0)
(3 -2.78673e-15 0)
(3 -3.48189e-15 0)
(3 -4.40467e-15 0)
(3 -4.6006e-15 0)
(3 -3.94427e-15 0)
(3 -2.82598e-15 0)
(3 -2.90963e-15 0)
(3 -2.75575e-15 0)
(3 -2.55044e-15 0)
(3 -2.12536e-15 0)
(3 -1.7149e-15 0)
(3 -1.5763e-15 0)
(3 -1.30309e-15 0)
(3 -4.06221e-16 0)
(1.80259 1.01308 0)
(2.41954 0.459489 0)
(3 -6.10156e-15 0)
(3 -4.34203e-15 0)
(3 -3.90959e-15 0)
(3 -3.2943e-15 0)
(3 -2.94724e-15 0)
(3 -2.89686e-15 0)
(3 -3.02846e-15 0)
(3 -2.95202e-15 0)
(3 -3.13759e-15 0)
(3 -3.16967e-15 0)
(3 -3.10882e-15 0)
(3 -3.3886e-15 0)
(3 -3.86945e-15 0)
(3 -3.57353e-15 0)
(3 -3.34029e-15 0)
(3 -2.67582e-15 0)
(3 -2.08558e-15 0)
(3 -9.96146e-16 0)
(1.94588 0.887086 0)
(2.70234 0.217716 0)
(3 -2.0046e-15 0)
(3 -1.81395e-16 0)
(3 1.83191e-16 0)
(3 2.42693e-16 0)
(3 3.28024e-16 0)
(3 6.77872e-17 0)
(3 -5.898e-16 0)
(3 -9.70978e-16 0)
(3 -8.86705e-16 0)
(3 -6.8928e-16 0)
(3 -3.94024e-16 0)
(3 -3.39623e-16 0)
(3 -5.45964e-16 0)
(3 -8.75247e-16 0)
(3 -9.97021e-16 0)
(3 -1.07202e-15 0)
(3 -1.30956e-15 0)
(3 -1.06589e-15 0)
(2.10431 0.645061 0)
(2.99095 0.000261107 0)
(3 5.95355e-16 0)
(3 -6.15724e-16 0)
(3 -3.80262e-16 0)
(3 -4.192e-16 0)
(3 -3.12603e-16 0)
(3 -9.07646e-16 0)
(3 -1.04133e-15 0)
(3 -1.12292e-15 0)
(3 -9.41813e-16 0)
(3 -3.66303e-16 0)
(3 -2.25825e-16 0)
(3 1.82023e-16 0)
(3 4.95116e-16 0)
(3 7.08875e-16 0)
(3 7.61749e-16 0)
(3 7.95083e-16 0)
(3 6.49122e-16 0)
(3 6.43903e-16 0)
(1.99537 0.375145 0)
(2.99994 -7.79647e-06 0)
(3 -5.8976e-16 0)
(3 -5.46314e-16 0)
(3 -2.69428e-16 0)
(3 -2.26223e-16 0)
(3 -1.90765e-16 0)
(3 -7.00597e-17 0)
(3 -1.12862e-16 0)
(3 -8.19107e-17 0)
(3 -9.36976e-17 0)
(3 1.4063e-16 0)
(3 7.07557e-16 0)
(3 1.08863e-15 0)
(3 1.60557e-15 0)
(3 1.84049e-15 0)
(3 2.07559e-15 0)
(3 2.30347e-15 0)
(3 2.53201e-15 0)
(3 2.24339e-15 0)
(1.99485 -0.376294 0)
(2.99994 7.0764e-06 0)
(3 -1.28817e-15 0)
(3 -1.10829e-15 0)
(3 -1.01217e-15 0)
(3 -5.29592e-16 0)
(3 7.92441e-17 0)
(3 1.35638e-15 0)
(3 1.40393e-15 0)
(3 1.2948e-15 0)
(3 1.47e-15 0)
(3 1.63965e-15 0)
(3 1.75291e-15 0)
(3 1.8242e-15 0)
(3 1.92091e-15 0)
(3 2.10725e-15 0)
(3 2.49797e-15 0)
(3 2.91138e-15 0)
(3 3.18903e-15 0)
(3 3.0782e-15 0)
(2.10295 -0.641596 0)
(2.99134 -0.000275191 0)
(3 -5.30368e-17 0)
(3 3.57077e-16 0)
(3 7.14565e-16 0)
(3 8.43043e-16 0)
(3 1.43839e-15 0)
(3 2.34839e-15 0)
(3 2.61423e-15 0)
(3 2.53307e-15 0)
(3 2.05173e-15 0)
(3 2.14799e-15 0)
(3 2.33121e-15 0)
(3 2.54442e-15 0)
(3 2.85902e-15 0)
(3 2.83379e-15 0)
(3 2.70447e-15 0)
(3 2.52819e-15 0)
(3 2.51728e-15 0)
(3 2.46279e-15 0)
(1.95199 -0.886811 0)
(2.70743 -0.214755 0)
(3 2.48492e-15 0)
(3 3.36619e-15 0)
(3 3.53182e-15 0)
(3 3.467e-15 0)
(3 4.03018e-15 0)
(3 4.07641e-15 0)
(3 3.76854e-15 0)
(3 3.30289e-15 0)
(3 2.59484e-15 0)
(3 2.45968e-15 0)
(3 2.59362e-15 0)
(3 3.14806e-15 0)
(3 3.42807e-15 0)
(3 3.38255e-15 0)
(3 2.95238e-15 0)
(3 2.62558e-15 0)
(3 2.00508e-15 0)
(3 1.27244e-15 0)
(1.80629 -1.01395 0)
(2.41821 -0.460681 0)
(3 5.21281e-15 0)
(3 5.06773e-15 0)
(3 5.07126e-15 0)
(3 4.60238e-15 0)
(3 4.78445e-15 0)
(3 5.05162e-15 0)
(3 5.48194e-15 0)
(3 5.24494e-15 0)
(3 5.28436e-15 0)
(3 5.63964e-15 0)
(3 5.70619e-15 0)
(3 5.60925e-15 0)
(3 4.52707e-15 0)
(3 4.17214e-15 0)
(3 2.8297e-15 0)
(3 2.09861e-15 0)
(3 1.25886e-15 0)
(3 5.5081e-16 0)
(1.74332 -1.09799 0)
(2.21954 -0.65769 0)
(3 4.60272e-15 0)
(3 5.19622e-15 0)
(3 4.2816e-15 0)
(3 4.06511e-15 0)
(3 4.20787e-15 0)
(3 4.72613e-15 0)
(3 4.80286e-15 0)
(3 4.71065e-15 0)
(3 4.75122e-15 0)
(3 4.66751e-15 0)
(3 4.18016e-15 0)
(3 3.96286e-15 0)
(3 3.29291e-15 0)
(3 2.4865e-15 0)
(3 1.53789e-15 0)
(3 4.75411e-16 0)
(3 4.14933e-17 0)
(3 -2.92708e-16 0)
(1.73495 -1.1673 0)
(2.07393 -0.819154 0)
(3 3.95734e-15 0)
(3 2.39569e-15 0)
(3 2.79122e-15 0)
(3 3.05391e-15 0)
(3 3.647e-15 0)
(3 3.74363e-15 0)
(3 3.24835e-15 0)
(3 2.29306e-15 0)
(3 2.36721e-15 0)
(3 2.166e-15 0)
(3 1.56875e-15 0)
(3 1.58612e-15 0)
(3 5.71092e-16 0)
(3 3.67683e-16 0)
(3 -7.01705e-16 0)
(3 -7.0121e-16 0)
(3 -3.5847e-16 0)
(3 -1.99856e-16 0)
(1.67157 -1.20351 0)
(1.90168 -0.970287 0)
(2.99048 -0.00542857 0)
(3 1.26373e-15 0)
(3 2.54622e-15 0)
(3 2.78858e-15 0)
(3 2.54972e-15 0)
(3 2.17657e-15 0)
(3 1.6133e-15 0)
(3 1.27499e-15 0)
(3 9.83885e-16 0)
(3 5.34035e-16 0)
(3 3.68513e-16 0)
(3 3.34921e-16 0)
(3 1.75351e-16 0)
(3 -7.75051e-16 0)
(3 -8.15615e-16 0)
(3 -3.32341e-16 0)
(3 5.40459e-16 0)
(3 1.32419e-15 0)
(1.65308 -1.23786 0)
(1.79825 -1.10212 0)
(2.86586 -0.0961829 0)
(3 3.01979e-14 0)
(3 1.82568e-15 0)
(3 2.75871e-15 0)
(3 2.66789e-15 0)
(3 2.47307e-15 0)
(3 1.80036e-15 0)
(3 6.22002e-16 0)
(3 6.48814e-16 0)
(3 7.15024e-16 0)
(3 7.36295e-16 0)
(3 9.80847e-16 0)
(3 5.9624e-16 0)
(3 8.29632e-16 0)
(3 1.14735e-15 0)
(3 1.73827e-15 0)
(3 2.00614e-15 0)
(3 1.77487e-15 0)
(1.63665 -1.26588 0)
(1.66034 -1.23164 0)
(2.65409 -0.287078 0)
(3 -2.39881e-12 0)
(3 2.27993e-13 0)
(3 5.90119e-15 0)
(3 2.85701e-15 0)
(3 2.58108e-15 0)
(3 1.65318e-15 0)
(3 9.44258e-16 0)
(3 9.16666e-16 0)
(3 1.18577e-15 0)
(3 1.47922e-15 0)
(3 1.63328e-15 0)
(3 1.37882e-15 0)
(3 1.31883e-15 0)
(3 1.71759e-15 0)
(3 1.57984e-15 0)
(3 1.14551e-15 0)
(3 8.73561e-16 0)
(1.61812 -1.28143 0)
(1.55605 -1.32476 0)
(2.40408 -0.554947 0)
(3 4.06653e-12 0)
(3 1.6414e-11 0)
(3 -3.27655e-13 0)
(3 6.1869e-15 0)
(3 2.2907e-15 0)
(3 1.9936e-15 0)
(3 1.44062e-15 0)
(3 1.40115e-15 0)
(3 2.19528e-15 0)
(3 2.32086e-15 0)
(3 2.27659e-15 0)
(3 2.01374e-15 0)
(3 2.14043e-15 0)
(3 2.14051e-15 0)
(3 2.347e-15 0)
(3 2.53784e-15 0)
(3 2.73065e-15 0)
(1.59863 -1.29248 0)
(1.46828 -1.39358 0)
(2.14269 -0.848303 0)
(3.01057 0.0084248 0)
(3 -2.44075e-08 0)
(3 4.82449e-11 0)
(3 -1.22753e-13 0)
(3 3.52013e-15 0)
(3 2.71434e-15 0)
(3 2.99233e-15 0)
(3 2.71215e-15 0)
(3 3.2617e-15 0)
(3 3.37209e-15 0)
(3 2.98867e-15 0)
(3 2.84678e-15 0)
(3 2.97714e-15 0)
(3 2.7643e-15 0)
(3 3.29386e-15 0)
(3 3.46788e-15 0)
(3 4.78145e-15 0)
(1.58458 -1.30019 0)
(1.47432 -1.33693 0)
(2.00999 -1.02206 0)
(2.89872 -0.100837 0)
(3 5.57378e-09 0)
(3 -2.83705e-11 0)
(3 1.20363e-13 0)
(3 2.421e-15 0)
(3 3.17226e-15 0)
(3 3.7089e-15 0)
(3 3.36831e-15 0)
(3 3.64982e-15 0)
(3 3.0899e-15 0)
(3 3.35587e-15 0)
(3 2.9989e-15 0)
(3 2.35243e-15 0)
(3 2.60632e-15 0)
(3 3.67046e-15 0)
(3 4.21929e-15 0)
(3 4.96485e-15 0)
(1.59391 -1.32939 0)
(1.5022 -1.33308 0)
(1.72328 -1.19169 0)
(2.38221 -0.554527 0)
(3 3.23331e-08 0)
(3 -3.64561e-11 0)
(3 -1.0805e-13 0)
(3 7.59884e-14 0)
(3 -1.27393e-14 0)
(3 3.96054e-15 0)
(3 3.57962e-15 0)
(3 3.30225e-15 0)
(3 3.51065e-15 0)
(3 3.69683e-15 0)
(3 3.28778e-15 0)
(3 2.52972e-15 0)
(3 2.57506e-15 0)
(3 3.17398e-15 0)
(3 3.96092e-15 0)
(3 4.90205e-15 0)
(1.58579 -1.29934 0)
(1.55354 -1.29996 0)
(1.67811 -1.22041 0)
(2.1631 -0.817253 0)
(3.02328 0.0209577 0)
(3 8.39801e-12 0)
(3 9.9454e-12 0)
(3 -1.80672e-11 0)
(3 3.57425e-12 0)
(3 -3.28754e-15 0)
(3 3.29927e-15 0)
(3 3.23466e-15 0)
(3 3.47898e-15 0)
(3 3.66458e-15 0)
(3 3.61441e-15 0)
(3 3.37366e-15 0)
(3 2.75905e-15 0)
(3 3.06704e-15 0)
(3 2.94867e-15 0)
(3 3.93157e-15 0)
(1.5837 -1.28546 0)
(1.58854 -1.2897 0)
(1.64605 -1.2599 0)
(1.83864 -1.11055 0)
(2.70473 -0.244438 0)
(3 5.92182e-10 0)
(3 -1.36797e-08 0)
(3 1.22927e-08 0)
(3 -5.20101e-10 0)
(3 -1.95955e-12 0)
(3 9.7164e-14 0)
(3 2.90875e-15 0)
(3 3.05254e-15 0)
(3 2.77504e-15 0)
(3 3.58701e-15 0)
(3 2.42839e-15 0)
(3 2.26467e-15 0)
(3 1.9639e-15 0)
(3 2.67832e-15 0)
(3 2.87517e-15 0)
(1.58236 -1.26852 0)
(1.59531 -1.27265 0)
(1.62535 -1.2683 0)
(1.62128 -1.28446 0)
(2.30745 -0.676093 0)
(3.02217 0.01984 0)
(2.99972 -8.34729e-05 0)
(3 3.96305e-06 0)
(3 -7.93513e-08 0)
(3 8.90285e-10 0)
(3 -1.53252e-13 0)
(3 3.14163e-15 0)
(3 2.21392e-15 0)
(3 2.66734e-15 0)
(3 3.61137e-15 0)
(3 2.46373e-15 0)
(3 1.77335e-15 0)
(3 1.44793e-15 0)
(3 2.66574e-15 0)
(3 2.69056e-15 0)
(1.58105 -1.25306 0)
(1.60094 -1.25823 0)
(1.62348 -1.26582 0)
(1.60984 -1.29303 0)
(1.88661 -1.07424 0)
(2.75997 -0.217134 0)
(3.00407 -0.000314067 0)
(2.99993 -5.37973e-05 0)
(3 8.29458e-07 0)
(3 -8.68609e-10 0)
(3 8.44536e-15 0)
(3 1.21187e-15 0)
(3 1.61202e-15 0)
(3 1.38873e-15 0)
(3 3.27294e-15 0)
(3 2.39236e-15 0)
(3 8.06517e-16 0)
(3 1.47436e-15 0)
(3 2.30603e-15 0)
(3 2.22641e-15 0)
(1.57921 -1.24807 0)
(1.60256 -1.2546 0)
(1.6157 -1.25939 0)
(1.61137 -1.26874 0)
(1.75533 -1.19257 0)
(2.24836 -0.785238 0)
(3.0057 0.0109334 0)
(2.99995 0.000231744 0)
(3 -6.69787e-07 0)
(3 -5.87209e-11 0)
(3 3.22937e-14 0)
(3 1.06851e-16 0)
(3 1.00767e-15 0)
(3 1.64294e-15 0)
(3 2.69994e-15 0)
(3 1.48128e-15 0)
(3 1.33626e-15 0)
(3 1.62281e-15 0)
(3 2.28316e-15 0)
(3 2.49399e-15 0)
(1.57674 -1.2403 0)
(1.59271 -1.25262 0)
(1.60595 -1.26315 0)
(1.60982 -1.2725 0)
(1.64187 -1.25868 0)
(1.75296 -1.19431 0)
(2.25639 -0.736254 0)
(2.99633 -0.0133991 0)
(3 -6.37265e-08 0)
(3 3.22407e-11 0)
(3 7.56136e-15 0)
(3 2.93582e-16 0)
(3 1.14291e-15 0)
(3 4.94038e-16 0)
(3 1.46086e-15 0)
(3 1.17367e-15 0)
(3 1.41482e-15 0)
(3 1.63578e-15 0)
(3 2.40496e-15 0)
(3 2.71908e-15 0)
(1.58015 -1.25554 0)
(1.58616 -1.25986 0)
(1.59632 -1.26527 0)
(1.60145 -1.2687 0)
(1.60794 -1.26292 0)
(1.59604 -1.26632 0)
(1.86974 -1.17338 0)
(2.9487 -0.408477 0)
(3.38272 0.664152 0)
(3 -6.3673e-11 0)
(3 7.68391e-11 0)
(3 -7.97402e-11 0)
(3 -7.5528e-15 0)
(3 4.29908e-13 0)
(3 1.58331e-14 0)
(3 -1.8038e-14 0)
(3 1.31028e-14 0)
(3 2.35583e-15 0)
(3 2.13362e-15 0)
(3 3.20066e-15 0)
(1.16759 -0.763351 0)
(1.82883 -1.15016 0)
(1.83961 -1.14951 0)
(1.7481 -1.18673 0)
(1.71752 -1.20072 0)
(1.66094 -1.24562 0)
(1.65016 -1.21756 0)
(1.71901 -1.16661 0)
(1.74699 -1.24177 0)
(1.78812 -1.15383 0)
(2.2789 -0.743839 0)
(2.86285 -0.206274 0)
(3.0974 0.029808 0)
(3.02082 0.0126836 0)
(3.00478 0.00561078 0)
(3.0019 0.00308512 0)
(3.00005 0.00059562 0)
(2.99998 2.22654e-05 0)
(2.99999 -1.44252e-05 0)
(3 -5.93767e-06 0)
(1.02215 -0.0297769 0)
(1.9363 -0.786614 0)
(2.10824 -0.871758 0)
(1.99883 -0.990397 0)
(1.95686 -0.995787 0)
(1.87818 -1.0779 0)
(1.78659 -1.13612 0)
(1.75465 -1.14689 0)
(1.75399 -1.16316 0)
(1.73592 -1.20494 0)
(1.72462 -1.19459 0)
(1.87735 -1.06213 0)
(2.10189 -0.878921 0)
(2.49638 -0.577214 0)
(2.98154 -0.138981 0)
(3.07317 0.0286591 0)
(3.00816 0.00765877 0)
(3.00294 0.00381878 0)
(3.00123 0.00218921 0)
(3.00008 0.000481706 0)
(1.07771 0.151133 0)
(1.8117 0.102612 0)
(2.25466 -0.11599 0)
(2.23291 -0.526586 0)
(2.20015 -0.670122 0)
(2.13503 -0.789088 0)
(2.03735 -0.902751 0)
(1.96359 -0.962479 0)
(1.91311 -1.0298 0)
(1.85753 -1.11787 0)
(1.79367 -1.15657 0)
(1.79212 -1.14996 0)
(1.80839 -1.13099 0)
(1.84567 -1.08977 0)
(2.03578 -0.955133 0)
(2.25845 -0.829808 0)
(2.66643 -0.502017 0)
(3.03778 -0.0898207 0)
(3.05606 0.0246081 0)
(3.00414 0.00476773 0)
(1.41069 0.471428 0)
(1.76624 0.937787 0)
(2.21801 0.709004 0)
(2.31884 0.132105 0)
(2.36811 -0.105502 0)
(2.33461 -0.382355 0)
(2.2848 -0.554482 0)
(2.18618 -0.723573 0)
(2.13077 -0.804716 0)
(2.07831 -0.920925 0)
(1.97262 -1.02174 0)
(1.91048 -1.07355 0)
(1.87727 -1.09053 0)
(1.86518 -1.09353 0)
(1.87138 -1.05642 0)
(1.89966 -1.04573 0)
(1.96463 -1.01778 0)
(2.16435 -0.900396 0)
(2.37823 -0.793196 0)
(2.77455 -0.446616 0)
(1.47518 1.0644 0)
(1.52534 1.53091 0)
(2.4713 0.364359 0)
(2.22457 0.867374 0)
(2.30734 0.661122 0)
(2.42588 0.298739 0)
(2.40763 -0.124326 0)
(2.38049 -0.302054 0)
(2.32156 -0.453086 0)
(2.30756 -0.578957 0)
(2.21514 -0.731969 0)
(2.13921 -0.836463 0)
(2.08239 -0.897714 0)
(2.02744 -0.952701 0)
(1.99159 -0.95996 0)
(1.9586 -0.982486 0)
(1.95485 -1.01419 0)
(1.96848 -0.998086 0)
(1.99264 -0.998155 0)
(2.06962 -0.98082 0)
(1.28492 1.40448 0)
(1.67734 1.59132 0)
(2.15986 0.936899 0)
(2.47799 1.07418 0)
(2.41334 0.925196 0)
(2.42423 0.77269 0)
(2.4623 0.512443 0)
(2.46408 0.226726 0)
(2.45044 0.0482387 0)
(2.45706 -0.130317 0)
(2.42461 -0.328715 0)
(2.34895 -0.515875 0)
(2.29648 -0.639014 0)
(2.21822 -0.759729 0)
(2.16196 -0.81899 0)
(2.1145 -0.848499 0)
(2.06222 -0.904808 0)
(2.05651 -0.905851 0)
(2.04069 -0.927649 0)
(2.06245 -0.950515 0)
(1.23503 1.41311 0)
(1.63438 1.55107 0)
(1.95035 1.13852 0)
(1.93629 1.30471 0)
(2.48781 0.931675 0)
(2.56293 0.964098 0)
(2.65697 0.79142 0)
(2.63001 0.353169 0)
(2.60168 0.251396 0)
(2.5798 0.0149358 0)
(2.57305 -0.162428 0)
(2.4954 -0.369651 0)
(2.44881 -0.48518 0)
(2.38101 -0.597276 0)
(2.33575 -0.633776 0)
(2.29992 -0.637263 0)
(2.2603 -0.655043 0)
(2.24478 -0.661776 0)
(2.17805 -0.742541 0)
(2.13573 -0.785442 0)
(1.253 1.41027 0)
(1.60186 1.55156 0)
(1.81055 1.39048 0)
(1.81288 1.29263 0)
(1.93442 1.37246 0)
(2.3963 1.22829 0)
(2.65647 0.94483 0)
(2.73961 0.527911 0)
(2.69154 0.303574 0)
(2.65686 0.220153 0)
(2.6462 0.080251 0)
(2.61204 -0.0539086 0)
(2.57581 -0.145738 0)
(2.54602 -0.213947 0)
(2.49906 -0.279931 0)
(2.47904 -0.296559 0)
(2.43181 -0.371368 0)
(2.37223 -0.485458 0)
(2.30001 -0.598196 0)
(2.29467 -0.576591 0)
(1.35353 1.48146 0)
(1.57253 1.66521 0)
(1.68673 1.66879 0)
(1.75471 1.4088 0)
(1.77601 1.59106 0)
(2.06313 1.43144 0)
(2.32446 1.32255 0)
(2.45868 1.20877 0)
(2.53898 0.917289 0)
(2.55096 0.842299 0)
(2.58602 0.633376 0)
(2.60214 0.461962 0)
(2.60001 0.295296 0)
(2.63148 0.192929 0)
(2.58896 -0.00505427 0)
(2.59343 -0.107893 0)
(2.53077 -0.300806 0)
(2.48164 -0.367779 0)
(2.42766 -0.4006 0)
(2.46525 -0.307978 0)
(1.48984 1.64595 0)
(1.53967 1.87998 0)
(1.59273 1.93406 0)
(1.73527 1.6974 0)
(1.82574 1.75815 0)
(2.02001 1.5641 0)
(2.12543 1.59068 0)
(2.25546 1.42932 0)
(2.35982 1.25285 0)
(2.4403 1.11713 0)
(2.54157 0.907992 0)
(2.61031 0.689412 0)
(2.65124 0.460944 0)
(2.71165 0.2998 0)
(2.66932 0.0528064 0)
(2.65386 -0.0481121 0)
(2.61874 -0.169406 0)
(2.59634 -0.0872182 0)
(2.55136 -0.11838 0)
(2.58399 -0.0498232 0)
(1.63447 1.78834 0)
(1.60016 2.04597 0)
(1.66852 2.20435 0)
(1.74654 2.08234 0)
(1.87211 1.90524 0)
(2.01396 1.65352 0)
(2.08428 1.67445 0)
(2.27166 1.48795 0)
(2.42719 1.37623 0)
(2.55288 1.12789 0)
(2.65547 0.883547 0)
(2.70389 0.63935 0)
(2.72077 0.50328 0)
(2.73992 0.382544 0)
(2.73774 0.285761 0)
(2.7169 0.257682 0)
(2.69045 0.217872 0)
(2.68652 0.280114 0)
(2.64893 0.177091 0)
(2.6192 0.0147942 0)
(1.58891 1.75915 0)
(1.76924 2.0725 0)
(1.80775 2.28476 0)
(1.79705 2.19404 0)
(1.97291 1.97921 0)
(2.17805 1.70183 0)
(2.28335 1.75654 0)
(2.49833 1.47668 0)
(2.63053 1.44353 0)
(2.70309 1.15994 0)
(2.74407 1.15198 0)
(2.76563 0.932554 0)
(2.7329 0.917575 0)
(2.732 0.820226 0)
(2.72358 0.730444 0)
(2.70471 0.633663 0)
(2.70678 0.574002 0)
(2.74215 0.49702 0)
(2.71988 0.292218 0)
(2.68915 0.12977 0)
(1.46558 1.6679 0)
(1.8492 2.03224 0)
(1.92142 2.27195 0)
(2.01239 2.30958 0)
(2.1788 2.17007 0)
(2.33275 1.9641 0)
(2.44666 1.88875 0)
(2.52094 1.69019 0)
(2.53014 1.64541 0)
(2.62897 1.46829 0)
(2.58862 1.52069 0)
(2.63075 1.34677 0)
(2.61109 1.23465 0)
(2.64091 1.14618 0)
(2.66702 0.994783 0)
(2.70058 0.863822 0)
(2.7623 0.747627 0)
(2.79908 0.534743 0)
(2.79895 0.379158 0)
(2.74931 0.312719 0)
(1.34743 1.59981 0)
(1.72702 1.9637 0)
(1.97629 2.26437 0)
(2.12105 2.28892 0)
(2.23406 2.23989 0)
(2.33649 2.11242 0)
(2.39562 1.94754 0)
(2.4182 1.81988 0)
(2.39101 1.8319 0)
(2.37787 1.77278 0)
(2.40698 1.64479 0)
(2.49497 1.53593 0)
(2.54557 1.36326 0)
(2.65994 1.2806 0)
(2.70152 1.09793 0)
(2.77959 0.902534 0)