/*--------------------------------*- C++ -*----------------------------------*\
  =========                 |
  \\      /  F ield         | OpenFOAM: The Open Source CFD Toolbox
   \\    /   O peration     | Website:  https://openfoam.org
    \\  /    A nd           | Version:  7
     \\/     M anipulation  |
\*---------------------------------------------------------------------------*/
FoamFile
{
    version     2.0;
    format      ascii;
    class       volScalarField;
    location    "3.4";
    object      T;
}
// * * * * * * * * * * * * * * * * * * * * * * * * * * * * * * * * * * * * * //

dimensions      [0 0 0 1 0 0 0];

internalField   nonuniform List<scalar> 
3700
(
100.585
100.77
100.826
100.808
100.802
100.882
101.03
101.108
101.169
101.182
101.195
101.189
101.176
101.157
101.112
101.035
100.989
101.003
101.046
101.064
100.234
100.201
100.273
100.263
100.264
100.423
100.593
100.597
100.618
100.661
100.751
100.765
100.74
100.666
100.522
100.333
100.247
100.271
100.347
100.421
100.276
100.183
100.126
100.08
100.041
100.012
99.9636
99.9363
99.9229
99.9037
99.9029
99.9233
99.9518
99.9851
100.014
100.03
100.039
100.045
100.048
100.035
100.32
100.197
100.111
100.046
100.037
100.034
100.034
100.055
100.046
100.025
99.98
99.9624
99.9564
99.9747
100.012
100.04
100.057
100.08
100.096
100.105
100.327
100.194
100.038
99.9711
99.9749
100.008
100.041
100.095
100.115
100.113
100.106
100.091
100.073
100.052
100.035
100.034
100.051
100.086
100.115
100.15
100.3
100.12
99.9365
99.8859
99.9065
99.9377
99.9941
100.078
100.123
100.146
100.159
100.157
100.16
100.153
100.143
100.12
100.101
100.1
100.117
100.18
100.154
100.041
99.8859
99.855
99.8873
99.9205
99.9736
100.041
100.082
100.135
100.166
100.177
100.2
100.207
100.208
100.21
100.205
100.201
100.2
100.229
100.04
99.9742
99.8707
99.8493
99.8869
99.9328
99.9947
100.039
100.071
100.115
100.146
100.17
100.205
100.228
100.244
100.262
100.274
100.282
100.286
100.322
99.9696
99.9039
99.8642
99.8722
99.9489
100.043
100.097
100.12
100.138
100.161
100.162
100.178
100.202
100.233
100.263
100.291
100.319
100.341
100.354
100.394
99.8677
99.8242
99.848
99.8776
99.9722
100.103
100.165
100.193
100.231
100.263
100.276
100.288
100.304
100.316
100.324
100.336
100.36
100.39
100.419
100.455
99.7485
99.7335
99.8358
99.8898
99.9795
100.133
100.19
100.22
100.269
100.319
100.348
100.366
100.387
100.398
100.411
100.424
100.438
100.453
100.496
100.494
99.6389
99.6535
99.8331
99.9107
100.044
100.2
100.212
100.233
100.289
100.346
100.388
100.415
100.442
100.457
100.478
100.5
100.521
100.54
100.574
100.564
99.5632
99.5884
99.8201
99.9451
100.163
100.289
100.307
100.359
100.415
100.45
100.469
100.484
100.499
100.513
100.539
100.571
100.601
100.625
100.656
100.652
99.5041
99.5558
99.8101
100.058
100.286
100.381
100.423
100.481
100.53
100.564
100.574
100.583
100.592
100.606
100.628
100.656
100.684
100.71
100.726
100.734
99.4601
99.6069
99.9344
100.22
100.375
100.452
100.511
100.562
100.607
100.636
100.647
100.66
100.676
100.7
100.731
100.756
100.774
100.784
100.779
100.773
99.4444
99.7843
100.064
100.319
100.46
100.53
100.59
100.643
100.688
100.709
100.723
100.74
100.762
100.791
100.814
100.825
100.823
100.816
100.79
100.745
99.3921
99.8762
100.229
100.428
100.577
100.683
100.729
100.766
100.794
100.808
100.819
100.833
100.849
100.856
100.856
100.845
100.793
100.678
100.516
100.278
99.5222
100.118
100.458
100.662
100.765
100.81
100.838
100.865
100.878
100.882
100.881
100.882
100.881
100.858
100.774
100.626
100.362
100.101
100.005
99.9978
100.12
100.525
100.74
100.839
100.889
100.905
100.917
100.923
100.919
100.909
100.894
100.838
100.723
100.469
100.147
100.01
99.9966
99.9985
99.9992
99.9998
100.698
100.836
100.916
100.952
100.962
100.951
100.951
100.93
100.844
100.763
100.576
100.235
100.03
99.9958
99.9978
99.9989
99.9998
100
100
100
100.999
100.998
100.996
100.992
100.979
100.936
100.872
100.456
99.8438
100
100
100
100
100
100
100
100
100
100
100
100.996
100.994
100.989
100.977
100.957
100.856
100.481
100.012
100
100
100
100
100
100
100
100
100
100
100
100
100.989
100.991
100.987
100.966
100.924
100.633
100.027
99.9996
100
100
100
100
100
100
100
100
100
100
100
100
100.983
100.99
100.987
100.953
100.803
100.263
99.9965
100
100
100
100
100
100
100
100
100
100
100
100
100
100.978
100.989
100.984
100.926
100.576
99.9918
100
100
100
100
100
100
100
100
100
100
100
100
100
100
100.975
100.987
100.978
100.821
100.247
100
100
100
100
100
100
100
100
100
100
100
100
100
100
100
100.974
100.981
100.964
100.683
99.9928
100
100
100
100
100
100
100
100
100
100
100
100
100
100
100
100.984
100.977
100.917
100.476
100
100
100
100
100
100
100
100
100
100
100
100
100
100
100
100
101.003
100.977
100.831
100.137
100
100
100
100
100
100
100
100
100
100
100
100
100
100
100
100
101.015
100.945
100.697
99.9964
100
100
100
100
100
100
100
100
100
100
100
100
100
100
100
100
101.024
100.907
100.509
100
100
100
100
100
100
100
100
100
100
100
100
100
100
100
100
100
101.028
100.851
100.299
100
100
100
100
100
100
100
100
100
100
100
100
100
100
100
100
100
101.03
100.79
100.116
100
100
100
100
100
100
100
100
100
100
100
100
100
100
100
100
100
101.029
100.735
100.002
100
100
100
100
100
100
100
100
100
100
100
100
100
100
100
100
100
101.012
100.676
100
100
100
100
100
100
100
100
100
100
100
100
100
100
100
100
100
100
100.986
100.571
100
100
100
100
100
100
100
100
100
100
100
100
100
100
100
100
100
100
100.945
100.415
100
100
100
100
100
100
100
100
100
100
100
100
100
100
100
100
100
100
100.902
100.218
100
100
100
100
100
100
100
100
100
100
100
100
100
100
100
100
100
100
100.868
100.004
100
100
100
100
100
100
100
100
100
100
100
100
100
100
100
100
100
100
100.814
100
100
100
100
100
100
100
100
100
100
100
100
100
100
100
100
100
100
100
100.813
100
100
100
100
100
100
100
100
100
100
100
100
100
100
100
100
100
100
100
100.867
100.004
100
100
100
100
100
100
100
100
100
100
100
100
100
100
100
100
100
100
100.904
100.22
100
100
100
100
100
100
100
100
100
100
100
100
100
100
100
100
100
100
100.944
100.414
100
100
100
100
100
100
100
100
100
100
100
100
100
100
100
100
100
100
100.986
100.568
100
100
100
100
100
100
100
100
100
100
100
100
100
100
100
100
100
100
101.013
100.678
100
100
100
100
100
100
100
100
100
100
100
100
100
100
100
100
100
100
101.03
100.74
100.008
100
100
100
100
100
100
100
100
100
100
100
100
100
100
100
100
100
101.031
100.792
100.118
100
100
100
100
100
100
100
100
100
100
100
100
100
100
100
100
100
101.028
100.849
100.297
100
100
100
100
100
100
100
100
100
100
100
100
100
100
100
100
100
101.024
100.905
100.503
100
100
100
100
100
100
100
100
100
100
100
100
100
100
100
100
100
101.014
100.944
100.694
99.9964
100
100
100
100
100
100
100
100
100
100
100
100
100
100
100
100
101.002
100.977
100.831
100.137
100
100
100
100
100
100
100
100
100
100
100
100
100
100
100
100
100.983
100.977
100.919
100.481
100
100
100
100
100
100
100
100
100
100
100
100
100
100
100
100
100.974
100.981
100.965
100.686
99.9928
100
100
100
100
100
100
100
100
100
100
100
100
100
100
100
100.975
100.987
100.978
100.819
100.246
100
100
100
100
100
100
100
100
100
100
100
100
100
100
100
100.979
100.99
100.984
100.925
100.573
99.9919
100
100
100
100
100
100
100
100
100
100
100
100
100
100
100.984
100.99
100.987
100.952
100.803
100.265
99.9965
100
100
100
100
100
100
100
100
100
100
100
100
100
100.989
100.991
100.987
100.965
100.924
100.634
100.027
99.9996
100
100
100
100
100
100
100
100
100
100
100
100
100.996
100.994
100.989
100.977
100.958
100.855
100.481
100.012
100
100
100
100
100
100
100
100
100
100
100
100
100.999
100.998
100.996
100.992
100.979
100.936
100.872
100.455
99.8442
100
100
100
100
100
100
100
100
100
100
100
100.698
100.836
100.916
100.952
100.962
100.951
100.951
100.93
100.844
100.762
100.575
100.234
100.03
99.9958
99.9977
99.9989
99.9998
100
100
100
100.122
100.525
100.74
100.838
100.889
100.905
100.918
100.923
100.919
100.908
100.893
100.838
100.724
100.469
100.147
100.01
99.9966
99.9985
99.9992
99.9998
99.5324
100.121
100.451
100.661
100.766
100.81
100.838
100.865
100.878
100.882
100.881
100.882
100.881
100.858
100.774
100.627
100.362
100.101
100.005
99.9978
99.3777
99.8742
100.215
100.414
100.572
100.683
100.73
100.768
100.795
100.809
100.819
100.833
100.849
100.857
100.856
100.846
100.794
100.678
100.516
100.278
99.4776
99.8067
100.05
100.295
100.45
100.525
100.588
100.642
100.688
100.709
100.723
100.74
100.762
100.791
100.814
100.825
100.823
100.816
100.79
100.745
99.4669
99.6817
99.9431
100.204
100.365
100.446
100.509
100.561
100.606
100.634
100.646
100.659
100.676
100.7
100.731
100.756
100.774
100.784
100.78
100.773
99.4899
99.5725
99.8349
100.055
100.28
100.381
100.425
100.481
100.53
100.563
100.573
100.583
100.593
100.606
100.629
100.656
100.684
100.71
100.726
100.734
99.5528
99.5991
99.828
99.9442
100.163
100.294
100.311
100.365
100.421
100.453
100.472
100.485
100.499
100.513
100.538
100.571
100.601
100.625
100.656
100.652
99.6354
99.6494
99.8295
99.899
100.046
100.209
100.217
100.237
100.292
100.345
100.387
100.415
100.442
100.456
100.478
100.5
100.521
100.54
100.574
100.564
99.7416
99.7193
99.8292
99.8834
99.9758
100.134
100.192
100.22
100.268
100.318
100.348
100.366
100.388
100.398
100.412
100.424
100.439
100.453
100.496
100.494
99.8608
99.8107
99.843
99.8754
99.9666
100.103
100.166
100.193
100.23
100.264
100.278
100.29
100.306
100.318
100.326
100.337
100.359
100.389
100.418
100.455
99.9753
99.9107
99.8599
99.874
99.9425
100.043
100.099
100.122
100.14
100.163
100.163
100.177
100.199
100.23
100.26
100.289
100.318
100.34
100.353
100.394
100.073
99.9995
99.8757
99.8523
99.8756
99.9272
99.9911
100.031
100.062
100.105
100.137
100.162
100.199
100.223
100.241
100.26
100.273
100.282
100.286
100.321
100.202
100.072
99.8987
99.8542
99.8689
99.9018
99.9559
100.027
100.069
100.122
100.158
100.17
100.194
100.203
100.206
100.209
100.205
100.201
100.201
100.228
100.326
100.138
99.941
99.8745
99.884
99.9155
99.971
100.057
100.11
100.138
100.153
100.152
100.157
100.151
100.143
100.121
100.102
100.102
100.117
100.179
100.352
100.193
100.015
99.9385
99.94
99.9783
100.022
100.083
100.109
100.109
100.106
100.092
100.074
100.053
100.035
100.033
100.049
100.084
100.114
100.151
100.342
100.211
100.095
100.017
100.017
100.021
100.022
100.053
100.05
100.031
99.9874
99.9681
99.9587
99.974
100.01
100.04
100.057
100.079
100.096
100.107
100.302
100.201
100.13
100.072
100.035
100.006
99.966
99.945
99.9282
99.9075
99.9021
99.919
99.9503
99.9855
100.016
100.034
100.041
100.047
100.053
100.037
100.269
100.225
100.228
100.282
100.362
100.308
100.304
100.495
100.605
100.564
100.405
100.246
100.283
100.392
100.522
100.628
100.695
100.707
100.684
100.56
100.608
100.8
100.785
100.803
100.851
100.875
100.926
101.064
101.157
101.153
101.117
101.05
101.041
101.089
101.153
101.17
101.168
101.162
101.148
101.097
101.06
101.05
101.019
100.989
100.961
100.945
100.924
100.895
100.869
100.862
100.863
100.866
100.862
100.846
100.826
100.814
100.804
100.795
100.783
100.759
100.585
100.671
100.727
100.73
100.752
100.789
100.806
100.81
100.804
100.797
100.798
100.803
100.805
100.799
100.791
100.782
100.772
100.759
100.742
100.728
100.025
100.079
100.197
100.284
100.406
100.505
100.569
100.627
100.66
100.663
100.666
100.674
100.686
100.695
100.702
100.701
100.694
100.677
100.657
100.658
100.079
100.085
100.098
100.092
100.104
100.188
100.337
100.447
100.51
100.545
100.547
100.551
100.566
100.585
100.598
100.6
100.594
100.577
100.562
100.569
100.133
100.14
100.137
100.13
100.114
100.116
100.138
100.235
100.383
100.463
100.471
100.473
100.488
100.512
100.526
100.526
100.519
100.501
100.489
100.496
100.184
100.186
100.188
100.169
100.15
100.145
100.15
100.162
100.204
100.314
100.409
100.434
100.444
100.467
100.483
100.483
100.475
100.458
100.445
100.45
100.23
100.237
100.23
100.204
100.186
100.183
100.185
100.189
100.193
100.2
100.256
100.364
100.415
100.438
100.45
100.456
100.45
100.434
100.42
100.423
100.293
100.285
100.277
100.26
100.237
100.221
100.214
100.205
100.195
100.197
100.197
100.223
100.329
100.402
100.423
100.434
100.43
100.415
100.403
100.405
100.359
100.338
100.324
100.302
100.276
100.253
100.236
100.217
100.21
100.208
100.202
100.191
100.206
100.302
100.384
100.413
100.408
100.396
100.391
100.39
100.431
100.392
100.368
100.346
100.319
100.288
100.262
100.236
100.214
100.215
100.211
100.198
100.186
100.191
100.275
100.353
100.373
100.379
100.378
100.374
100.539
100.448
100.376
100.362
100.358
100.345
100.309
100.265
100.241
100.23
100.225
100.216
100.202
100.18
100.178
100.214
100.286
100.337
100.336
100.335
100.618
100.551
100.473
100.403
100.389
100.377
100.351
100.308
100.268
100.24
100.231
100.226
100.212
100.191
100.166
100.151
100.155
100.19
100.23
100.27
100.608
100.587
100.545
100.479
100.415
100.374
100.352
100.333
100.297
100.269
100.255
100.241
100.222
100.198
100.175
100.152
100.135
100.115
100.115
100.166
100.488
100.547
100.541
100.518
100.473
100.41
100.369
100.35
100.325
100.294
100.263
100.236
100.213
100.19
100.171
100.157
100.134
100.105
100.089
100.07
100.251
100.377
100.446
100.483
100.474
100.449
100.407
100.359
100.329
100.294
100.258
100.228
100.207
100.192
100.182
100.166
100.141
100.113
100.082
100.046
100.043
100.146
100.254
100.336
100.387
100.415
100.405
100.379
100.343
100.305
100.27
100.245
100.217
100.193
100.173
100.149
100.122
100.099
100.077
100.041
100.002
100.015
100.065
100.155
100.232
100.29
100.331
100.349
100.339
100.316
100.282
100.249
100.216
100.183
100.159
100.133
100.113
100.1
100.082
100.045
100
100
100.003
100.025
100.078
100.149
100.209
100.25
100.279
100.291
100.282
100.259
100.229
100.198
100.17
100.141
100.123
100.109
100.085
100.041
100
100
100
100.001
100.006
100.03
100.081
100.139
100.187
100.217
100.241
100.243
100.236
100.217
100.186
100.157
100.129
100.098
100.076
100.041
100
100
100
100
100
100.001
100.008
100.033
100.078
100.128
100.169
100.191
100.21
100.21
100.202
100.184
100.156
100.12
100.093
100.058
100
100
100
100
100
100
100
100.002
100.008
100.031
100.073
100.118
100.154
100.174
100.186
100.184
100.176
100.159
100.132
100.087
100
100
100
100
100
100
100
100
100
100.001
100.008
100.029
100.065
100.107
100.139
100.162
100.166
100.163
100.155
100.127
100
100
100
100
100
100
100
100
100
100
100
100.001
100.007
100.024
100.056
100.098
100.127
100.146
100.146
100.137
100
100
100
100
100
100
100
100
100
100
100
100
100
100.001
100.005
100.02
100.048
100.083
100.108
100.122
100
100
100
100
100
100
100
100
100
100
100
100
100
100
100
100.001
100.004
100.015
100.037
100.082
100.596
100.653
100.61
100.415
100.142
100.017
100.001
100
100
100
100
100
100
100
100
100.67
100.662
100.518
100.217
100.022
100
100
100
100
100
100
100
100
100
100
100.704
100.635
100.373
100.074
100.002
100
100
100
100
100
100
100
100
100
100
100.719
100.518
100.168
100.009
100
100
100
100
100
100
100
100
100
100
100
100.649
100.283
100.024
100
100
100
100
100
100
100
100
100
100
100
100
100.395
100.038
100
100
100
100
100
100
100
100
100
100
100
100
100
100.043
100
100
100
100
100
100
100
100
100
100
100
100
100
100
99.9995
100
100
100
100
100
100
100
100
100
100
100
100
100
100
100
100
100
100
100
100
100
100
100
100
100
100
100
100
100
100
100
100
100
100
100
100
100
100
100
100
100
100
100
100
100
100
100
100
100
100
100
100
100
100
100
100
100
100
100
100
100
100
100
100
100
100
100
100
100
100
100
100
100
100
100
100
100
100
100
100
100
100
100
100
100
100
100
100
100
100
100
100
100
100
100
100
100
100
100
100
100
100
100
100
100
100
100
100
100
100
100
100
100
100
100
100
100
100
100
100
100
100
100
100
100
100
100
100
100
100
100
100
100
100
100
100
100
100
100
100
100
100
100
100
100
100
100
100
100
100
100
100
100
100
100
100
100
100
100
100
100
100
100
100
100
100
100
100
100
100
100
100
100
100
100
100
100
100
100
100
100
100
100
100
100
100
100
100
100
100
100
100
100
100
100
100
100
100
100
100
100
100
100
100
100
100
100
100
100
100
100
100
100
100
100
100
100
100
100
100
100
100
100
100
100
100
100
100
100
100
100
100
100
100
100
100
100
100
100
100
100
100
100
100
100
100
100
100
100
100
100
100
100
100
100
100
100
100
100
100
100
100
100
100
100
100
100
100
100
100
100
100
100
100
100
100
100
100
100
100
100
100
100
100
100
100
100
100
100
100
100
100
100
100
100
100
100
100
100
100
100
100
100
100
100
100
100
100
100
100
100
100
100
100
100
100
100
100
100
100
100
100
100
100
100
100
100
100
100
100
100
100
100
100
100
100
100
100
100
100
100
100
100
100
100
100
100
100
100
100
100
100
100
100
100
100
100
100
100
100
100
100
100
100
100
100
100
100
100
100
100
100
100
100
100
100
100
100
100
100
100
100
100
100
100
100
100
100
100
100
100
100
100
100
100
100
100
100
100
100
100
100
100
100
100
100
100
100
100
100
100
100
100
100
100
100
100
100
100
100
100
100
100
100
100
100
100
100
100
100
100
100
100
100
100
100
100
100
100
100
100
100
100
100
100
100
100
100
100
100
100
100
100
100
100
100
100
100
100
100
100
100
100
100
100
100
100
100
100
100
100
100
100
100
100
100
100
100
100
100
100
100
100
100
100
100
100
100
100
100
100
100
100
100
100
100
100
100
100
100
100
100
100
100
100
100
100
100
100
100
100
100
100
100
100
100
100
100
100
100
100
100
100
100
100
100
100
100
100
100
100
100
100
100
100
100
100
100
100
100
100
100
100
100
100
100
100
100
100
100
100
100
100
100
100
100
100
100
100
100
100
100
100
100
100
100
100
100
100
100
100
100
100
100
100
100
100
100
100
100
100
100
100
100
100
100
100
100
100
100
100
100
100
100
100
100
100
100
100
100
100
100
100
100
100
100
100
100
100
100
100
100
100
100
100
100
100
100
100
100
100
100
100
100
100
100
100
100
100
100
100
100
100
100
100
100
100
100
100
100
100
100
100
100
100
100
100
100
100
100
100
100
100
100
100
100
100
100
100
100
100
100
100
100
100
100
100
100
100
100
100
100
100
100
100
100
100
100
100
100
100
100
100
100
100
100
100
100
100
100
100
100
100
100
100
100
100
100
100
100
100
100
100
100
100
100
100
100
100
100
100
100
100
100
100
100
100
100
100
100
100
100
100
100
100
100
100
100
100
100
100
100
100
100
100
100
100
100
100
100
100
100
100
100
100
100
100
100
100
100
100
100
100
100
100
100
100
100
100
100
100
100
100
100
100
100
100
100
100
100
100
100
100
100
100
100
100
100
100
100
100
100
100
100
100
100
100
100
100
100
100
100
100
100
100
100
100
100
100
100
100
100
100
100
100
100
100
100
100
100
100
100
100
100
100
100
100
100
100
100
100
100
100
100
100
100
100
100
100
100
100
100
100
100
100
100
100
100
100
100
100
100
100
100
100
100
100
100
100
100
100
100
100
100
100
100
100
100
100
100
100
100
100
100
100
100
100
100
100
100
100
100
100
100
99.9995
100
100
100
100
100
100
100
100
100
100
100
100
100
100
100.043
100
100
100
100
100
100
100
100
100
100
100
100
100
100
100.395
100.038
100
100
100
100
100
100
100
100
100
100
100
100
100
100.649
100.283
100.024
100
100
100
100
100
100
100
100
100
100
100
100
100.719
100.518
100.168
100.009
100
100
100
100
100
100
100
100
100
100
100
100.704
100.635
100.373
100.073
100.002
100
100
100
100
100
100
100
100
100
100
100.67
100.662
100.518
100.217
100.022
100
100
100
100
100
100
100
100
100
100
100.596
100.653
100.61
100.415
100.142
100.017
100.001
100
100
100
100
100
100
100
100
100.538
100.618
100.608
100.488
100.251
100.043
100.002
100
100
100
100
100
100
100
100
100.445
100.551
100.587
100.547
100.377
100.146
100.015
100
100
100
100
100
100
100
100
100.382
100.472
100.545
100.541
100.446
100.254
100.065
100.003
100
100
100
100
100
100
100
100.365
100.404
100.479
100.518
100.483
100.336
100.155
100.025
100.001
100
100
100
100
100
100
100.357
100.39
100.415
100.473
100.474
100.387
100.232
100.078
100.006
100
100
100
100
100
100
100.341
100.377
100.373
100.41
100.449
100.415
100.29
100.149
100.03
100.001
100
100
100
100
100
100.304
100.351
100.352
100.369
100.407
100.405
100.331
100.209
100.081
100.008
100
100
100
100
100
100.262
100.308
100.333
100.349
100.359
100.379
100.349
100.25
100.139
100.033
100.002
100
100
100
100
100.239
100.268
100.298
100.325
100.329
100.343
100.339
100.279
100.187
100.078
100.008
100
100
100
100
100.23
100.239
100.27
100.294
100.294
100.305
100.316
100.291
100.217
100.128
100.031
100.001
100
100
100
100.225
100.23
100.256
100.263
100.258
100.27
100.282
100.282
100.241
100.169
100.073
100.008
100
100
100
100.216
100.226
100.241
100.236
100.228
100.245
100.249
100.259
100.243
100.191
100.118
100.029
100.001
100
100
100.202
100.211
100.221
100.213
100.207
100.218
100.216
100.229
100.236
100.21
100.154
100.065
100.007
100
100
100.18
100.191
100.198
100.19
100.192
100.193
100.183
100.198
100.217
100.21
100.174
100.107
100.024
100.001
100
100.178
100.166
100.175
100.171
100.182
100.173
100.159
100.17
100.186
100.202
100.186
100.139
100.056
100.005
100
100.215
100.15
100.152
100.157
100.166
100.149
100.133
100.142
100.157
100.184
100.184
100.162
100.098
100.02
100.001
100.286
100.154
100.134
100.135
100.141
100.122
100.113
100.123
100.129
100.156
100.176
100.166
100.127
100.048
100.004
100.337
100.19
100.115
100.105
100.113
100.099
100.1
100.109
100.098
100.12
100.159
100.163
100.146
100.083
100.015
100.336
100.23
100.115
100.089
100.082
100.077
100.082
100.086
100.076
100.093
100.132
100.155
100.146
100.108
100.037
100.335
100.27
100.166
100.07
100.046
100.041
100.045
100.041
100.041
100.058
100.087
100.127
100.137
100.122
100.082
100.433
100.395
100.369
100.344
100.318
100.29
100.265
100.24
100.215
100.216
100.211
100.199
100.186
100.191
100.276
100.354
100.374
100.379
100.378
100.374
100.365
100.339
100.32
100.299
100.28
100.26
100.242
100.222
100.211
100.208
100.202
100.191
100.206
100.301
100.384
100.413
100.408
100.396
100.391
100.39
100.296
100.284
100.273
100.256
100.234
100.215
100.21
100.203
100.196
100.199
100.197
100.225
100.33
100.403
100.422
100.433
100.43
100.415
100.403
100.404
100.232
100.236
100.231
100.21
100.194
100.188
100.189
100.19
100.192
100.199
100.256
100.366
100.416
100.438
100.449
100.455
100.449
100.434
100.42
100.422
100.185
100.188
100.184
100.162
100.143
100.142
100.148
100.161
100.201
100.309
100.408
100.434
100.444
100.467
100.483
100.483
100.475
100.458
100.445
100.45
100.134
100.14
100.139
100.129
100.115
100.119
100.14
100.234
100.378
100.46
100.47
100.473
100.488
100.513
100.527
100.527
100.52
100.501
100.49
100.497
100.082
100.093
100.105
100.094
100.108
100.187
100.331
100.446
100.51
100.546
100.546
100.548
100.565
100.587
100.6
100.602
100.597
100.58
100.566
100.572
100.03
100.033
100.169
100.308
100.428
100.503
100.558
100.618
100.662
100.669
100.669
100.674
100.686
100.699
100.707
100.707
100.699
100.683
100.664
100.663
100.575
100.596
100.684
100.746
100.784
100.795
100.796
100.802
100.805
100.804
100.803
100.806
100.808
100.805
100.798
100.788
100.778
100.764
100.749
100.734
101.045
101.022
101.002
100.994
100.976
100.954
100.927
100.897
100.871
100.864
100.866
100.87
100.868
100.853
100.83
100.816
100.806
100.797
100.785
100.763
)
;

boundaryField
{
    inlet
    {
        type            fixedValue;
        value           uniform 100;
    }
    outlet
    {
        type            inletOutlet;
        inletValue      uniform 100;
        value           nonuniform List<scalar> 
50
(
100.335
100.27
100.166
100.07
100.046
100.041
100.045
100.041
100.041
100.058
100.087
100.127
100.137
100.122
100.082
100.759
100.728
100.658
100.569
100.496
100.45
100.423
100.405
100.39
100.374
100.374
100.39
100.404
100.422
100.45
100.497
100.572
100.663
100.734
100.763
100.335
100.27
100.166
100.07
100.046
100.041
100.045
100.041
100.041
100.058
100.087
100.127
100.137
100.122
100.082
)
;
    }
    airfoil
    {
        type            zeroGradient;
    }
    top
    {
        type            symmetryPlane;
    }
    bottom
    {
        type            symmetryPlane;
    }
    defaultFaces
    {
        type            empty;
    }
}


// ************************************************************************* //
