/*--------------------------------*- C++ -*----------------------------------*\
  =========                 |
  \\      /  F ield         | OpenFOAM: The Open Source CFD Toolbox
   \\    /   O peration     | Website:  https://openfoam.org
    \\  /    A nd           | Version:  7
     \\/     M anipulation  |
\*---------------------------------------------------------------------------*/
FoamFile
{
    version     2.0;
    format      ascii;
    class       volScalarField;
    location    "3";
    object      p;
}
// * * * * * * * * * * * * * * * * * * * * * * * * * * * * * * * * * * * * * //

dimensions      [1 -1 -2 0 0 0 0];

internalField   nonuniform List<scalar> 
3700
(
0.131063
0.225206
0.277098
0.332805
0.378981
0.403577
0.41033
0.427466
0.439676
0.449673
0.455547
0.454068
0.452123
0.464685
0.477007
0.491388
0.508572
0.502916
0.505115
0.525611
0.0806809
0.0956441
0.114644
0.127322
0.128285
0.127639
0.134315
0.14156
0.140247
0.145531
0.158087
0.167441
0.174051
0.182217
0.194106
0.204209
0.200434
0.183592
0.178515
0.182531
0.0728411
0.0763599
0.0773408
0.0689018
0.053718
0.0460835
0.0500369
0.0546044
0.0605801
0.0688195
0.0806052
0.0901859
0.0994215
0.105105
0.10656
0.107222
0.107438
0.108882
0.1135
0.127683
0.0719296
0.0710835
0.0700856
0.056368
0.0439978
0.0455046
0.0506095
0.0537082
0.0595928
0.0689238
0.0837718
0.0950544
0.11246
0.131562
0.143562
0.155698
0.155268
0.154743
0.154498
0.165993
0.0610586
0.0589561
0.0543124
0.0476941
0.0462071
0.0536666
0.0640163
0.0637582
0.069697
0.0830773
0.0872836
0.0950012
0.111911
0.137136
0.15929
0.180379
0.196985
0.207738
0.212852
0.220165
0.0508442
0.0540651
0.0509174
0.0481481
0.053674
0.0645755
0.0751352
0.0852998
0.102537
0.126755
0.119853
0.123042
0.123957
0.138427
0.164181
0.194504
0.226525
0.257093
0.283559
0.316784
0.0473435
0.0521668
0.0511619
0.052167
0.058153
0.072259
0.0794409
0.0962608
0.131088
0.160056
0.173291
0.187808
0.186707
0.194996
0.199636
0.21658
0.248206
0.29912
0.345313
0.420099
0.045706
0.0485706
0.0496469
0.0523825
0.0591086
0.0775606
0.0799501
0.0981589
0.142678
0.179393
0.21329
0.239021
0.268302
0.294784
0.30908
0.326267
0.342126
0.375659
0.427781
0.5447
0.0448499
0.0422362
0.043056
0.0486582
0.057095
0.0841258
0.0861419
0.0997833
0.139822
0.186538
0.23484
0.274526
0.331051
0.375052
0.419068
0.460606
0.498031
0.536101
0.583003
0.726349
0.0469154
0.0324153
0.0347074
0.0476688
0.0701258
0.0996205
0.107753
0.138986
0.172171
0.201609
0.251364
0.308397
0.386811
0.453136
0.525896
0.603163
0.677561
0.744819
0.820739
0.953185
0.0474839
0.0293443
0.0350597
0.0610985
0.0962334
0.126802
0.160159
0.222295
0.275349
0.327541
0.382606
0.441839
0.510857
0.584297
0.663291
0.766242
0.888678
0.999372
1.17058
1.13485
0.0486168
0.0291775
0.0404015
0.0780101
0.119055
0.151637
0.212024
0.289986
0.378123
0.493195
0.584193
0.676338
0.767057
0.853497
0.934064
1.03888
1.18016
1.32504
1.55915
1.52384
0.0492739
0.0304964
0.0400279
0.0785808
0.121786
0.153485
0.24353
0.325916
0.448144
0.624913
0.771932
0.922497
1.06529
1.19284
1.33326
1.49126
1.65012
1.81859
2.08523
2.08122
0.0424616
0.0262658
0.0265787
0.056577
0.1093
0.158266
0.269443
0.403787
0.619997
0.84876
1.06818
1.27004
1.46678
1.64974
1.87889
2.11126
2.33793
2.56874
2.78983
3.00318
0.0280775
0.0188779
0.0227504
0.0499905
0.105058
0.32044
0.566474
0.852767
1.19601
1.49343
1.7336
1.952
2.17469
2.40695
2.70665
2.98311
3.24771
3.48667
3.64112
3.77674
0.0162274
0.0168659
0.0241574
0.111617
0.327009
0.755201
1.15283
1.56409
2.00291
2.37396
2.63709
2.90775
3.18791
3.48109
3.7956
3.99263
4.09851
4.12786
4.03306
3.90616
0.00915361
0.0211942
0.121982
0.422207
0.944385
1.46255
2.00204
2.57076
3.15212
3.51429
3.75147
4.00915
4.23953
4.40516
4.48503
4.40838
4.18736
3.65287
2.79711
1.89479
0.0229028
0.135668
0.53276
1.18844
2.09366
2.88025
3.52272
4.18431
4.71297
4.82703
4.74464
4.76175
4.72423
4.55915
4.04665
3.07734
2.09306
1.33343
1.01904
0.992871
0.314422
0.882369
1.98814
3.21453
4.21562
4.80648
5.37021
5.85326
5.71192
5.26762
4.84371
4.309
3.3943
2.33134
1.43
1.0306
0.989363
0.994904
0.99731
0.999436
2.32035
3.64478
4.92185
5.72879
6.31866
6.37465
6.49889
6.20597
4.529
3.2042
2.36712
1.5591
1.07765
0.987135
0.992745
0.9962
0.999141
0.999974
1.00002
1.00001
6.97357
6.93746
6.92836
6.99762
7.04631
6.70395
5.99349
2.3705
0.633173
1
1
1
1
1
1
1
1
1
1
1
6.94725
6.90606
6.86762
6.83875
6.89798
5.76471
2.59965
1.01878
1
1
1
1
1
1
1
1
1
1
1
1
6.80167
6.84633
6.82287
6.65604
6.32108
3.27081
1.01219
0.999825
1
1
1
1
1
1
1
1
1
1
1
1
6.68662
6.82595
6.81557
6.46037
4.62625
1.44106
0.995701
1.00008
0.999999
1
1
1
1
1
1
1
1
1
1
1
6.54511
6.82119
6.81657
6.16298
2.74803
0.974601
1.00033
0.999994
1
1
1
1
1
1
1
1
1
1
1
1
6.41042
6.78014
6.80373
4.9658
1.4572
1
1
1
1
1
1
1
1
1
1
1
1
1
1
1
6.35097
6.67085
6.68354
3.53811
0.973281
1
1
1
1
1
1
1
1
1
1
1
1
1
1
1
6.46002
6.61347
6.0255
2.05976
1
1
1
1
1
1
1
1
1
1
1
1
1
1
1
1
6.9574
6.69901
4.91785
1.17211
1
1
1
1
1
1
1
1
1
1
1
1
1
1
1
1
7.22021
6.36482
3.5033
0.987859
1
1
1
1
1
1
1
1
1
1
1
1
1
1
1
1
7.43169
6.0005
2.33363
1
1
1
1
1
1
1
1
1
1
1
1
1
1
1
1
1
7.52445
5.43906
1.59911
1
1
1
1
1
1
1
1
1
1
1
1
1
1
1
1
1
7.5606
4.72798
1.16197
1
1
1
1
1
1
1
1
1
1
1
1
1
1
1
1
1
7.40222
3.95998
1.00069
1
1
1
1
1
1
1
1
1
1
1
1
1
1
1
1
1
7.13643
3.21312
1
1
1
1
1
1
1
1
1
1
1
1
1
1
1
1
1
1
6.92233
2.58799
1
1
1
1
1
1
1
1
1
1
1
1
1
1
1
1
1
1
6.76139
1.88016
1
1
1
1
1
1
1
1
1
1
1
1
1
1
1
1
1
1
6.26947
1.32612
1
1
1
1
1
1
1
1
1
1
1
1
1
1
1
1
1
1
5.68415
1.00446
1
1
1
1
1
1
1
1
1
1
1
1
1
1
1
1
1
1
4.67024
1.0001
1
1
1
1
1
1
1
1
1
1
1
1
1
1
1
1
1
1
4.67091
1.0001
1
1
1
1
1
1
1
1
1
1
1
1
1
1
1
1
1
1
5.68322
1.00441
1
1
1
1
1
1
1
1
1
1
1
1
1
1
1
1
1
1
6.26876
1.3242
1
1
1
1
1
1
1
1
1
1
1
1
1
1
1
1
1
1
6.76376
1.87862
1
1
1
1
1
1
1
1
1
1
1
1
1
1
1
1
1
1
6.92413
2.5914
1
1
1
1
1
1
1
1
1
1
1
1
1
1
1
1
1
1
7.13438
3.22021
1
1
1
1
1
1
1
1
1
1
1
1
1
1
1
1
1
1
7.39739
3.95955
1.00046
1
1
1
1
1
1
1
1
1
1
1
1
1
1
1
1
1
7.56194
4.72981
1.15958
1
1
1
1
1
1
1
1
1
1
1
1
1
1
1
1
1
7.52394
5.42792
1.59995
1
1
1
1
1
1
1
1
1
1
1
1
1
1
1
1
1
7.43496
6.00224
2.32428
1
1
1
1
1
1
1
1
1
1
1
1
1
1
1
1
1
7.22538
6.36731
3.49816
0.98784
1
1
1
1
1
1
1
1
1
1
1
1
1
1
1
1
6.95883
6.70112
4.9227
1.17416
1
1
1
1
1
1
1
1
1
1
1
1
1
1
1
1
6.45622
6.61417
6.02948
2.06672
1
1
1
1
1
1
1
1
1
1
1
1
1
1
1
1
6.35199
6.66871
6.67924
3.54378
0.973264
1
1
1
1
1
1
1
1
1
1
1
1
1
1
1
6.41059
6.77653
6.7994
4.95975
1.45495
1
1
1
1
1
1
1
1
1
1
1
1
1
1
1
6.54643
6.8208
6.81672
6.17292
2.74046
0.974702
1.00033
0.999994
1
1
1
1
1
1
1
1
1
1
1
1
6.68779
6.82652
6.81537
6.45918
4.6256
1.44143
0.995428
1.00008
0.999999
1
1
1
1
1
1
1
1
1
1
1
6.80193
6.84639
6.82132
6.65081
6.32559
3.28022
1.01403
0.999791
1
1
1
1
1
1
1
1
1
1
1
1
6.94565
6.90508
6.86501
6.83577
6.90421
5.76336
2.60263
1.01902
1
1
1
1
1
1
1
1
1
1
1
1
6.97242
6.93538
6.92472
6.99363
7.04593
6.70645
5.99287
2.363
0.63563
1
1
1
1
1
1
1
1
1
1
1
2.3214
3.65578
4.93806
5.74162
6.30545
6.3689
6.50003
6.20479
4.52877
3.20386
2.367
1.55928
1.07773
0.987118
0.992732
0.996193
0.999139
0.999974
1.00002
1.00001
0.304044
0.841881
1.93761
3.19616
4.22428
4.81618
5.3751
5.8519
5.71014
5.26592
4.84263
4.30951
3.39579
2.33294
1.431
1.03085
0.989351
0.994897
0.997307
0.999435
0.0380646
0.172472
0.550675
1.18589
2.08373
2.88065
3.53149
4.19056
4.71221
4.82589
4.74446
4.76179
4.72448
4.55985
4.04822
3.07926
2.09458
1.33416
1.01917
0.992871
0.00678793
0.0305588
0.116289
0.412723
0.93513
1.45402
1.99504
2.56746
3.15197
3.51574
3.7525
4.00893
4.23808
4.40395
4.48454
4.40831
4.18777
3.65372
2.7978
1.89506
0.0114824
0.0222111
0.0291575
0.112581
0.339942
0.761176
1.15421
1.56193
1.99904
2.3718
2.63641
2.90731
3.18687
3.4794
3.79396
3.99214
4.09876
4.12782
4.03295
3.90583
0.0225701
0.0219082
0.0306863
0.0556194
0.107592
0.322649
0.571238
0.859665
1.20087
1.49637
1.73613
1.95393
2.1762
2.40756
2.70675
2.98354
3.24827
3.48706
3.64106
3.77637
0.039789
0.0300974
0.0422942
0.0556539
0.0989112
0.153604
0.26403
0.402478
0.622479
0.850261
1.06913
1.26984
1.4656
1.64822
1.87785
2.11113
2.33861
2.5696
2.79019
3.00298
0.0496219
0.0373853
0.0502645
0.073394
0.115353
0.145809
0.237275
0.319786
0.443687
0.622481
0.76971
0.920548
1.0635
1.19149
1.3326
1.4909
1.64953
1.81789
2.08415
2.07967
0.0524843
0.0361988
0.0469216
0.0793412
0.117547
0.145284
0.208997
0.286039
0.375626
0.492489
0.584066
0.676699
0.767811
0.854547
0.935231
1.03987
1.1805
1.3251
1.5593
1.52425
0.0534144
0.0365953
0.0368729
0.0668473
0.100472
0.12216
0.159663
0.222645
0.276526
0.329278
0.384752
0.443837
0.512495
0.585588
0.663893
0.766533
0.889386
1.00036
1.17123
1.13539
0.0527033
0.0383644
0.0356679
0.0484591
0.0715022
0.0933934
0.107955
0.14103
0.173804
0.201321
0.250277
0.307642
0.386135
0.452841
0.526074
0.603959
0.678679
0.745822
0.820753
0.952422
0.0488794
0.0423616
0.0418654
0.0472038
0.0561319
0.0812935
0.0861377
0.10039
0.138251
0.1844
0.233333
0.273737
0.330752
0.375287
0.420123
0.462139
0.499638
0.537284
0.583824
0.726518
0.0499885
0.0469671
0.0469726
0.050437
0.0589727
0.078493
0.0812696
0.0982446
0.140376
0.177716
0.212227
0.238363
0.268415
0.295452
0.310348
0.327424
0.342979
0.37569
0.427322
0.544288
0.0506495
0.0502539
0.0489596
0.0516565
0.0620625
0.0750518
0.078388
0.0953249
0.129686
0.159024
0.172808
0.187165
0.187478
0.196472
0.200484
0.215942
0.24643
0.297545
0.344111
0.419251
0.0551077
0.0512688
0.0469828
0.049873
0.0583311
0.0672446
0.0722675
0.0846253
0.103172
0.126911
0.120436
0.123844
0.124774
0.137563
0.162127
0.193202
0.225988
0.256974
0.283506
0.316932
0.0605443
0.0571191
0.0499549
0.0455441
0.0513858
0.0564529
0.0594887
0.0658609
0.0728683
0.0846999
0.0877426
0.0944778
0.110076
0.135457
0.158635
0.180568
0.197856
0.209064
0.214551
0.221227
0.0680654
0.0678018
0.0632988
0.050378
0.0439214
0.0471049
0.0491555
0.0529567
0.0592887
0.0690528
0.0833028
0.0938578
0.110998
0.131047
0.144246
0.157204
0.156829
0.156032
0.155566
0.165913
0.0703984
0.0731191
0.0719165
0.0621683
0.0492307
0.0483188
0.0496138
0.0534128
0.0600706
0.0677724
0.0795239
0.0893561
0.0996876
0.106225
0.107807
0.108197
0.108029
0.109272
0.11334
0.126342
0.0789655
0.0886397
0.10193
0.10336
0.101061
0.0971203
0.0929461
0.096782
0.107438
0.120767
0.141957
0.166263
0.194502
0.207752
0.195597
0.183981
0.18592
0.193821
0.214024
0.215234
0.132862
0.217555
0.262158
0.307089
0.350861
0.375439
0.387868
0.399633
0.422343
0.436978
0.452906
0.456109
0.460739
0.472642
0.476292
0.485126
0.509287
0.51752
0.530474
0.533364
0.562949
0.640484
0.69297
0.800977
0.838371
0.872278
0.869449
0.855168
0.850867
0.875661
0.926903
0.957191
0.95022
0.916948
0.87236
0.854266
0.849122
0.856096
0.866755
0.867038
0.270011
0.423254
0.550618
0.670456
0.770481
0.852444
0.870099
0.874197
0.869293
0.88559
0.92225
0.944998
0.942131
0.923811
0.896954
0.872226
0.854248
0.848252
0.853305
0.857141
0.138478
0.165917
0.247151
0.333911
0.506166
0.695375
0.786644
0.865278
0.891898
0.899144
0.911467
0.916691
0.916033
0.914657
0.912404
0.900372
0.873716
0.843782
0.833518
0.837012
0.190602
0.217885
0.226422
0.231265
0.246243
0.320641
0.520427
0.747437
0.83466
0.901689
0.908867
0.895382
0.894653
0.905502
0.916014
0.910121
0.888588
0.848396
0.823003
0.824267
0.236687
0.260198
0.282912
0.284273
0.281414
0.283787
0.302906
0.406784
0.643824
0.830526
0.870624
0.866127
0.878849
0.899307
0.918482
0.914745
0.89537
0.855154
0.81703
0.816359
0.308215
0.327169
0.338754
0.323093
0.307685
0.306716
0.316935
0.333982
0.385312
0.538519
0.746245
0.841352
0.852098
0.874144
0.90513
0.906672
0.889925
0.86508
0.828329
0.815626
0.40237
0.410397
0.400185
0.36936
0.352309
0.352757
0.358132
0.37513
0.384364
0.391855
0.473675
0.69752
0.821505
0.858205
0.870994
0.884547
0.881284
0.867215
0.843129
0.820163
0.525136
0.505518
0.482135
0.447437
0.407062
0.394922
0.39796
0.401418
0.408086
0.410284
0.408338
0.463523
0.664022
0.826751
0.838661
0.85959
0.870559
0.867623
0.852468
0.824167
0.676802
0.617103
0.571089
0.52195
0.469975
0.443584
0.43822
0.43472
0.436932
0.43359
0.428203
0.426358
0.460808
0.607084
0.76532
0.832148
0.862654
0.864463
0.854723
0.828216
0.868347
0.749483
0.688215
0.629352
0.559619
0.503659
0.481285
0.462843
0.454047
0.46049
0.452532
0.448418
0.440074
0.449156
0.544621
0.688633
0.797242
0.85237
0.855862
0.833058
1.27787
0.927878
0.769128
0.728811
0.699909
0.6579
0.573166
0.514049
0.507809
0.504716
0.504718
0.497454
0.485097
0.454716
0.452027
0.484995
0.592834
0.754956
0.837112
0.826757
2.04715
1.51748
1.10167
0.905285
0.869329
0.843114
0.757162
0.639654
0.581825
0.555193
0.546599
0.553389
0.544671
0.521016
0.497804
0.463364
0.462218
0.511171
0.641282
0.780989
2.50025
2.17659
1.7385
1.33775
1.03843
0.942445
0.865643
0.778897
0.699708
0.646821
0.637412
0.635532
0.621635
0.588623
0.558405
0.522573
0.467113
0.461033
0.474222
0.603877
2.366
2.34897
2.23543
1.94512
1.56197
1.23325
1.06181
0.979064
0.914408
0.815152
0.741486
0.702022
0.666098
0.627272
0.603095
0.583234
0.545613
0.501022
0.470095
0.481675
1.68081
2.15167
2.22374
2.1921
2.06272
1.76923
1.473
1.24168
1.09382
0.96748
0.859959
0.783971
0.726917
0.699543
0.694924
0.673629
0.634745
0.587657
0.522621
0.478831
1.10891
1.44065
1.8498
2.11341
2.1123
2.07142
1.9347
1.69063
1.42242
1.23383
1.10236
0.983557
0.903976
0.84203
0.788955
0.735745
0.686038
0.637379
0.58639
0.52638
1.00452
1.04484
1.20606
1.55057
1.86259
2.01722
2.01314
1.97283
1.83071
1.62628
1.40774
1.21321
1.08281
0.983893
0.869546
0.786895
0.750874
0.722175
0.692954
0.622844
1.00009
1.00112
1.01057
1.07833
1.27108
1.56963
1.82513
1.93592
1.92779
1.8865
1.76945
1.57983
1.38408
1.23011
1.07128
0.978581
0.905008
0.818422
0.774337
0.710341
1
1.00001
1.00015
1.00249
1.01909
1.1011
1.28894
1.55685
1.76445
1.85662
1.85171
1.81907
1.71526
1.54933
1.37364
1.21042
1.0763
0.938024
0.837512
0.762378
1
1
1
1.00003
1.00032
1.004
1.0241
1.10745
1.28671
1.51921
1.70341
1.79063
1.78491
1.75258
1.66973
1.5129
1.34706
1.20446
1.06761
0.908217
1
1
1
1
1
1.00005
1.00048
1.00468
1.02647
1.10598
1.26263
1.47486
1.64398
1.71903
1.7092
1.67204
1.60321
1.48062
1.34029
1.13979
1
1
1
1
1
1
1
1.00006
1.00058
1.00481
1.02514
1.09389
1.23692
1.42386
1.56877
1.62948
1.61052
1.57135
1.51291
1.37777
1
1
1
1
1
1
1
1
1.00001
1.00006
1.00059
1.00419
1.02253
1.08144
1.19829
1.34594
1.46262
1.51186
1.49934
1.43421
1
1
1
1
1
1
1
1
1
1
1.00001
1.00006
1.00053
1.00347
1.01761
1.05804
1.13866
1.24295
1.32847
1.35738
1
1
1
1
1
1
1
1
1
1
1
1
1.00001
1.00005
1.00038
1.00218
1.01017
1.03199
1.07673
1.15445
1.61793
2.46528
2.58523
2.08627
1.3102
1.03695
1.00187
1.00005
1
1
1
1
1
1
1
2.34731
2.81594
2.52676
1.53875
1.04791
1.0008
1
1
1
1
1
1
1
1
1
2.93161
2.86822
1.97589
1.15127
1.00515
1.00005
1
1
1
1
1
1
1
1
1
3.25241
2.55573
1.36508
1.01948
1.0002
1
1
1
1
1
1
1
1
1
1
3.32002
1.6853
1.04709
1.00048
1
1
1
1
1
1
1
1
1
1
1
2.06698
1.07333
1.0005
0.999999
1
1
1
1
1
1
1
1
1
1
1
1.1025
1.00056
0.999997
1
1
1
1
1
1
1
1
1
1
1
1
0.998139
0.999865
0.999996
1
1
1
1
1
1
1
1
1
1
1
1
0.999966
1
1
1
1
1
1
1
1
1
1
1
1
1
1
1
1
1
1
1
1
1
1
1
1
1
1
1
1
1
1
1
1
1
1
1
1
1
1
1
1
1
1
1
1
1
1
1
1
1
1
1
1
1
1
1
1
1
1
1
1
1
1
1
1
1
1
1
1
1
1
1
1
1
1
1
1
1
1
1
1
1
1
1
1
1
1
1
1
1
1
1
1
1
1
1
1
1
1
1
1
1
1
1
1
1
1
1
1
1
1
1
1
1
1
1
1
1
1
1
1
1
1
1
1
1
1
1
1
1
1
1
1
1
1
1
1
1
1
1
1
1
1
1
1
1
1
1
1
1
1
1
1
1
1
1
1
1
1
1
1
1
1
1
1
1
1
1
1
1
1
1
1
1
1
1
1
1
1
1
1
1
1
1
1
1
1
1
1
1
1
1
1
1
1
1
1
1
1
1
1
1
1
1
1
1
1
1
1
1
1
1
1
1
1
1
1
1
1
1
1
1
1
1
1
1
1
1
1
1
1
1
1
1
1
1
1
1
1
1
1
1
1
1
1
1
1
1
1
1
1
1
1
1
1
1
1
1
1
1
1
1
1
1
1
1
1
1
1
1
1
1
1
1
1
1
1
1
1
1
1
1
1
1
1
1
1
1
1
1
1
1
1
1
1
1
1
1
1
1
1
1
1
1
1
1
1
1
1
1
1
1
1
1
1
1
1
1
1
1
1
1
1
1
1
1
1
1
1
1
1
1
1
1
1
1
1
1
1
1
1
1
1
1
1
1
1
1
1
1
1
1
1
1
1
1
1
1
1
1
1
1
1
1
1
1
1
1
1
1
1
1
1
1
1
1
1
1
1
1
1
1
1
1
1
1
1
1
1
1
1
1
1
1
1
1
1
1
1
1
1
1
1
1
1
1
1
1
1
1
1
1
1
1
1
1
1
1
1
1
1
1
1
1
1
1
1
1
1
1
1
1
1
1
1
1
1
1
1
1
1
1
1
1
1
1
1
1
1
1
1
1
1
1
1
1
1
1
1
1
1
1
1
1
1
1
1
1
1
1
1
1
1
1
1
1
1
1
1
1
1
1
1
1
1
1
1
1
1
1
1
1
1
1
1
1
1
1
1
1
1
1
1
1
1
1
1
1
1
1
1
1
1
1
1
1
1
1
1
1
1
1
1
1
1
1
1
1
1
1
1
1
1
1
1
1
1
1
1
1
1
1
1
1
1
1
1
1
1
1
1
1
1
1
1
1
1
1
1
1
1
1
1
1
1
1
1
1
1
1
1
1
1
1
1
1
1
1
1
1
1
1
1
1
1
1
1
1
1
1
1
1
1
1
1
1
1
1
1
1
1
1
1
1
1
1
1
1
1
1
1
1
1
1
1
1
1
1
1
1
1
1
1
1
1
1
1
1
1
1
1
1
1
1
1
1
1
1
1
1
1
1
1
1
1
1
1
1
1
1
1
1
1
1
1
1
1
1
1
1
1
1
1
1
1
1
1
1
1
1
1
1
1
1
1
1
1
1
1
1
1
1
1
1
1
1
1
1
1
1
1
1
1
1
1
1
1
1
1
1
1
1
1
1
1
1
1
1
1
1
1
1
1
1
1
1
1
1
1
1
1
1
1
1
1
1
1
1
1
1
1
1
1
1
1
1
1
1
1
1
1
1
1
1
1
1
1
1
1
1
1
1
1
1
1
1
1
1
1
1
1
1
1
1
1
1
1
1
1
1
1
1
1
1
1
1
1
1
1
1
1
1
1
1
1
1
1
1
1
1
1
1
1
1
1
1
1
1
1
1
1
1
1
1
1
1
1
1
1
1
1
1
1
1
1
1
1
1
1
1
1
1
1
1
1
1
1
1
1
1
1
1
1
1
1
1
1
1
1
1
1
1
1
1
1
0.999966
1
1
1
1
1
1
1
1
1
1
1
1
1
1
0.998139
0.999865
0.999996
1
1
1
1
1
1
1
1
1
1
1
1
1.10251
1.00056
0.999997
1
1
1
1
1
1
1
1
1
1
1
1
2.06681
1.07332
1.0005
0.999999
1
1
1
1
1
1
1
1
1
1
1
3.31978
1.68538
1.0471
1.00048
1
1
1
1
1
1
1
1
1
1
1
3.25227
2.55578
1.36525
1.0195
1.0002
1
1
1
1
1
1
1
1
1
1
2.93111
2.86794
1.97595
1.15132
1.00515
1.00005
1
1
1
1
1
1
1
1
1
2.34692
2.81577
2.52673
1.53874
1.0479
1.0008
1
1
1
1
1
1
1
1
1
1.61798
2.46542
2.58533
2.08626
1.31015
1.03693
1.00187
1.00005
1
1
1
1
1
1
1
1.2771
2.04693
2.50049
2.36601
1.68071
1.1089
1.00452
1.00009
1
1
1
1
1
1
1
0.926792
1.51927
2.17624
2.34899
2.15156
1.44071
1.04486
1.00112
1.00001
1
1
1
1
1
1
0.770983
1.10258
1.73879
2.23539
2.22391
1.84992
1.20609
1.01057
1.00015
1
1
1
1
1
1
0.727624
0.902616
1.3381
1.94503
2.19225
2.11345
1.55057
1.07833
1.00249
1.00003
1
1
1
1
1
0.696215
0.867451
1.03869
1.56259
2.06291
2.11231
1.86264
1.27108
1.01909
1.00032
1
1
1
1
1
0.654611
0.842187
0.941617
1.23398
1.76942
2.07139
2.01718
1.56967
1.1011
1.004
1.00005
1
1
1
1
0.573595
0.757954
0.864674
1.06113
1.47284
1.93471
2.01309
1.82506
1.28896
1.0241
1.00048
1
1
1
1
0.514202
0.64079
0.778926
0.979369
1.24197
1.69038
1.97269
1.93583
1.5568
1.10747
1.00468
1.00006
1
1
1
0.507782
0.581949
0.69937
0.914687
1.09381
1.42235
1.8307
1.92775
1.76442
1.28666
1.02646
1.00058
1.00001
1
1
0.504756
0.554916
0.646791
0.814903
0.967065
1.23434
1.62647
1.88652
1.85668
1.51921
1.10596
1.0048
1.00006
1
1
0.504473
0.546486
0.637947
0.741356
0.859315
1.10254
1.40788
1.76956
1.85176
1.70346
1.26265
1.02514
1.00059
1.00001
1
0.497098
0.553243
0.635983
0.702009
0.783698
0.983588
1.21302
1.57989
1.8191
1.79064
1.47491
1.09391
1.00419
1.00006
1
0.484309
0.544438
0.621729
0.665725
0.727109
0.904313
1.08277
1.38399
1.71524
1.78491
1.64398
1.23695
1.02254
1.00053
1.00001
0.454096
0.52078
0.588679
0.626737
0.698953
0.842183
0.984006
1.22999
1.54928
1.75254
1.71903
1.42388
1.08144
1.00347
1.00005
0.451874
0.497741
0.558739
0.602745
0.694459
0.788937
0.869884
1.0712
1.37356
1.66978
1.70923
1.56881
1.1983
1.01761
1.00038
0.485003
0.463419
0.523348
0.58328
0.673392
0.735535
0.787085
0.978924
1.21035
1.51304
1.6721
1.62954
1.34596
1.05803
1.00218
0.591927
0.46189
0.467522
0.5463
0.634731
0.685713
0.750554
0.905574
1.07649
1.34693
1.60327
1.61058
1.46265
1.13866
1.01017
0.752174
0.509758
0.460751
0.501591
0.588081
0.637428
0.721577
0.81841
0.938975
1.20458
1.48084
1.5714
1.51189
1.24296
1.03199
0.837011
0.638978
0.473954
0.469971
0.522755
0.586677
0.692667
0.773472
0.837292
1.06827
1.34039
1.51294
1.49936
1.32848
1.07673
0.827043
0.780936
0.604336
0.481547
0.478708
0.526322
0.623493
0.710079
0.761631
0.908542
1.13975
1.37774
1.43421
1.35738
1.15445
0.86903
0.74809
0.686484
0.629425
0.561313
0.508572
0.484568
0.465485
0.453865
0.460229
0.452044
0.447981
0.440971
0.449978
0.543716
0.690062
0.798001
0.852858
0.856842
0.834002
0.677482
0.615772
0.569915
0.523417
0.474481
0.448438
0.441384
0.437063
0.43776
0.433367
0.427666
0.426095
0.460808
0.60537
0.764982
0.831367
0.862623
0.864325
0.855809
0.828107
0.524671
0.505172
0.481411
0.447447
0.406296
0.391562
0.395267
0.398877
0.407192
0.40976
0.408215
0.463462
0.663733
0.827532
0.839703
0.859063
0.870911
0.867507
0.852756
0.822934
0.402791
0.408397
0.401429
0.375531
0.356799
0.355336
0.359449
0.375939
0.384835
0.392019
0.474773
0.699525
0.821953
0.857554
0.8704
0.884087
0.881733
0.867819
0.843016
0.819467
0.308645
0.327264
0.338268
0.322266
0.305622
0.304968
0.3159
0.333404
0.383464
0.537895
0.746626
0.843533
0.852989
0.873483
0.904062
0.906367
0.890223
0.866401
0.828403
0.815134
0.234953
0.264835
0.273503
0.280099
0.281397
0.284973
0.30511
0.407483
0.640237
0.829418
0.869008
0.869845
0.880723
0.899435
0.917806
0.914025
0.895116
0.85631
0.816906
0.816101
0.189906
0.215949
0.239546
0.237426
0.246956
0.320464
0.524628
0.750766
0.835274
0.899923
0.906459
0.891327
0.893881
0.906704
0.915304
0.908565
0.887806
0.847493
0.822104
0.82452
0.139167
0.158123
0.238602
0.329805
0.503442
0.692318
0.788093
0.868116
0.89247
0.89951
0.912028
0.916037
0.916594
0.917622
0.912554
0.898965
0.873554
0.844214
0.833049
0.837383
0.299616
0.419212
0.532642
0.657186
0.770714
0.851603
0.869536
0.875373
0.87017
0.88423
0.918476
0.943073
0.9407
0.92461
0.899989
0.873256
0.85266
0.845402
0.850626
0.856586
0.571689
0.638085
0.685842
0.794308
0.838578
0.886531
0.881481
0.864211
0.853692
0.874087
0.92839
0.963814
0.958568
0.928708
0.879895
0.853422
0.847513
0.854169
0.865102
0.868771
)
;

boundaryField
{
    inlet
    {
        type            fixedValue;
        value           uniform 1;
    }
    outlet
    {
        type            zeroGradient;
    }
    airfoil
    {
        type            zeroGradient;
    }
    top
    {
        type            symmetryPlane;
    }
    bottom
    {
        type            symmetryPlane;
    }
    defaultFaces
    {
        type            empty;
    }
}


// ************************************************************************* //
