/*--------------------------------*- C++ -*----------------------------------*\
  =========                 |
  \\      /  F ield         | OpenFOAM: The Open Source CFD Toolbox
   \\    /   O peration     | Website:  https://openfoam.org
    \\  /    A nd           | Version:  7
     \\/     M anipulation  |
\*---------------------------------------------------------------------------*/
FoamFile
{
    version     2.0;
    format      ascii;
    class       volScalarField;
    location    "3";
    object      rho;
}
// * * * * * * * * * * * * * * * * * * * * * * * * * * * * * * * * * * * * * //

dimensions      [1 -3 0 0 0 0 0];

internalField   nonuniform List<scalar> 
3700
(
0.182366
0.312781
0.384538
0.461349
0.524897
0.558695
0.568034
0.591781
0.60879
0.622647
0.630521
0.628381
0.625745
0.643147
0.660215
0.680166
0.704042
0.69646
0.699932
0.728383
0.112698
0.133484
0.159828
0.177397
0.178617
0.177538
0.186748
0.196873
0.195228
0.202633
0.220089
0.23314
0.242403
0.25375
0.27019
0.284176
0.278984
0.255784
0.249026
0.254676
0.101838
0.106752
0.108138
0.0964094
0.0752484
0.0645901
0.0701157
0.0765017
0.0848579
0.0963666
0.112825
0.126214
0.139124
0.147069
0.149118
0.150069
0.150395
0.152425
0.158877
0.178696
0.100619
0.0994394
0.0980596
0.0789393
0.061677
0.0637892
0.0709306
0.0752614
0.0834917
0.0965291
0.117277
0.133035
0.157348
0.18403
0.200797
0.217761
0.217183
0.216505
0.216218
0.232277
0.085465
0.0825185
0.0760489
0.0668329
0.0647694
0.0752042
0.0896764
0.089333
0.0976439
0.116344
0.12221
0.132985
0.156607
0.191832
0.22277
0.252222
0.275398
0.290431
0.297607
0.307864
0.0711854
0.0756784
0.0713026
0.0674449
0.0751622
0.090395
0.105168
0.11939
0.143496
0.177344
0.16774
0.172198
0.173469
0.193668
0.229636
0.271973
0.316651
0.359287
0.396234
0.44258
0.0662753
0.0730053
0.0716194
0.0730324
0.0813764
0.101073
0.111145
0.134642
0.18326
0.223732
0.242251
0.262557
0.261061
0.272657
0.279169
0.302846
0.346981
0.417953
0.482348
0.586578
0.0639559
0.0679668
0.0694944
0.0733264
0.0826989
0.10845
0.111828
0.137259
0.199366
0.250619
0.297952
0.333906
0.374774
0.411757
0.431735
0.455749
0.477911
0.524692
0.597327
0.760152
0.0627388
0.0591105
0.0602901
0.0681358
0.0799012
0.117632
0.120467
0.139509
0.19537
0.260556
0.327961
0.383352
0.462171
0.523558
0.584938
0.642866
0.695058
0.748113
0.813461
1.013
0.0656281
0.045424
0.0486502
0.0667681
0.0981388
0.139313
0.150676
0.194251
0.240566
0.281616
0.35103
0.43058
0.539878
0.63233
0.733705
0.841332
0.944956
1.03861
1.14424
1.32843
0.0664809
0.0411615
0.0491507
0.0855612
0.134615
0.177286
0.223817
0.31044
0.384439
0.457156
0.533915
0.616455
0.712648
0.814986
0.925013
1.06832
1.23866
1.39264
1.63057
1.58094
0.0681114
0.0409484
0.0566288
0.109163
0.166468
0.211898
0.296096
0.404745
0.527519
0.68774
0.814509
0.942805
1.06909
1.18943
1.30157
1.44741
1.64388
1.84523
2.17032
2.12127
0.0690631
0.0428133
0.0561036
0.109933
0.170275
0.214454
0.339958
0.454778
0.624954
0.870943
1.0756
1.28511
1.48375
1.66115
1.8563
2.07582
2.29644
2.53039
2.90049
2.89485
0.0595555
0.0369078
0.037314
0.079199
0.152818
0.221057
0.376
0.563155
0.863977
1.18223
1.48747
1.7682
2.04169
2.29586
2.61392
2.93632
3.25072
3.57089
3.87767
4.17382
0.0394209
0.0265508
0.031961
0.0700139
0.146835
0.446731
0.789094
1.18718
1.66418
2.07756
2.41146
2.715
3.0243
3.34654
3.76208
4.14526
4.51202
4.84347
5.05824
5.24689
0.0228278
0.0237248
0.0338949
0.156007
0.455781
1.05107
1.60371
2.17495
2.78424
3.29954
3.66497
4.04055
4.42892
4.83502
5.2708
5.54393
5.69111
5.73233
5.60216
5.4283
0.0129014
0.029766
0.170421
0.588233
1.31378
2.03354
2.78254
3.57165
4.37819
4.88074
5.20962
5.56654
5.88528
6.1148
6.22571
6.12001
5.81618
5.07954
3.89579
2.64533
0.0322228
0.189732
0.742215
1.65285
2.90894
4.00004
4.89093
5.80805
6.54094
6.69882
6.58452
6.60817
6.55609
6.3284
5.62171
4.28152
2.9198
1.86493
1.42658
1.39005
0.439683
1.22888
2.76307
4.46293
5.85017
6.66908
7.45002
8.11954
7.92385
7.3083
6.72121
5.98251
4.71783
3.24853
1.99901
1.44269
1.38516
1.39289
1.39625
1.39922
3.22605
5.06039
6.82814
7.94506
8.76205
8.84054
9.01268
8.6082
6.28764
4.45206
3.2951
2.17769
1.50827
1.38205
1.38988
1.3947
1.39881
1.39997
1.40003
1.40002
9.66647
9.61661
9.60426
9.70072
9.76931
9.29809
8.3175
3.30324
0.887884
1.40001
1.40001
1.40001
1.40001
1.40001
1.40001
1.40001
1.40001
1.40001
1.40001
1.40001
9.62993
9.57306
9.52027
9.48149
9.56607
8.00309
3.62209
1.42611
1.40001
1.40001
1.40001
1.40001
1.40001
1.40001
1.40001
1.40001
1.40001
1.40001
1.40001
1.40001
9.42882
9.49059
9.45844
9.22916
8.76938
4.55137
1.4168
1.39976
1.40001
1.40001
1.40001
1.40001
1.40001
1.40001
1.40001
1.40001
1.40001
1.40001
1.40001
1.40001
9.26989
9.46253
9.44846
8.95915
6.42609
2.01253
1.39403
1.40011
1.4
1.40001
1.40001
1.40001
1.40001
1.40001
1.40001
1.40001
1.40001
1.40001
1.40001
1.40001
9.07436
9.45611
9.45008
8.54901
3.82527
1.36456
1.40046
1.4
1.40001
1.40001
1.40001
1.40001
1.40001
1.40001
1.40001
1.40001
1.40001
1.40001
1.40001
1.40001
8.88818
9.39966
9.43275
6.89471
2.03466
1.40001
1.40001
1.40001
1.40001
1.40001
1.40001
1.40001
1.40001
1.40001
1.40001
1.40001
1.40001
1.40001
1.40001
1.40001
8.80593
9.24876
9.26742
4.91908
1.3627
1.40001
1.40001
1.40001
1.40001
1.40001
1.40001
1.40001
1.40001
1.40001
1.40001
1.40001
1.40001
1.40001
1.40001
1.40001
8.95607
9.16957
8.35927
2.87014
1.40001
1.40001
1.40001
1.40001
1.40001
1.40001
1.40001
1.40001
1.40001
1.40001
1.40001
1.40001
1.40001
1.40001
1.40001
1.40001
9.64348
9.28808
6.82893
1.63885
1.40001
1.40001
1.40001
1.40001
1.40001
1.40001
1.40001
1.40001
1.40001
1.40001
1.40001
1.40001
1.40001
1.40001
1.40001
1.40001
10.0067
8.82742
4.87112
1.38306
1.40001
1.40001
1.40001
1.40001
1.40001
1.40001
1.40001
1.40001
1.40001
1.40001
1.40001
1.40001
1.40001
1.40001
1.40001
1.40001
10.299
8.32516
3.25044
1.40001
1.40001
1.40001
1.40001
1.40001
1.40001
1.40001
1.40001
1.40001
1.40001
1.40001
1.40001
1.40001
1.40001
1.40001
1.40001
1.40001
10.4271
7.55006
2.23172
1.40001
1.40001
1.40001
1.40001
1.40001
1.40001
1.40001
1.40001
1.40001
1.40001
1.40001
1.40001
1.40001
1.40001
1.40001
1.40001
1.40001
10.477
6.5671
1.62497
1.40001
1.40001
1.40001
1.40001
1.40001
1.40001
1.40001
1.40001
1.40001
1.40001
1.40001
1.40001
1.40001
1.40001
1.40001
1.40001
1.40001
10.258
5.50399
1.40097
1.40001
1.40001
1.40001
1.40001
1.40001
1.40001
1.40001
1.40001
1.40001
1.40001
1.40001
1.40001
1.40001
1.40001
1.40001
1.40001
1.40001
9.89075
4.46865
1.40001
1.40001
1.40001
1.40001
1.40001
1.40001
1.40001
1.40001
1.40001
1.40001
1.40001
1.40001
1.40001
1.40001
1.40001
1.40001
1.40001
1.40001
9.5961
3.60193
1.40001
1.40001
1.40001
1.40001
1.40001
1.40001
1.40001
1.40001
1.40001
1.40001
1.40001
1.40001
1.40001
1.40001
1.40001
1.40001
1.40001
1.40001
9.37647
2.62088
1.40001
1.40001
1.40001
1.40001
1.40001
1.40001
1.40001
1.40001
1.40001
1.40001
1.40001
1.40001
1.40001
1.40001
1.40001
1.40001
1.40001
1.40001
8.69928
1.8527
1.40001
1.40001
1.40001
1.40001
1.40001
1.40001
1.40001
1.40001
1.40001
1.40001
1.40001
1.40001
1.40001
1.40001
1.40001
1.40001
1.40001
1.40001
7.89016
1.4062
1.40001
1.40001
1.40001
1.40001
1.40001
1.40001
1.40001
1.40001
1.40001
1.40001
1.40001
1.40001
1.40001
1.40001
1.40001
1.40001
1.40001
1.40001
6.4854
1.40014
1.40001
1.40001
1.40001
1.40001
1.40001
1.40001
1.40001
1.40001
1.40001
1.40001
1.40001
1.40001
1.40001
1.40001
1.40001
1.40001
1.40001
1.40001
6.48634
1.40015
1.40001
1.40001
1.40001
1.40001
1.40001
1.40001
1.40001
1.40001
1.40001
1.40001
1.40001
1.40001
1.40001
1.40001
1.40001
1.40001
1.40001
1.40001
7.88888
1.40613
1.40001
1.40001
1.40001
1.40001
1.40001
1.40001
1.40001
1.40001
1.40001
1.40001
1.40001
1.40001
1.40001
1.40001
1.40001
1.40001
1.40001
1.40001
8.69835
1.85006
1.40001
1.40001
1.40001
1.40001
1.40001
1.40001
1.40001
1.40001
1.40001
1.40001
1.40001
1.40001
1.40001
1.40001
1.40001
1.40001
1.40001
1.40001
9.37979
2.61875
1.40001
1.40001
1.40001
1.40001
1.40001
1.40001
1.40001
1.40001
1.40001
1.40001
1.40001
1.40001
1.40001
1.40001
1.40001
1.40001
1.40001
1.40001
9.59856
3.60664
1.40001
1.40001
1.40001
1.40001
1.40001
1.40001
1.40001
1.40001
1.40001
1.40001
1.40001
1.40001
1.40001
1.40001
1.40001
1.40001
1.40001
1.40001
9.88786
4.47845
1.40001
1.40001
1.40001
1.40001
1.40001
1.40001
1.40001
1.40001
1.40001
1.40001
1.40001
1.40001
1.40001
1.40001
1.40001
1.40001
1.40001
1.40001
10.2512
5.50339
1.40064
1.40001
1.40001
1.40001
1.40001
1.40001
1.40001
1.40001
1.40001
1.40001
1.40001
1.40001
1.40001
1.40001
1.40001
1.40001
1.40001
1.40001
10.4788
6.56965
1.62165
1.40001
1.40001
1.40001
1.40001
1.40001
1.40001
1.40001
1.40001
1.40001
1.40001
1.40001
1.40001
1.40001
1.40001
1.40001
1.40001
1.40001
10.4264
7.53465
2.23288
1.40001
1.40001
1.40001
1.40001
1.40001
1.40001
1.40001
1.40001
1.40001
1.40001
1.40001
1.40001
1.40001
1.40001
1.40001
1.40001
1.40001
10.3035
8.3276
3.2375
1.40001
1.40001
1.40001
1.40001
1.40001
1.40001
1.40001
1.40001
1.40001
1.40001
1.40001
1.40001
1.40001
1.40001
1.40001
1.40001
1.40001
10.0139
8.83091
4.86402
1.38303
1.40001
1.40001
1.40001
1.40001
1.40001
1.40001
1.40001
1.40001
1.40001
1.40001
1.40001
1.40001
1.40001
1.40001
1.40001
1.40001
9.6455
9.291
6.83561
1.6417
1.40001
1.40001
1.40001
1.40001
1.40001
1.40001
1.40001
1.40001
1.40001
1.40001
1.40001
1.40001
1.40001
1.40001
1.40001
1.40001
8.95081
9.17052
8.36471
2.87977
1.40001
1.40001
1.40001
1.40001
1.40001
1.40001
1.40001
1.40001
1.40001
1.40001
1.40001
1.40001
1.40001
1.40001
1.40001
1.40001
8.80732
9.24578
9.26144
4.92693
1.36268
1.40001
1.40001
1.40001
1.40001
1.40001
1.40001
1.40001
1.40001
1.40001
1.40001
1.40001
1.40001
1.40001
1.40001
1.40001
8.88839
9.39464
9.42676
6.88635
2.03153
1.40001
1.40001
1.40001
1.40001
1.40001
1.40001
1.40001
1.40001
1.40001
1.40001
1.40001
1.40001
1.40001
1.40001
1.40001
9.07617
9.45556
9.4503
8.5628
3.8148
1.3647
1.40047
1.4
1.40001
1.40001
1.40001
1.40001
1.40001
1.40001
1.40001
1.40001
1.40001
1.40001
1.40001
1.40001
9.27149
9.4633
9.44819
8.95755
6.42522
2.01303
1.39365
1.40012
1.4
1.40001
1.40001
1.40001
1.40001
1.40001
1.40001
1.40001
1.40001
1.40001
1.40001
1.40001
9.42916
9.49066
9.4563
9.22194
8.7756
4.5644
1.41937
1.39972
1.40001
1.40001
1.40001
1.40001
1.40001
1.40001
1.40001
1.40001
1.40001
1.40001
1.40001
1.40001
9.6277
9.57168
9.51665
9.47737
9.57466
8.00118
3.62622
1.42643
1.40001
1.40001
1.40001
1.40001
1.40001
1.40001
1.40001
1.40001
1.40001
1.40001
1.40001
1.40001
9.66487
9.61372
9.59921
9.69519
9.76877
9.30151
8.31664
3.29286
0.89132
1.40001
1.40001
1.40001
1.40001
1.40001
1.40001
1.40001
1.40001
1.40001
1.40001
1.40001
3.22751
5.07564
6.85058
7.96279
8.74376
8.83259
9.01429
8.60659
6.28733
4.45158
3.29491
2.17793
1.50839
1.38203
1.38986
1.39469
1.3988
1.39997
1.40003
1.40002
0.425119
1.17253
2.69296
4.43745
5.86213
6.6825
7.45678
8.11768
7.92142
7.30597
6.71971
5.98319
4.71989
3.25074
2.0004
1.44304
1.38514
1.39288
1.39625
1.39922
0.0535337
0.241132
0.767144
1.64931
2.89517
4.00059
4.90306
5.8167
6.53989
6.69726
6.5843
6.60822
6.55644
6.32936
5.62388
4.28417
2.92191
1.86593
1.42676
1.39005
0.00956314
0.0429244
0.162513
0.575016
1.30087
2.02169
2.77282
3.56709
4.37801
4.88277
5.21106
5.56623
5.88326
6.11311
6.22504
6.1199
5.81675
5.08071
3.89675
2.64571
0.0161282
0.0311947
0.0408849
0.157328
0.473748
1.05937
1.60562
2.17196
2.77889
3.29657
3.66404
4.03994
4.42747
4.83267
5.26853
5.54325
5.69145
5.73227
5.60199
5.42785
0.0316306
0.0307673
0.0430499
0.0778936
0.150346
0.449788
0.795735
1.19678
1.67095
2.08165
2.41499
2.71767
3.02638
3.34738
3.76222
4.14585
4.51281
4.844
5.05816
5.24637
0.055706
0.0422341
0.0593039
0.0779464
0.138362
0.214567
0.368472
0.561339
0.867433
1.18433
1.48879
1.76793
2.04006
2.29376
2.61249
2.93615
3.25166
3.57208
3.87817
4.17355
0.0694565
0.052425
0.0704441
0.102709
0.161313
0.203776
0.33126
0.446259
0.618769
0.867575
1.07252
1.28241
1.48127
1.65927
1.85539
2.07533
2.29561
2.52941
2.899
2.8927
0.0734432
0.0507523
0.0657722
0.111038
0.164382
0.203056
0.291895
0.399268
0.524063
0.686771
0.814342
0.943312
1.07014
1.19089
1.30319
1.44878
1.64435
1.84532
2.17054
2.12184
0.0747187
0.0512964
0.051701
0.0936036
0.140551
0.170832
0.223147
0.310949
0.386098
0.459591
0.536917
0.619247
0.714936
0.816788
0.925853
1.06872
1.23964
1.39401
1.63149
1.5817
0.0737147
0.0537496
0.0500032
0.0678693
0.100067
0.130639
0.150982
0.197126
0.242864
0.281236
0.349535
0.429544
0.538946
0.631924
0.733953
0.842438
0.946512
1.04001
1.14426
1.32737
0.0683863
0.0593063
0.0586326
0.0660951
0.0785549
0.113689
0.120468
0.14036
0.193189
0.25759
0.325873
0.382262
0.461758
0.523885
0.586407
0.645
0.697296
0.74976
0.814603
1.01323
0.0699605
0.0657429
0.065757
0.0705869
0.0824972
0.109749
0.11366
0.137374
0.196162
0.248287
0.296472
0.33299
0.374932
0.412687
0.433503
0.457363
0.4791
0.524736
0.596687
0.759577
0.070906
0.070348
0.0685412
0.0722958
0.0868171
0.104958
0.109663
0.133333
0.181307
0.222293
0.241576
0.261659
0.262137
0.274713
0.280349
0.301951
0.344503
0.415758
0.480673
0.585397
0.0771426
0.0717813
0.0658069
0.0698389
0.0816491
0.0941134
0.101165
0.11845
0.144383
0.177562
0.168553
0.173319
0.174611
0.192459
0.226765
0.270154
0.3159
0.359119
0.396159
0.442783
0.0847326
0.0799552
0.0699682
0.0638274
0.0720072
0.0791057
0.0833659
0.0922828
0.102085
0.118617
0.122853
0.132253
0.154041
0.189487
0.221853
0.252481
0.27661
0.292277
0.299973
0.309341
0.0952003
0.0948456
0.0885936
0.0705802
0.0615758
0.0660348
0.068905
0.0742169
0.0830705
0.0967123
0.116623
0.131364
0.155304
0.183309
0.20175
0.219858
0.219357
0.218297
0.217707
0.232164
0.0984101
0.102216
0.100578
0.0870246
0.0689829
0.0677227
0.0695347
0.0748433
0.0841507
0.0949049
0.111315
0.125053
0.139493
0.148629
0.150856
0.151424
0.151215
0.152967
0.158651
0.17682
0.110305
0.123763
0.142218
0.144214
0.140907
0.135359
0.129602
0.135003
0.14982
0.16835
0.197822
0.231559
0.270642
0.289007
0.272222
0.256301
0.259056
0.270013
0.298086
0.299884
0.184903
0.302242
0.36391
0.425894
0.486066
0.519893
0.537166
0.553565
0.585017
0.605196
0.627035
0.631224
0.637595
0.654103
0.659256
0.671671
0.70525
0.7167
0.734711
0.738812
0.780042
0.887564
0.960462
1.11035
1.16256
1.20983
1.20614
1.18663
1.18092
1.21537
1.28649
1.32854
1.31899
1.27307
1.21146
1.18661
1.1797
1.18942
1.20421
1.20494
0.37603
0.588711
0.765286
0.931783
1.07058
1.18416
1.20849
1.21404
1.20726
1.22995
1.28088
1.31245
1.30852
1.28323
1.2461
1.21198
1.18724
1.17895
1.18589
1.19144
0.193807
0.232099
0.3453
0.466163
0.705794
0.968692
1.09513
1.20382
1.24042
1.25047
1.26759
1.27476
1.27379
1.27188
1.26878
1.25216
1.21526
1.17367
1.15924
1.16407
0.266614
0.304784
0.31671
0.323493
0.344401
0.448073
0.726168
1.04174
1.16258
1.25554
1.26549
1.24664
1.2455
1.26053
1.27516
1.267
1.23712
1.1812
1.14569
1.14711
0.330938
0.363779
0.395523
0.397461
0.393513
0.396823
0.423469
0.568147
0.897875
1.1574
1.21316
1.20683
1.22441
1.25281
1.27947
1.2743
1.24742
1.19146
1.13825
1.13689
0.430713
0.457189
0.473395
0.451603
0.430137
0.42879
0.443044
0.466806
0.538317
0.751542
1.0405
1.17274
1.18768
1.21831
1.26138
1.26355
1.24033
1.20575
1.15448
1.13648
0.561953
0.573194
0.559012
0.516094
0.492318
0.492957
0.500458
0.52417
0.53705
0.547489
0.661425
0.972904
1.14536
1.19641
1.21421
1.23307
1.22857
1.20899
1.17537
1.1432
0.732967
0.705698
0.673162
0.624839
0.568572
0.551692
0.555961
0.560825
0.570147
0.573229
0.570536
0.647423
0.926488
1.15287
1.16948
1.1986
1.21386
1.20974
1.18856
1.14906
0.944084
0.861013
0.796973
0.72857
0.65618
0.619455
0.61206
0.607257
0.610376
0.605744
0.598262
0.595732
0.643755
0.847456
1.0677
1.16068
1.2031
1.2055
1.19185
1.15492
1.21045
1.04515
0.959943
0.878074
0.781018
0.703124
0.672051
0.646459
0.634265
0.643264
0.632205
0.626517
0.614928
0.627656
0.760682
0.961196
1.11234
1.1889
1.19359
1.16188
1.77949
1.29328
1.0726
1.01658
0.976391
0.917938
0.800043
0.717821
0.709212
0.70496
0.705007
0.694928
0.677757
0.635461
0.631806
0.677785
0.828055
1.05378
1.16792
1.15351
2.8484
2.11286
1.53513
1.26224
1.21235
1.17592
1.05635
0.892826
0.812399
0.77541
0.763503
0.772995
0.760909
0.728026
0.695753
0.647781
0.646299
0.714589
0.895829
1.09038
3.47921
3.02943
2.42072
1.86389
1.44789
1.31447
1.20764
1.08689
0.976698
0.903165
0.890166
0.887624
0.868346
0.822433
0.780396
0.730516
0.653209
0.644872
0.663318
0.844146
3.29633
3.27067
3.11275
2.70913
2.1765
1.71949
1.48105
1.36593
1.27599
1.1379
1.03541
0.980537
0.930579
0.876531
0.842904
0.815298
0.76291
0.700797
0.657697
0.674063
2.34727
3.00101
3.09942
3.05421
2.87417
2.46589
2.05386
1.7321
1.52636
1.3505
1.20081
1.09504
1.01562
0.977539
0.97119
0.941601
0.88746
0.821871
0.731182
0.670251
1.55182
2.01398
2.58316
2.94888
2.94578
2.88804
2.69766
2.35792
1.98464
1.72211
1.53907
1.37363
1.2628
1.17656
1.10268
1.02859
0.959332
0.891516
0.820433
0.736831
1.40631
1.46257
1.68738
2.16743
2.60157
2.81595
2.80913
2.75237
2.55436
2.26963
1.96529
1.69434
1.51266
1.37485
1.21549
1.1003
1.05012
1.01014
0.969443
0.871752
1.40013
1.40157
1.41475
1.50929
1.77812
2.19423
2.54987
2.70354
2.69143
2.63345
2.47027
2.20604
1.93331
1.71875
1.49732
1.36809
1.26555
1.14484
1.08341
0.994231
1.40001
1.40002
1.40021
1.40348
1.42665
1.54107
1.80308
2.17657
2.46564
2.59368
2.58617
2.54048
2.39573
2.16442
1.91954
1.69198
1.50498
1.31213
1.17195
1.06722
1.40001
1.40001
1.40001
1.40004
1.40045
1.40559
1.43364
1.54994
1.79999
2.12418
2.38076
2.50206
2.49364
2.4485
2.33296
2.11429
1.88311
1.68429
1.49343
1.27111
1.40001
1.40001
1.40001
1.40001
1.40001
1.40007
1.40067
1.40654
1.43694
1.54788
1.76642
2.06238
2.29805
2.40243
2.3885
2.33668
2.24072
2.06979
1.87413
1.59452
1.40001
1.40001
1.40001
1.40001
1.40001
1.40001
1.40001
1.40009
1.40082
1.40671
1.43509
1.53101
1.73056
1.99125
2.19326
2.27772
2.25124
2.19662
2.11515
1.92673
1.40001
1.40001
1.40001
1.40001
1.40001
1.40001
1.40001
1.40001
1.40001
1.40009
1.40082
1.40585
1.43145
1.51364
1.67667
1.88258
2.04529
2.11388
2.09641
2.00562
1.40001
1.40001
1.40001
1.40001
1.40001
1.40001
1.40001
1.40001
1.40001
1.40001
1.40001
1.40008
1.40075
1.40485
1.42458
1.48099
1.59347
1.73896
1.85825
1.89857
1.40001
1.40001
1.40001
1.40001
1.40001
1.40001
1.40001
1.40001
1.40001
1.40001
1.40001
1.40001
1.40001
1.40007
1.40053
1.40305
1.4142
1.44465
1.50708
1.6155
2.25165
3.42899
3.59741
2.90869
1.83168
1.45148
1.40262
1.40007
1.40001
1.40001
1.40001
1.40001
1.40001
1.40001
1.40001
3.2643
3.91636
3.51927
2.14961
1.46676
1.40113
1.40001
1.4
1.40001
1.40001
1.40001
1.40001
1.40001
1.40001
1.40001
4.07557
3.9902
2.756
1.6106
1.40718
1.40007
1.40001
1.40001
1.40001
1.40001
1.40001
1.40001
1.40001
1.40001
1.40001
4.5209
3.55958
1.90792
1.42714
1.40028
1.40001
1.40001
1.40001
1.40001
1.40001
1.40001
1.40001
1.40001
1.40001
1.40001
4.61796
2.35271
1.46557
1.40068
1.40001
1.40001
1.40001
1.40001
1.40001
1.40001
1.40001
1.40001
1.40001
1.40001
1.40001
2.88244
1.5021
1.4007
1.4
1.4
1.40001
1.40001
1.40001
1.40001
1.40001
1.40001
1.40001
1.40001
1.40001
1.40001
1.54284
1.40078
1.4
1.4
1.40001
1.40001
1.40001
1.40001
1.40001
1.40001
1.40001
1.40001
1.40001
1.40001
1.40001
1.39741
1.39982
1.4
1.40001
1.40001
1.40001
1.40001
1.40001
1.40001
1.40001
1.40001
1.40001
1.40001
1.40001
1.40001
1.39996
1.40001
1.40001
1.40001
1.40001
1.40001
1.40001
1.40001
1.40001
1.40001
1.40001
1.40001
1.40001
1.40001
1.40001
1.40001
1.40001
1.40001
1.40001
1.40001
1.40001
1.40001
1.40001
1.40001
1.40001
1.40001
1.40001
1.40001
1.40001
1.40001
1.40001
1.40001
1.40001
1.40001
1.40001
1.40001
1.40001
1.40001
1.40001
1.40001
1.40001
1.40001
1.40001
1.40001
1.40001
1.40001
1.40001
1.40001
1.40001
1.40001
1.40001
1.40001
1.40001
1.40001
1.40001
1.40001
1.40001
1.40001
1.40001
1.40001
1.40001
1.40001
1.40001
1.40001
1.40001
1.40001
1.40001
1.40001
1.40001
1.40001
1.40001
1.40001
1.40001
1.40001
1.40001
1.40001
1.40001
1.40001
1.40001
1.40001
1.40001
1.40001
1.40001
1.40001
1.40001
1.40001
1.40001
1.40001
1.40001
1.40001
1.40001
1.40001
1.40001
1.40001
1.40001
1.40001
1.40001
1.40001
1.40001
1.40001
1.40001
1.40001
1.40001
1.40001
1.40001
1.40001
1.40001
1.40001
1.40001
1.40001
1.40001
1.40001
1.40001
1.40001
1.40001
1.40001
1.40001
1.40001
1.40001
1.40001
1.40001
1.40001
1.40001
1.40001
1.40001
1.40001
1.40001
1.40001
1.40001
1.40001
1.40001
1.40001
1.40001
1.40001
1.40001
1.40001
1.40001
1.40001
1.40001
1.40001
1.40001
1.40001
1.40001
1.40001
1.40001
1.40001
1.40001
1.40001
1.40001
1.40001
1.40001
1.40001
1.40001
1.40001
1.40001
1.40001
1.40001
1.40001
1.40001
1.40001
1.40001
1.40001
1.40001
1.40001
1.40001
1.40001
1.40001
1.40001
1.40001
1.40001
1.40001
1.40001
1.40001
1.40001
1.40001
1.40001
1.40001
1.40001
1.40001
1.40001
1.40001
1.40001
1.40001
1.40001
1.40001
1.40001
1.40001
1.40001
1.40001
1.40001
1.40001
1.40001
1.40001
1.40001
1.40001
1.40001
1.40001
1.40001
1.40001
1.40001
1.40001
1.40001
1.40001
1.40001
1.40001
1.40001
1.40001
1.40001
1.40001
1.40001
1.40001
1.40001
1.40001
1.40001
1.40001
1.40001
1.40001
1.40001
1.40001
1.40001
1.40001
1.40001
1.40001
1.40001
1.40001
1.40001
1.40001
1.40001
1.40001
1.40001
1.40001
1.40001
1.40001
1.40001
1.40001
1.40001
1.40001
1.40001
1.40001
1.40001
1.40001
1.40001
1.40001
1.40001
1.40001
1.40001
1.40001
1.40001
1.40001
1.40001
1.40001
1.40001
1.40001
1.40001
1.40001
1.40001
1.40001
1.40001
1.40001
1.40001
1.40001
1.40001
1.40001
1.40001
1.40001
1.40001
1.40001
1.40001
1.40001
1.40001
1.40001
1.40001
1.40001
1.40001
1.40001
1.40001
1.40001
1.40001
1.40001
1.40001
1.40001
1.40001
1.40001
1.40001
1.40001
1.40001
1.40001
1.40001
1.40001
1.40001
1.40001
1.40001
1.40001
1.40001
1.40001
1.40001
1.40001
1.40001
1.40001
1.40001
1.40001
1.40001
1.40001
1.40001
1.40001
1.40001
1.40001
1.40001
1.40001
1.40001
1.40001
1.40001
1.40001
1.40001
1.40001
1.40001
1.40001
1.40001
1.40001
1.40001
1.40001
1.40001
1.40001
1.40001
1.40001
1.40001
1.40001
1.40001
1.40001
1.40001
1.40001
1.40001
1.40001
1.40001
1.40001
1.40001
1.40001
1.40001
1.40001
1.40001
1.40001
1.40001
1.40001
1.40001
1.40001
1.40001
1.40001
1.40001
1.40001
1.40001
1.40001
1.40001
1.40001
1.40001
1.40001
1.40001
1.40001
1.40001
1.40001
1.40001
1.40001
1.40001
1.40001
1.40001
1.40001
1.40001
1.40001
1.40001
1.40001
1.40001
1.40001
1.40001
1.40001
1.40001
1.40001
1.40001
1.40001
1.40001
1.40001
1.40001
1.40001
1.40001
1.40001
1.40001
1.40001
1.40001
1.40001
1.40001
1.40001
1.40001
1.40001
1.40001
1.40001
1.40001
1.40001
1.40001
1.40001
1.40001
1.40001
1.40001
1.40001
1.40001
1.40001
1.40001
1.40001
1.40001
1.40001
1.40001
1.40001
1.40001
1.40001
1.40001
1.40001
1.40001
1.40001
1.40001
1.40001
1.40001
1.40001
1.40001
1.40001
1.40001
1.40001
1.40001
1.40001
1.40001
1.40001
1.40001
1.40001
1.40001
1.40001
1.40001
1.40001
1.40001
1.40001
1.40001
1.40001
1.40001
1.40001
1.40001
1.40001
1.40001
1.40001
1.40001
1.40001
1.40001
1.40001
1.40001
1.40001
1.40001
1.40001
1.40001
1.40001
1.40001
1.40001
1.40001
1.40001
1.40001
1.40001
1.40001
1.40001
1.40001
1.40001
1.40001
1.40001
1.40001
1.40001
1.40001
1.40001
1.40001
1.40001
1.40001
1.40001
1.40001
1.40001
1.40001
1.40001
1.40001
1.40001
1.40001
1.40001
1.40001
1.40001
1.40001
1.40001
1.40001
1.40001
1.40001
1.40001
1.40001
1.40001
1.40001
1.40001
1.40001
1.40001
1.40001
1.40001
1.40001
1.40001
1.40001
1.40001
1.40001
1.40001
1.40001
1.40001
1.40001
1.40001
1.40001
1.40001
1.40001
1.40001
1.40001
1.40001
1.40001
1.40001
1.40001
1.40001
1.40001
1.40001
1.40001
1.40001
1.40001
1.40001
1.40001
1.40001
1.40001
1.40001
1.40001
1.40001
1.40001
1.40001
1.40001
1.40001
1.40001
1.40001
1.40001
1.40001
1.40001
1.40001
1.40001
1.40001
1.40001
1.40001
1.40001
1.40001
1.40001
1.40001
1.40001
1.40001
1.40001
1.40001
1.40001
1.40001
1.40001
1.40001
1.40001
1.40001
1.40001
1.40001
1.40001
1.40001
1.40001
1.40001
1.40001
1.40001
1.40001
1.40001
1.40001
1.40001
1.40001
1.40001
1.40001
1.40001
1.40001
1.40001
1.40001
1.40001
1.40001
1.40001
1.40001
1.40001
1.40001
1.40001
1.40001
1.40001
1.40001
1.40001
1.40001
1.40001
1.40001
1.40001
1.40001
1.40001
1.40001
1.40001
1.40001
1.40001
1.40001
1.40001
1.40001
1.40001
1.40001
1.40001
1.40001
1.40001
1.40001
1.40001
1.40001
1.40001
1.40001
1.40001
1.40001
1.40001
1.40001
1.40001
1.40001
1.40001
1.40001
1.40001
1.40001
1.40001
1.40001
1.40001
1.40001
1.40001
1.40001
1.40001
1.40001
1.40001
1.40001
1.40001
1.40001
1.40001
1.40001
1.40001
1.40001
1.40001
1.40001
1.40001
1.40001
1.40001
1.40001
1.40001
1.40001
1.40001
1.40001
1.40001
1.40001
1.40001
1.40001
1.40001
1.40001
1.40001
1.40001
1.40001
1.40001
1.40001
1.40001
1.40001
1.40001
1.40001
1.40001
1.40001
1.40001
1.40001
1.40001
1.40001
1.40001
1.40001
1.40001
1.40001
1.40001
1.40001
1.40001
1.40001
1.40001
1.40001
1.40001
1.40001
1.40001
1.40001
1.40001
1.40001
1.40001
1.40001
1.40001
1.40001
1.40001
1.40001
1.40001
1.40001
1.40001
1.40001
1.40001
1.40001
1.40001
1.40001
1.40001
1.40001
1.40001
1.40001
1.40001
1.40001
1.40001
1.40001
1.40001
1.40001
1.40001
1.40001
1.40001
1.40001
1.40001
1.40001
1.40001
1.40001
1.40001
1.40001
1.40001
1.40001
1.40001
1.40001
1.40001
1.40001
1.40001
1.40001
1.40001
1.40001
1.40001
1.40001
1.40001
1.40001
1.40001
1.40001
1.40001
1.40001
1.40001
1.40001
1.40001
1.40001
1.40001
1.40001
1.40001
1.40001
1.40001
1.40001
1.40001
1.40001
1.40001
1.40001
1.40001
1.40001
1.40001
1.40001
1.40001
1.40001
1.40001
1.40001
1.40001
1.40001
1.40001
1.40001
1.40001
1.40001
1.40001
1.40001
1.40001
1.40001
1.40001
1.40001
1.40001
1.40001
1.40001
1.40001
1.40001
1.40001
1.40001
1.40001
1.40001
1.40001
1.40001
1.40001
1.40001
1.40001
1.40001
1.40001
1.40001
1.40001
1.40001
1.40001
1.40001
1.40001
1.40001
1.40001
1.40001
1.40001
1.40001
1.40001
1.40001
1.40001
1.40001
1.40001
1.40001
1.40001
1.40001
1.40001
1.40001
1.40001
1.40001
1.40001
1.40001
1.40001
1.40001
1.40001
1.40001
1.40001
1.40001
1.40001
1.40001
1.40001
1.40001
1.40001
1.40001
1.40001
1.40001
1.40001
1.40001
1.40001
1.40001
1.40001
1.40001
1.40001
1.40001
1.40001
1.40001
1.40001
1.40001
1.40001
1.40001
1.40001
1.40001
1.40001
1.40001
1.40001
1.40001
1.40001
1.39996
1.40001
1.40001
1.40001
1.40001
1.40001
1.40001
1.40001
1.40001
1.40001
1.40001
1.40001
1.40001
1.40001
1.40001
1.39741
1.39982
1.4
1.40001
1.40001
1.40001
1.40001
1.40001
1.40001
1.40001
1.40001
1.40001
1.40001
1.40001
1.40001
1.54286
1.40078
1.4
1.4
1.40001
1.40001
1.40001
1.40001
1.40001
1.40001
1.40001
1.40001
1.40001
1.40001
1.40001
2.88221
1.50208
1.4007
1.4
1.4
1.40001
1.40001
1.40001
1.40001
1.40001
1.40001
1.40001
1.40001
1.40001
1.40001
4.61762
2.35282
1.46558
1.40067
1.40001
1.40001
1.40001
1.40001
1.40001
1.40001
1.40001
1.40001
1.40001
1.40001
1.40001
4.5207
3.55965
1.90816
1.42717
1.40028
1.40001
1.40001
1.40001
1.40001
1.40001
1.40001
1.40001
1.40001
1.40001
1.40001
4.07489
3.98981
2.75609
1.61068
1.40718
1.40007
1.40001
1.40001
1.40001
1.40001
1.40001
1.40001
1.40001
1.40001
1.40001
3.26376
3.91611
3.51922
2.1496
1.46675
1.40113
1.40001
1.4
1.40001
1.40001
1.40001
1.40001
1.40001
1.40001
1.40001
2.25172
3.4292
3.59755
2.90869
1.83162
1.45146
1.40262
1.40007
1.40001
1.40001
1.40001
1.40001
1.40001
1.40001
1.40001
1.77842
2.84809
3.47954
3.29634
2.34713
1.55179
1.40631
1.40013
1.40001
1.40001
1.40001
1.40001
1.40001
1.40001
1.40001
1.29177
2.11534
3.02894
3.27069
3.00086
2.01406
1.46259
1.40157
1.40002
1.40001
1.40001
1.40001
1.40001
1.40001
1.40001
1.07518
1.5364
2.42112
3.1127
3.09966
2.58332
1.68743
1.41475
1.40021
1.40001
1.40001
1.40001
1.40001
1.40001
1.40001
1.01493
1.25853
1.86438
2.709
3.05442
2.94894
2.16743
1.50929
1.40348
1.40004
1.40001
1.40001
1.40001
1.40001
1.40001
0.971255
1.20974
1.44825
2.17737
2.87443
2.9458
2.60163
1.77812
1.42665
1.40045
1.40001
1.40001
1.40001
1.40001
1.40001
0.913365
1.17463
1.31332
1.72051
2.46616
2.888
2.81591
2.19427
1.54107
1.40559
1.40007
1.40001
1.40001
1.40001
1.40001
0.800643
1.05746
1.2063
1.4801
2.05363
2.69767
2.80906
2.54978
1.80311
1.43364
1.40067
1.40001
1.40001
1.40001
1.40001
0.718035
0.89441
1.08694
1.36636
1.73251
2.35758
2.75217
2.70341
2.1765
1.54996
1.40654
1.40009
1.40001
1.40001
1.40001
0.709174
0.812572
0.976228
1.27638
1.52634
1.98453
2.55434
2.69137
2.4656
1.79991
1.43693
1.40082
1.40001
1.40001
1.40001
0.705015
0.775023
0.903124
1.13755
1.34992
1.72282
2.26989
2.63348
2.59376
2.12419
1.54785
1.40671
1.40009
1.40001
1.40001
0.704664
0.763345
0.890911
1.03522
1.19991
1.53932
1.96549
2.47043
2.58624
2.38082
1.76645
1.43509
1.40082
1.40001
1.40001
0.694431
0.772792
0.888253
0.98052
1.09466
1.37368
1.69407
2.20612
2.54052
2.50208
2.06244
1.53105
1.40585
1.40008
1.40001
0.676659
0.760583
0.868477
0.930058
1.01589
1.26327
1.51261
1.93318
2.3957
2.49364
2.29806
1.7306
1.43146
1.40075
1.40001
0.634595
0.727697
0.82251
0.875786
0.976716
1.17677
1.37501
1.71858
2.16436
2.44845
2.40244
1.99128
1.51365
1.40485
1.40007
0.631594
0.695665
0.780862
0.842415
0.970542
1.10266
1.21596
1.49722
1.91943
2.33302
2.38855
2.19331
1.67668
1.42458
1.40053
0.677795
0.647858
0.731596
0.815363
0.94127
1.0283
1.10057
1.36857
1.69189
2.11448
2.33677
2.2778
1.88261
1.48099
1.40305
0.826793
0.645842
0.653781
0.763869
0.887441
0.958878
1.04967
1.26634
1.50525
1.88293
2.24079
2.25132
2.04533
1.59348
1.4142
1.04991
0.71262
0.644477
0.701591
0.822463
0.891585
1.00931
1.14482
1.31346
1.68445
2.07009
2.19669
2.11392
1.73897
1.44465
1.16777
0.892619
0.662942
0.657523
0.731367
0.820833
0.969043
1.0822
1.17165
1.49436
1.87427
2.1152
2.09644
1.85825
1.50708
1.15391
1.0903
0.844785
0.673884
0.670079
0.736749
0.872658
0.993866
1.06617
1.27156
1.59446
1.92669
2.00561
1.89856
1.6155
1.2114
1.04321
0.957535
0.878178
0.783382
0.70997
0.676625
0.650136
0.634012
0.642899
0.631526
0.625908
0.616178
0.628804
0.759422
0.96318
1.11339
1.18959
1.19496
1.16319
0.945027
0.859162
0.79534
0.730614
0.662458
0.626217
0.616466
0.610516
0.611528
0.605433
0.597514
0.595366
0.643757
0.845073
1.06723
1.15959
1.20305
1.20531
1.19336
1.15477
0.732318
0.705217
0.672154
0.624852
0.567504
0.547011
0.552207
0.557283
0.5689
0.572498
0.570364
0.647339
0.926086
1.15395
1.17093
1.19787
1.21434
1.20958
1.18896
1.14735
0.562536
0.570409
0.560747
0.524691
0.498574
0.496551
0.502292
0.525297
0.537707
0.547718
0.662953
0.975691
1.14599
1.19551
1.21338
1.23243
1.22919
1.20984
1.17522