/*--------------------------------*- C++ -*----------------------------------*\
  =========                 |
  \\      /  F ield         | OpenFOAM: The Open Source CFD Toolbox
   \\    /   O peration     | Website:  https://openfoam.org
    \\  /    A nd           | Version:  7
     \\/     M anipulation  |
\*---------------------------------------------------------------------------*/
FoamFile
{
    version     2.0;
    format      ascii;
    class       volScalarField;
    location    "3";
    object      T;
}
// * * * * * * * * * * * * * * * * * * * * * * * * * * * * * * * * * * * * * //

dimensions      [0 0 0 1 0 0 0];

internalField   nonuniform List<scalar> 
3700
(
100.615
100.802
100.884
100.993
101.082
101.13
101.132
101.128
101.11
101.108
101.15
101.164
101.155
101.153
101.151
101.144
101.131
101.095
101.033
101.026
100.227
100.314
100.422
100.481
100.55
100.652
100.693
100.666
100.573
100.548
100.561
100.548
100.524
100.534
100.577
100.605
100.582
100.487
100.36
100.341
100.138
100.143
100.129
100.055
99.9429
99.887
99.909
99.9278
99.9464
99.9803
100.02
100.037
100.048
100.053
100.044
100.029
100.013
100.007
100.015
100.034
100.083
100.078
100.062
99.9698
99.8705
99.8707
99.8914
99.9074
99.9263
99.9634
100.004
100.031
100.061
100.086
100.095
100.1
100.088
100.063
100.037
100.049
100.02
100.025
99.9853
99.9089
99.8778
99.9059
99.9406
99.9203
99.9306
99.9694
99.9899
100.013
100.044
100.082
100.106
100.123
100.138
100.139
100.13
100.119
99.9954
100.017
99.9749
99.9445
99.9756
100.012
100.021
100.026
100.04
100.064
100.033
100.036
100.041
100.067
100.095
100.123
100.153
100.179
100.189
100.208
100.009
100.039
100.011
100.002
100.047
100.089
100.066
100.092
100.144
100.155
100.147
100.143
100.126
100.124
100.115
100.121
100.147
100.196
100.226
100.266
100.051
100.048
100.017
100.013
100.065
100.125
100.091
100.119
100.193
100.212
100.22
100.217
100.227
100.229
100.226
100.225
100.223
100.235
100.263
100.32
100.082
100.035
99.9809
99.9792
100.04
100.123
100.109
100.135
100.195
100.229
100.249
100.257
100.282
100.29
100.301
100.309
100.315
100.325
100.338
100.385
100.082
99.9065
99.8773
99.9528
100.038
100.112
100.118
100.17
100.197
100.226
100.251
100.273
100.307
100.326
100.348
100.368
100.384
100.398
100.419
100.454
99.9953
99.807
99.8638
99.973
100.083
100.133
100.182
100.25
100.273
100.307
100.325
100.344
100.358
100.372
100.389
100.414
100.444
100.466
100.505
100.497
99.93
99.7566
99.8826
100.047
100.126
100.187
100.249
100.306
100.352
100.398
100.413
100.432
100.448
100.46
100.471
100.485
100.508
100.533
100.576
100.571
99.885
99.7241
99.8852
100.073
100.133
100.198
100.29
100.331
100.392
100.452
100.475
100.497
100.516
100.532
100.553
100.576
100.598
100.619
100.65
100.652
99.8168
99.6327
99.7219
100.011
100.132
100.234
100.325
100.382
100.465
100.511
100.537
100.558
100.578
100.6
100.632
100.662
100.689
100.71
100.725
100.734
99.7152
99.5418
99.655
99.9616
100.168
100.422
100.503
100.564
100.615
100.638
100.646
100.656
100.671
100.693
100.724
100.75
100.771
100.782
100.778
100.773
99.5214
99.5258
99.7805
100.165
100.446
100.591
100.64
100.68
100.713
100.728
100.736
100.75
100.772
100.797
100.817
100.826
100.823
100.815
100.788
100.743
99.3309
99.6839
100.208
100.486
100.636
100.69
100.731
100.768
100.795
100.805
100.815
100.832
100.851
100.858
100.857
100.846
100.793
100.679
100.518
100.279
99.507
100.107
100.492
100.663
100.763
100.808
100.836
100.861
100.875
100.881
100.881
100.882
100.882
100.86
100.776
100.625
100.36
100.101
100.006
99.9978
100.116
100.524
100.736
100.839
100.884
100.9
100.917
100.924
100.92
100.908
100.893
100.838
100.725
100.473
100.15
100.011
99.9966
99.9985
99.9992
99.9998
100.696
100.836
100.915
100.947
100.96
100.95
100.952
100.932
100.843
100.76
100.573
100.232
100.029
99.9957
99.9977
99.9989
99.9998
100
100
100
100.999
100.997
100.994
100.989
100.978
100.941
100.883
100.468
99.8379
100
100
100
100
100
100
100
100
100
100
100
100.999
100.997
100.992
100.979
100.953
100.844
100.481
100.014
100
100
100
100
100
100
100
100
100
100
100
100
100.992
100.994
100.99
100.968
100.914
100.61
100.019
99.9997
100
100
100
100
100
100
100
100
100
100
100
100
100.986
100.992
100.988
100.953
100.789
100.247
99.9968
100
100
100
100
100
100
100
100
100
100
100
100
100
100.979
100.99
100.986
100.926
100.575
99.9919
100
100
100
100
100
100
100
100
100
100
100
100
100
100
100.973
100.985
100.981
100.833
100.267
100
100
100
100
100
100
100
100
100
100
100
100
100
100
100
100.971
100.978
100.966
100.697
99.9926
100
100
100
100
100
100
100
100
100
100
100
100
100
100
100
100.982
100.974
100.915
100.472
100
100
100
100
100
100
100
100
100
100
100
100
100
100
100
100
101.005
100.975
100.821
100.129
100
100
100
100
100
100
100
100
100
100
100
100
100
100
100
100
101.016
100.944
100.688
99.9964
100
100
100
100
100
100
100
100
100
100
100
100
100
100
100
100
101.024
100.908
100.512
100
100
100
100
100
100
100
100
100
100
100
100
100
100
100
100
100
101.028
100.856
100.316
100
100
100
100
100
100
100
100
100
100
100
100
100
100
100
100
100
101.03
100.793
100.11
100
100
100
100
100
100
100
100
100
100
100
100
100
100
100
100
100
101.025
100.727
100
100
100
100
100
100
100
100
100
100
100
100
100
100
100
100
100
100
101.014
100.666
100
100
100
100
100
100
100
100
100
100
100
100
100
100
100
100
100
100
100.992
100.59
100
100
100
100
100
100
100
100
100
100
100
100
100
100
100
100
100
100
100.955
100.433
100
100
100
100
100
100
100
100
100
100
100
100
100
100
100
100
100
100
100.897
100.209
100
100
100
100
100
100
100
100
100
100
100
100
100
100
100
100
100
100
100.858
100.004
100
100
100
100
100
100
100
100
100
100
100
100
100
100
100
100
100
100
100.817
100
100
100
100
100
100
100
100
100
100
100
100
100
100
100
100
100
100
100
100.817
100
100
100
100
100
100
100
100
100
100
100
100
100
100
100
100
100
100
100
100.858
100.004
100
100
100
100
100
100
100
100
100
100
100
100
100
100
100
100
100
100
100.896
100.207
100
100
100
100
100
100
100
100
100
100
100
100
100
100
100
100
100
100
100.954
100.433
100
100
100
100
100
100
100
100
100
100
100
100
100
100
100
100
100
100
100.992
100.591
100
100
100
100
100
100
100
100
100
100
100
100
100
100
100
100
100
100
101.014
100.667
100
100
100
100
100
100
100
100
100
100
100
100
100
100
100
100
100
100
101.026
100.727
100
100
100
100
100
100
100
100
100
100
100
100
100
100
100
100
100
100
101.03
100.793
100.109
100
100
100
100
100
100
100
100
100
100
100
100
100
100
100
100
100
101.027
100.855
100.316
100
100
100
100
100
100
100
100
100
100
100
100
100
100
100
100
100
101.023
100.907
100.51
100
100
100
100
100
100
100
100
100
100
100
100
100
100
100
100
100
101.015
100.944
100.687
99.9964
100
100
100
100
100
100
100
100
100
100
100
100
100
100
100
100
101.005
100.975
100.822
100.13
100
100
100
100
100
100
100
100
100
100
100
100
100
100
100
100
100.982
100.974
100.916
100.474
100
100
100
100
100
100
100
100
100
100
100
100
100
100
100
100
100.971
100.978
100.967
100.698
99.9926
100
100
100
100
100
100
100
100
100
100
100
100
100
100
100
100.973
100.985
100.981
100.832
100.266
100
100
100
100
100
100
100
100
100
100
100
100
100
100
100
100.979
100.99
100.986
100.926
100.573
99.9919
100
100
100
100
100
100
100
100
100
100
100
100
100
100
100.986
100.992
100.988
100.953
100.788
100.247
99.9968
100
100
100
100
100
100
100
100
100
100
100
100
100
100.992
100.994
100.99
100.968
100.915
100.612
100.02
99.9997
100
100
100
100
100
100
100
100
100
100
100
100
101
100.997
100.992
100.979
100.953
100.844
100.482
100.014
100
100
100
100
100
100
100
100
100
100
100
100
100.999
100.997
100.994
100.989
100.978
100.941
100.883
100.466
99.839
100
100
100
100
100
100
100
100
100
100
100
100.696
100.837
100.916
100.948
100.96
100.95
100.952
100.931
100.843
100.76
100.574
100.233
100.029
99.9956
99.9977
99.9988
99.9998
100
100
100
100.128
100.521
100.731
100.838
100.885
100.9
100.917
100.924
100.919
100.908
100.893
100.838
100.725
100.474
100.15
100.011
99.9966
99.9985
99.9992
99.9998
99.5459
100.137
100.496
100.664
100.762
100.808
100.837
100.861
100.875
100.881
100.881
100.882
100.883
100.86
100.776
100.626
100.36
100.101
100.006
99.9978
99.3725
99.6696
100.18
100.487
100.64
100.69
100.73
100.767
100.794
100.805
100.815
100.832
100.851
100.858
100.857
100.846
100.794
100.679
100.518
100.279
99.6731
99.6825
99.8427
100.182
100.458
100.593
100.64
100.679
100.712
100.727
100.735
100.75
100.772
100.797
100.817
100.826
100.823
100.815
100.788
100.743
99.8978
99.6888
99.7933
99.9663
100.189
100.427
100.503
100.565
100.615
100.638
100.646
100.656
100.671
100.694
100.724
100.751
100.771
100.782
100.778
100.773
99.9978
99.7689
99.8453
99.9607
100.083
100.223
100.318
100.38
100.466
100.51
100.537
100.557
100.578
100.6
100.632
100.662
100.689
100.711
100.725
100.734
100.021
99.837
99.8955
100.041
100.113
100.176
100.28
100.323
100.387
100.45
100.474
100.496
100.516
100.531
100.553
100.576
100.598
100.619
100.65
100.651
100.048
99.8546
99.8758
100.036
100.113
100.169
100.241
100.298
100.347
100.395
100.412
100.431
100.448
100.46
100.471
100.486
100.509
100.533
100.576
100.571
100.083
99.8776
99.8478
99.9818
100.078
100.112
100.171
100.243
100.269
100.305
100.324
100.343
100.358
100.372
100.389
100.414
100.444
100.466
100.505
100.497
100.095
99.927
99.8639
99.9612
100.036
100.086
100.103
100.161
100.19
100.219
100.245
100.269
100.305
100.325
100.348
100.369
100.385
100.398
100.419
100.454
100.066
100
99.9644
99.9856
100.038
100.107
100.104
100.132
100.188
100.222
100.244
100.254
100.281
100.29
100.301
100.31
100.315
100.325
100.338
100.385
100.034
100.017
100.008
100.036
100.079
100.129
100.104
100.123
100.186
100.208
100.218
100.216
100.227
100.23
100.227
100.226
100.224
100.235
100.262
100.32
100.005
100.011
100.004
100.033
100.081
100.109
100.074
100.092
100.14
100.154
100.147
100.142
100.127
100.127
100.117
100.122
100.145
100.194
100.225
100.266
100.011
99.9933
99.9533
99.9766
100.018
100.031
100.01
100.022
100.04
100.064
100.034
100.036
100.042
100.067
100.094
100.122
100.153
100.18
100.19
100.208
100.035
100.015
99.9556
99.8974
99.9072
99.9098
99.9023
99.9163
99.9323
99.9694
99.9891
100.012
100.043
100.081
100.107
100.124
100.141
100.142
100.133
100.122
100.096
100.081
100.028
99.9281
99.8609
99.8672
99.8737
99.8958
99.9205
99.9607
100.001
100.029
100.06
100.086
100.097
100.104
100.094
100.068
100.04
100.049
100.15
100.147
100.105
100.013
99.9134
99.8875
99.8919
99.9129
99.9386
99.9756
100.017
100.037
100.05
100.058
100.049
100.034
100.017
100.009
100.016
100.033
100.224
100.269
100.341
100.341
100.411
100.451
100.404
100.365
100.396
100.431
100.465
100.523
100.614
100.639
100.593
100.497
100.476
100.495
100.52
100.482
100.597
100.773
100.855
100.947
101.058
101.101
101.089
101.07
101.071
101.086
101.122
101.161
101.167
101.161
101.146
101.118
101.1
101.093
101.083
101.069
101.037
101.027
101.01
100.993
100.96
100.939
100.92
100.894
100.872
100.869
100.869
100.868
100.858
100.837
100.813
100.789
100.769
100.766
100.769
100.74
100.528
100.653
100.729
100.736
100.756
100.782
100.799
100.811
100.808
100.803
100.802
100.804
100.8
100.788
100.774
100.754
100.734
100.73
100.737
100.719
100.033
100.08
100.207
100.282
100.403
100.499
100.564
100.63
100.664
100.667
100.668
100.675
100.68
100.679
100.677
100.668
100.654
100.65
100.663
100.666
100.086
100.084
100.089
100.086
100.099
100.184
100.335
100.449
100.512
100.544
100.548
100.553
100.563
100.569
100.57
100.567
100.558
100.556
100.569
100.599
100.128
100.137
100.14
100.132
100.119
100.121
100.142
100.238
100.388
100.461
100.471
100.476
100.488
100.497
100.501
100.498
100.489
100.484
100.492
100.529
100.183
100.186
100.182
100.161
100.145
100.143
100.15
100.165
100.208
100.318
100.408
100.439
100.443
100.451
100.46
100.459
100.449
100.445
100.449
100.475
100.243
100.238
100.224
100.196
100.186
100.184
100.186
100.193
100.198
100.203
100.26
100.373
100.415
100.425
100.427
100.43
100.426
100.423
100.427
100.44
100.304
100.288
100.272
100.252
100.232
100.217
100.213
100.207
100.206
100.204
100.2
100.233
100.339
100.398
100.397
100.403
100.406
100.409
100.413
100.416
100.365
100.341
100.321
100.297
100.272
100.253
100.237
100.223
100.218
100.212
100.205
100.197
100.214
100.291
100.351
100.373
100.384
100.394
100.4
100.397
100.433
100.396
100.371
100.344
100.314
100.285
100.26
100.236
100.221
100.221
100.212
100.203
100.192
100.186
100.235
100.301
100.342
100.372
100.387
100.379
100.536
100.445
100.39
100.37
100.357
100.34
100.299
100.258
100.243
100.233
100.227
100.217
100.204
100.18
100.164
100.179
100.231
100.3
100.346
100.343
100.619
100.55
100.47
100.409
100.389
100.378
100.348
100.302
100.266
100.24
100.228
100.227
100.215
100.192
100.169
100.144
100.125
100.147
100.22
100.276
100.608
100.588
100.545
100.481
100.409
100.377
100.353
100.328
100.297
100.264
100.249
100.239
100.224
100.2
100.176
100.149
100.115
100.09
100.09
100.152
100.488
100.548
100.541
100.519
100.472
100.411
100.371
100.349
100.328
100.292
100.259
100.234
100.211
100.189
100.17
100.151
100.125
100.091
100.067
100.042
100.25
100.378
100.446
100.483
100.475
100.448
100.407
100.362
100.327
100.294
100.261
100.23
100.204
100.187
100.176
100.158
100.134
100.104
100.067
100.017
100.043
100.146
100.254
100.336
100.389
100.414
100.405
100.38
100.341
100.305
100.275
100.244
100.219
100.194
100.169
100.141
100.117
100.092
100.063
100.014
100.002
100.015
100.066
100.155
100.233
100.29
100.33
100.349
100.338
100.316
100.283
100.246
100.216
100.19
100.154
100.123
100.106
100.09
100.072
100.027
100
100
100.003
100.025
100.079
100.149
100.209
100.25
100.278
100.291
100.282
100.26
100.228
100.199
100.165
100.141
100.116
100.084
100.062
100.025
100
100
100
100.001
100.006
100.031
100.08
100.139
100.186
100.216
100.241
100.245
100.236
100.215
100.186
100.154
100.122
100.084
100.048
100.011
100
100
100
100
100
100.001
100.007
100.032
100.079
100.128
100.169
100.193
100.21
100.209
100.2
100.179
100.148
100.117
100.082
100.031
100
100
100
100
100
100
100
100.001
100.008
100.032
100.072
100.118
100.154
100.175
100.183
100.179
100.169
100.149
100.122
100.075
100
100
100
100
100
100
100
100
100
100.002
100.008
100.028
100.066
100.109
100.138
100.157
100.155
100.149
100.138
100.112
100
100
100
100
100
100
100
100
100
100
100
100.001
100.007
100.025
100.056
100.092
100.117
100.129
100.127
100.114
100
100
100
100
100
100
100
100
100
100
100
100
100
100.001
100.005
100.018
100.041
100.068
100.087
100.093
100
100
100
100
100
100
100
100
100
100
100
100
100
100
100
100.001
100.003
100.01
100.024
100.045
100.598
100.653
100.609
100.416
100.142
100.017
100.001
100
100
100
100
100
100
100
100
100.672
100.663
100.517
100.216
100.022
100
100
100
100
100
100
100
100
100
100
100.704
100.635
100.372
100.073
100.002
100
100
100
100
100
100
100
100
100
100
100.719
100.518
100.167
100.009
100
100
100
100
100
100
100
100
100
100
100
100.652
100.286
100.025
100
100
100
100
100
100
100
100
100
100
100
100
100.393
100.038
100
100
100
100
100
100
100
100
100
100
100
100
100
100.043
100
100
100
100
100
100
100
100
100
100
100
100
100
100
99.9995
100
100
100
100
100
100
100
100
100
100
100
100
100
100
100
100
100
100
100
100
100
100
100
100
100
100
100
100
100
100
100
100
100
100
100
100
100
100
100
100
100
100
100
100
100
100
100
100
100
100
100
100
100
100
100
100
100
100
100
100
100
100
100
100
100
100
100
100
100
100
100
100
100
100
100
100
100
100
100
100
100
100
100
100
100
100
100
100
100
100
100
100
100
100
100
100
100
100
100
100
100
100
100
100
100
100
100
100
100
100
100
100
100
100
100
100
100
100
100
100
100
100
100
100
100
100
100
100
100
100
100
100
100
100
100
100
100
100
100
100
100
100
100
100
100
100
100
100
100
100
100
100
100
100
100
100
100
100
100
100
100
100
100
100
100
100
100
100
100
100
100
100
100
100
100
100
100
100
100
100
100
100
100
100
100
100
100
100
100
100
100
100
100
100
100
100
100
100
100
100
100
100
100
100
100
100
100
100
100
100
100
100
100
100
100
100
100
100
100
100
100
100
100
100
100
100
100
100
100
100
100
100
100
100
100
100
100
100
100
100
100
100
100
100
100
100
100
100
100
100
100
100
100
100
100
100
100
100
100
100
100
100
100
100
100
100
100
100
100
100
100
100
100
100
100
100
100
100
100
100
100
100
100
100
100
100
100
100
100
100
100
100
100
100
100
100
100
100
100
100
100
100
100
100
100
100
100
100
100
100
100
100
100
100
100
100
100
100
100
100
100
100
100
100
100
100
100
100
100
100
100
100
100
100
100
100
100
100
100
100
100
100
100
100
100
100
100
100
100
100
100
100
100
100
100
100
100
100
100
100
100
100
100
100
100
100
100
100
100
100
100
100
100
100
100
100
100
100
100
100
100
100
100
100
100
100
100
100
100
100
100
100
100
100
100
100
100
100
100
100
100
100
100
100
100
100
100
100
100
100
100
100
100
100
100
100
100
100
100
100
100
100
100
100
100
100
100
100
100
100
100
100
100
100
100
100
100
100
100
100
100
100
100
100
100
100
100
100
100
100
100
100
100
100
100
100
100
100
100
100
100
100
100
100
100
100
100
100
100
100
100
100
100
100
100
100
100
100
100
100
100
100
100
100
100
100
100
100
100
100
100
100
100
100
100
100
100
100
100
100
100
100
100
100
100
100
100
100
100
100
100
100
100
100
100
100
100
100
100
100
100
100
100
100
100
100
100
100
100
100
100
100
100
100
100
100
100
100
100
100
100
100
100
100
100
100
100
100
100
100
100
100
100
100
100
100
100
100
100
100
100
100
100
100
100
100
100
100
100
100
100
100
100
100
100
100
100
100
100
100
100
100
100
100
100
100
100
100
100
100
100
100
100
100
100
100
100
100
100
100
100
100
100
100
100
100
100
100
100
100
100
100
100
100
100
100
100
100
100
100
100
100
100
100
100
100
100
100
100
100
100
100
100
100
100
100
100
100
100
100
100
100
100
100
100
100
100
100
100
100
100
100
100
100
100
100
100
100
100
100
100
100
100
100
100
100
100
100
100
100
100
100
100
100
100
100
100
100
100
100
100
100
100
100
100
100
100
100
100
100
100
100
100
100
100
100
100
100
100
100
100
100
100
100
100
100
100
100
100
100
100
100
100
100
100
100
100
100
100
100
100
100
100
100
100
100
100
100
100
100
100
100
100
100
100
100
100
100
100
100
100
100
100
100
100
100
100
100
100
100
100
100
100
100
100
100
100
100
100
100
100
100
100
100
100
100
100
100
100
100
100
100
100
100
100
100
100
100
100
100
100
100
100
100
100
100
100
100
100
100
100
100
100
100
100
100
100
100
100
100
100
100
100
100
100
100
100
100
100
100
100
100
100
100
100
100
100
100
100
100
100
100
100
100
100
100
100
100
100
100
100
100
100
100
100
100
100
100
100
100
100
100
100
100
100
100
100
100
100
100
100
100
100
100
100
100
100
100
100
100
100
100
100
100
100
100
100
100
100
100
100
100
100
100
99.9995
100
100
100
100
100
100
100
100
100
100
100
100
100
100
100.043
100
100
100
100
100
100
100
100
100
100
100
100
100
100
100.393
100.038
100
100
100
100
100
100
100
100
100
100
100
100
100
100.652
100.286
100.025
100
100
100
100
100
100
100
100
100
100
100
100
100.719
100.519
100.168
100.009
100
100
100
100
100
100
100
100
100
100
100
100.704
100.635
100.372
100.073
100.002
100
100
100
100
100
100
100
100
100
100
100.672
100.663
100.517
100.216
100.022
100
100
100
100
100
100
100
100
100
100
100.598
100.653
100.609
100.416
100.142
100.017
100.001
100
100
100
100
100
100
100
100
100.536
100.619
100.608
100.488
100.25
100.043
100.002
100
100
100
100
100
100
100
100
100.445
100.55
100.588
100.548
100.378
100.146
100.015
100
100
100
100
100
100
100
100
100.39
100.47
100.545
100.541
100.446
100.254
100.066
100.003
100
100
100
100
100
100
100
100.369
100.408
100.481
100.519
100.483
100.336
100.155
100.025
100.001
100
100
100
100
100
100
100.355
100.388
100.409
100.472
100.475
100.389
100.233
100.079
100.006
100
100
100
100
100
100
100.339
100.378
100.377
100.411
100.448
100.414
100.29
100.149
100.031
100.001
100
100
100
100
100
100.299
100.348
100.353
100.371
100.407
100.405
100.33
100.209
100.08
100.007
100
100
100
100
100
100.258
100.302
100.328
100.349
100.362
100.38
100.349
100.25
100.139
100.032
100.001
100
100
100
100
100.243
100.266
100.296
100.328
100.327
100.341
100.338
100.278
100.186
100.079
100.008
100
100
100
100
100.233
100.24
100.264
100.291
100.294
100.305
100.316
100.291
100.216
100.128
100.032
100.002
100
100
100
100.227
100.228
100.249
100.259
100.261
100.276
100.283
100.282
100.241
100.169
100.072
100.008
100
100
100
100.217
100.227
100.239
100.234
100.23
100.244
100.246
100.26
100.245
100.193
100.118
100.028
100.001
100
100
100.203
100.215
100.224
100.211
100.204
100.219
100.216
100.228
100.236
100.21
100.154
100.066
100.007
100
100
100.18
100.192
100.2
100.188
100.187
100.194
100.19
100.199
100.215
100.209
100.175
100.109
100.025
100.001
100
100.163
100.169
100.176
100.17
100.176
100.169
100.154
100.165
100.186
100.2
100.183
100.138
100.056
100.005
100
100.179
100.144
100.149
100.151
100.157
100.141
100.123
100.141
100.154
100.179
100.179
100.157
100.092
100.018
100.001
100.231
100.125
100.115
100.125
100.134
100.117
100.106
100.116
100.122
100.148
100.169
100.155
100.117
100.041
100.003
100.299
100.147
100.089
100.091
100.104
100.092
100.089
100.084
100.084
100.117
100.149
100.149
100.129
100.068
100.01
100.347
100.219
100.09
100.067
100.067
100.063
100.072
100.062
100.048
100.082
100.122
100.138
100.127
100.087
100.024
100.343
100.276
100.153
100.042
100.017
100.014
100.027
100.025
100.011
100.032
100.075
100.112
100.114
100.093
100.045
100.433
100.395
100.37
100.344
100.314
100.286
100.262
100.238
100.221
100.221
100.212
100.202
100.192
100.186
100.235
100.302
100.342
100.372
100.387
100.38
100.365
100.34
100.32
100.297
100.274
100.255
100.239
100.225
100.219
100.212
100.204
100.196
100.214
100.29
100.351
100.373
100.384
100.394
100.4
100.397
100.304
100.287
100.271
100.252
100.231
100.215
100.212
100.206
100.206
100.204
100.2
100.233
100.339
100.398
100.398
100.403
100.406
100.408
100.412
100.415
100.244
100.237
100.224
100.201
100.19
100.186
100.187
100.194
100.198
100.203
100.261
100.374
100.415
100.424
100.427
100.43
100.426
100.423
100.426
100.44
100.184
100.185
100.182
100.161
100.142
100.141
100.149
100.164
100.207
100.317
100.409
100.44
100.443
100.45
100.459
100.459
100.45
100.445
100.449
100.475
100.127
100.139
100.132
100.126
100.119
100.122
100.145
100.239
100.385
100.461
100.471
100.478
100.488
100.496
100.5
100.498
100.489
100.485
100.492
100.529
100.083
100.093
100.105
100.093
100.102
100.187
100.339
100.45
100.51
100.543
100.548
100.553
100.564
100.57
100.571
100.568
100.56
100.558
100.571
100.6
100.032
100.055
100.18
100.273
100.406
100.505
100.566
100.627
100.661
100.668
100.672
100.679
100.684
100.683
100.68
100.673
100.659
100.656
100.667
100.669
100.613
100.647
100.685
100.712
100.763
100.794
100.801
100.807
100.805
100.805
100.807
100.81
100.806
100.794
100.78
100.76
100.74
100.735
100.741
100.721
101.059
101.03
100.996
100.983
100.964
100.949
100.926
100.896
100.872
100.87
100.873
100.873
100.865
100.845
100.818
100.792
100.772
100.768
100.77
100.742
)
;

boundaryField
{
    inlet
    {
        type            fixedValue;
        value           uniform 100;
    }
    outlet
    {
        type            inletOutlet;
        inletValue      uniform 100;
        value           nonuniform List<scalar> 
50
(
100.342
100.276
100.152
100.042
100.017
100.014
100.027
100.025
100.011
100.031
100.075
100.112
100.114
100.093
100.045
100.74
100.719
100.666
100.599
100.529
100.475
100.44
100.416
100.397
100.379
100.38
100.397
100.415
100.44
100.475
100.529
100.6
100.669
100.721
100.742
100.343
100.276
100.153
100.042
100.017
100.014
100.027
100.025
100.011
100.031
100.075
100.112
100.114
100.093
100.045
)
;
    }
    airfoil
    {
        type            zeroGradient;
    }
    top
    {
        type            symmetryPlane;
    }
    bottom
    {
        type            symmetryPlane;
    }
    defaultFaces
    {
        type            empty;
    }
}


// ************************************************************************* //
