/*--------------------------------*- C++ -*----------------------------------*\
  =========                 |
  \\      /  F ield         | OpenFOAM: The Open Source CFD Toolbox
   \\    /   O peration     | Website:  https://openfoam.org
    \\  /    A nd           | Version:  7
     \\/     M anipulation  |
\*---------------------------------------------------------------------------*/
FoamFile
{
    version     2.0;
    format      ascii;
    class       volVectorField;
    location    "3";
    object      U;
}
// * * * * * * * * * * * * * * * * * * * * * * * * * * * * * * * * * * * * * //

dimensions      [0 1 -1 0 0 0 0];

internalField   nonuniform List<vector> 
3700
(
(1.46253 -0.345761 0)
(1.38295 -0.495876 0)
(1.40877 -0.27834 0)
(1.48007 -0.291128 0)
(1.58954 -0.24918 0)
(1.55665 -0.204228 0)
(1.54184 -0.162155 0)
(1.51159 -0.166934 0)
(1.53286 -0.235678 0)
(1.55086 -0.235643 0)
(1.57162 -0.205438 0)
(1.59376 -0.205508 0)
(1.62315 -0.233149 0)
(1.64968 -0.227603 0)
(1.65572 -0.167444 0)
(1.69432 -0.104095 0)
(1.76382 -0.114024 0)
(1.79909 -0.190819 0)
(1.87034 -0.289841 0)
(1.89863 -0.303637 0)
(1.90232 -1.35927 0)
(1.83138 -1.2575 0)
(1.86413 -1.14346 0)
(2.01991 -1.24199 0)
(2.00313 -1.37946 0)
(1.85197 -1.33842 0)
(1.76337 -1.29736 0)
(1.73891 -1.3538 0)
(1.82829 -1.51201 0)
(1.84376 -1.44495 0)
(1.8726 -1.42131 0)
(1.95053 -1.33701 0)
(2.02891 -1.29225 0)
(2.08398 -1.23681 0)
(2.1055 -1.13377 0)
(2.16368 -1.0272 0)
(2.21534 -1.00825 0)
(2.33215 -1.15939 0)
(2.35895 -1.28797 0)
(2.35618 -1.36075 0)
(1.86769 -1.4008 0)
(1.95903 -1.34208 0)
(2.01872 -1.43055 0)
(2.13244 -1.62837 0)
(2.08451 -2.03447 0)
(1.98206 -2.24554 0)
(1.94976 -2.3054 0)
(1.96928 -2.26251 0)
(2.0051 -2.20849 0)
(2.08728 -2.07649 0)
(2.11216 -2.09838 0)
(2.21771 -1.96858 0)
(2.29729 -1.90966 0)
(2.3762 -1.84976 0)
(2.46777 -1.80552 0)
(2.57323 -1.73975 0)
(2.63309 -1.67507 0)
(2.65594 -1.63641 0)
(2.65687 -1.61208 0)
(2.61762 -1.597 0)
(1.79846 -1.46624 0)
(1.82942 -1.48203 0)
(1.86789 -1.74618 0)
(1.88208 -2.05929 0)
(1.85276 -2.20101 0)
(1.91358 -2.27031 0)
(1.93737 -2.29994 0)
(2.03794 -2.13766 0)
(2.08553 -2.10467 0)
(2.27304 -1.93909 0)
(2.25451 -2.02865 0)
(2.3535 -1.89959 0)
(2.38079 -1.84444 0)
(2.41654 -1.76326 0)
(2.47923 -1.68515 0)
(2.5909 -1.57071 0)
(2.62418 -1.45412 0)
(2.72795 -1.33649 0)
(2.80927 -1.21906 0)
(2.81503 -1.22685 0)
(1.54568 -1.39138 0)
(1.64553 -1.52333 0)
(1.72112 -1.94078 0)
(1.69126 -2.19922 0)
(1.62931 -2.28607 0)
(1.7189 -2.23945 0)
(1.90379 -2.1416 0)
(2.07527 -1.86901 0)
(2.17473 -1.88863 0)
(2.37308 -1.80872 0)
(2.42751 -1.76174 0)
(2.48052 -1.68578 0)
(2.53487 -1.63213 0)
(2.52725 -1.63846 0)
(2.54944 -1.56604 0)
(2.57116 -1.52264 0)
(2.58393 -1.36533 0)
(2.67111 -1.30656 0)
(2.73205 -1.16451 0)
(2.8374 -0.933188 0)
(1.40539 -1.31371 0)
(1.5643 -1.65057 0)
(1.67085 -2.04198 0)
(1.61734 -2.23859 0)
(1.57327 -2.28794 0)
(1.77046 -2.16814 0)
(1.87927 -2.09646 0)
(2.02373 -1.78593 0)
(2.09606 -1.76607 0)
(2.31114 -1.70376 0)
(2.46102 -1.52854 0)
(2.58358 -1.47711 0)
(2.64775 -1.34368 0)
(2.65476 -1.34454 0)
(2.6938 -1.25801 0)
(2.68133 -1.27672 0)
(2.66231 -1.18946 0)
(2.65626 -1.14201 0)
(2.68889 -1.14949 0)
(2.74847 -0.916296 0)
(1.34716 -1.31754 0)
(1.54687 -1.77724 0)
(1.73691 -2.12125 0)
(1.73318 -2.27903 0)
(1.75917 -2.26609 0)
(1.87482 -2.18112 0)
(1.95756 -2.05522 0)
(2.04866 -1.78516 0)
(2.05704 -1.75847 0)
(2.22708 -1.68536 0)
(2.3632 -1.47167 0)
(2.54558 -1.40441 0)
(2.61239 -1.18543 0)
(2.72828 -1.09548 0)
(2.74752 -0.874385 0)
(2.74398 -0.829083 0)
(2.74958 -0.792151 0)
(2.75092 -0.740399 0)
(2.7183 -0.867731 0)
(2.70913 -0.734891 0)
(1.34922 -1.4042 0)
(1.62045 -1.94674 0)
(1.89556 -2.18698 0)
(1.92349 -2.32095 0)
(2.10287 -2.23815 0)
(2.20381 -2.143 0)
(2.21036 -1.84899 0)
(2.21891 -1.71335 0)
(2.22583 -1.71189 0)
(2.27788 -1.66758 0)
(2.39339 -1.45674 0)
(2.50461 -1.37235 0)
(2.55594 -1.15537 0)
(2.68215 -1.07423 0)
(2.70444 -0.842692 0)
(2.76912 -0.69028 0)
(2.78255 -0.525725 0)
(2.78858 -0.373392 0)
(2.73486 -0.466447 0)
(2.70209 -0.446898 0)
(1.42947 -1.51809 0)
(1.79811 -2.1753 0)
(2.12203 -2.37063 0)
(2.08811 -2.44317 0)
(2.40708 -2.10224 0)
(2.50075 -1.98197 0)
(2.51508 -1.65763 0)
(2.51367 -1.50274 0)
(2.55705 -1.44838 0)
(2.60146 -1.38277 0)
(2.59835 -1.32708 0)
(2.63084 -1.16928 0)
(2.61436 -1.03054 0)
(2.65892 -0.948107 0)
(2.67128 -0.771116 0)
(2.70872 -0.648157 0)
(2.74266 -0.497888 0)
(2.74494 -0.276783 0)
(2.7233 -0.175586 0)
(2.67716 -0.136515 0)
(1.646 -1.74051 0)
(1.85939 -2.21761 0)
(2.1208 -2.35683 0)
(2.10941 -2.46665 0)
(2.34411 -2.05986 0)
(2.42014 -1.87527 0)
(2.58849 -1.48779 0)
(2.66049 -1.43957 0)
(2.8225 -1.31132 0)
(2.82939 -0.928059 0)
(2.82319 -0.885275 0)
(2.7963 -0.682458 0)
(2.75182 -0.650939 0)
(2.73762 -0.550353 0)
(2.71597 -0.472063 0)
(2.69142 -0.409983 0)
(2.68796 -0.361718 0)
(2.68221 -0.252818 0)
(2.64955 -0.0695478 0)
(2.61574 0.0430222 0)
(1.75418 -1.88362 0)
(1.83431 -2.18746 0)
(1.98976 -2.31167 0)
(1.93574 -2.23423 0)
(2.09993 -1.91361 0)
(2.16629 -1.7405 0)
(2.35877 -1.38932 0)
(2.42857 -1.30694 0)
(2.52499 -1.2413 0)
(2.61334 -0.897466 0)
(2.72251 -0.70332 0)
(2.72543 -0.412676 0)
(2.72638 -0.268561 0)
(2.70875 -0.123184 0)
(2.68766 -0.0309708 0)
(2.66165 -0.000977697 0)
(2.63344 0.00768845 0)
(2.62294 -0.0412326 0)
(2.55549 0.0976948 0)
(2.57768 0.0875734 0)
(1.71061 -1.90196 0)
(1.74351 -2.16392 0)
(1.72514 -2.09276 0)
(1.79546 -2.02685 0)
(2.02521 -1.80117 0)
(2.14293 -1.53164 0)
(2.25476 -1.34655 0)
(2.35583 -1.19255 0)
(2.42224 -1.00145 0)
(2.47258 -0.862954 0)
(2.56479 -0.681819 0)
(2.5998 -0.431802 0)
(2.63177 -0.230124 0)
(2.64057 -0.0448409 0)
(2.59249 0.164619 0)
(2.56825 0.260097 0)
(2.51655 0.369517 0)
(2.5001 0.296166 0)
(2.44688 0.339612 0)
(2.47795 0.268647 0)
(1.60991 -1.87368 0)
(1.62767 -2.0705 0)
(1.73182 -1.93573 0)
(1.88396 -1.85748 0)
(2.14844 -1.72909 0)
(2.32147 -1.08256 0)
(2.31837 -1.18627 0)
(2.45411 -0.964315 0)
(2.51043 -0.594178 0)
(2.53848 -0.526371 0)
(2.56995 -0.319375 0)
(2.56998 -0.152865 0)
(2.55536 -0.00572674 0)
(2.54175 0.110407 0)
(2.48809 0.264577 0)
(2.48056 0.332857 0)
(2.40082 0.48601 0)
(2.34507 0.560292 0)
(2.29663 0.600998 0)
(2.30946 0.549818 0)
(1.30938 -1.72507 0)
(1.53802 -1.84452 0)
(1.92161 -1.43314 0)
(2.1494 -1.45444 0)
(2.4356 -1.30796 0)
(2.41316 -0.65508 0)
(2.49572 -0.536966 0)
(2.57993 -0.213211 0)
(2.57037 -0.0544789 0)
(2.55159 0.0808139 0)
(2.53949 0.218989 0)
(2.50036 0.348293 0)
(2.45404 0.442212 0)
(2.40343 0.516062 0)
(2.35249 0.556455 0)
(2.32521 0.561526 0)
(2.27096 0.613367 0)
(2.22036 0.683085 0)
(2.15797 0.775909 0)
(2.13095 0.79894 0)
(0.989154 -1.4334 0)
(1.43681 -1.45163 0)
(1.79845 -1.0389 0)
(2.18618 -1.2653 0)
(2.50787 -0.691584 0)
(2.52142 -0.492861 0)
(2.55576 -0.251806 0)
(2.51403 0.059468 0)
(2.48509 0.0962408 0)
(2.45926 0.27129 0)
(2.42848 0.439004 0)
(2.34862 0.612132 0)
(2.28339 0.721123 0)
(2.20449 0.821333 0)
(2.15409 0.84567 0)
(2.11515 0.850456 0)
(2.07653 0.881003 0)
(2.07122 0.880711 0)
(2.03937 0.920455 0)
(2.05881 0.951709 0)
(0.796057 -0.901335 0)
(1.31197 -1.18834 0)
(2.25475 -0.116415 0)
(2.52849 -0.758361 0)
(2.51733 0.0078867 0)
(2.43578 -0.235293 0)
(2.41769 0.00387156 0)
(2.38247 0.198888 0)
(2.33075 0.375828 0)
(2.30145 0.525935 0)
(2.22841 0.688443 0)
(2.15689 0.811289 0)
(2.09094 0.893434 0)
(2.02555 0.966836 0)
(1.98008 0.983671 0)
(1.94949 0.999561 0)
(1.95308 1.01944 0)
(1.96853 0.996328 0)
(1.99502 0.99492 0)
(2.07159 0.977379 0)
(1.00031 -0.464657 0)
(1.59539 -0.396218 0)
(2.3215 -0.236725 0)
(2.31397 -0.148297 0)
(2.36053 -0.0537294 0)
(2.36235 0.297203 0)
(2.27032 0.562953 0)
(2.18897 0.691634 0)
(2.13853 0.766495 0)
(2.07052 0.899787 0)
(1.97296 1.01074 0)
(1.92282 1.06055 0)
(1.88734 1.0805 0)
(1.86965 1.09112 0)
(1.86884 1.05911 0)
(1.89476 1.05031 0)
(1.96022 1.0222 0)
(2.16304 0.904195 0)
(2.38092 0.794486 0)
(2.77855 0.444363 0)
(1.06387 -0.0940206 0)
(1.90965 0.253117 0)
(2.30022 0.101751 0)
(2.22659 0.58498 0)
(2.21738 0.662742 0)
(2.1433 0.77891 0)
(2.04842 0.894162 0)
(1.95172 0.984412 0)
(1.90694 1.0399 0)
(1.84043 1.12727 0)
(1.79204 1.15661 0)
(1.79461 1.15069 0)
(1.81245 1.13058 0)
(1.84726 1.08966 0)
(2.03514 0.955594 0)
(2.25779 0.83104 0)
(2.66536 0.504646 0)
(3.03672 0.0917081 0)
(3.05578 -0.0241009 0)
(3.00412 -0.0047312 0)
(1.01191 0.0381593 0)
(1.94026 0.720478 0)
(2.08558 0.876256 0)
(2.02123 0.928726 0)
(1.98184 0.983391 0)
(1.86307 1.09652 0)
(1.78182 1.14528 0)
(1.75368 1.14552 0)
(1.75245 1.16195 0)
(1.73245 1.20312 0)
(1.72052 1.19356 0)
(1.87135 1.06501 0)
(2.10167 0.881351 0)
(2.50083 0.575877 0)
(2.98376 0.137588 0)
(3.07348 -0.0291621 0)
(3.00822 -0.0077451 0)
(3.00296 -0.00386425 0)
(3.00124 -0.00220989 0)
(3.00008 -0.000485038 0)
(1.16969 0.758499 0)
(1.82403 1.16324 0)
(1.84798 1.14992 0)
(1.74948 1.19171 0)
(1.70783 1.20644 0)
(1.65935 1.2368 0)
(1.65297 1.21235 0)
(1.71992 1.16248 0)
(1.74753 1.23325 0)
(1.78393 1.14414 0)
(2.26906 0.743213 0)
(2.8575 0.209732 0)
(3.09654 -0.0277845 0)
(3.02062 -0.0124531 0)
(3.00471 -0.00554551 0)
(3.00192 -0.00308448 0)
(3.00006 -0.000599806 0)
(2.99997 -2.35194e-05 0)
(2.99999 1.45106e-05 0)
(3 5.94976e-06 0)
(1.58167 1.25678 0)
(1.5862 1.26075 0)
(1.59939 1.26248 0)
(1.60786 1.25749 0)
(1.61195 1.24054 0)
(1.58193 1.26574 0)
(1.88998 1.15946 0)
(2.95902 0.397249 0)
(3.3721 -0.642828 0)
(3 2.69062e-11 0)
(3 3.16865e-11 0)
(3 -1.53693e-13 0)
(3 1.20674e-11 0)
(3 -1.12129e-11 0)
(3 2.32524e-14 0)
(3 2.09524e-14 0)
(3 8.66498e-15 0)
(3 3.41626e-15 0)
(3 1.58788e-15 0)
(3 6.47864e-16 0)
(1.57427 1.23993 0)
(1.59164 1.2525 0)
(1.60825 1.26101 0)
(1.61744 1.26314 0)
(1.66998 1.25428 0)
(1.73378 1.22187 0)
(2.27486 0.721885 0)
(3.00024 0.00955854 0)
(3 6.15125e-08 0)
(3 8.29156e-11 0)
(3 5.10365e-16 0)
(3 4.90674e-15 0)
(3 6.34543e-16 0)
(3 7.91694e-15 0)
(3 4.03393e-15 0)
(3 3.83837e-15 0)
(3 3.35873e-15 0)
(3 7.57341e-16 0)
(3 -5.0553e-16 0)
(3 -1.31915e-15 0)
(1.57749 1.24823 0)
(1.60014 1.25483 0)
(1.6122 1.2631 0)
(1.60265 1.28616 0)
(1.73689 1.20364 0)
(2.30368 0.75782 0)
(3.00997 -0.0131376 0)
(2.99995 -0.000106859 0)
(3 4.92548e-07 0)
(3 6.35662e-11 0)
(3 -4.01221e-14 0)
(3 4.54668e-15 0)
(3 4.14316e-15 0)
(3 4.71463e-15 0)
(3 3.88354e-15 0)
(3 3.63234e-15 0)
(3 4.0486e-15 0)
(3 2.22759e-15 0)
(3 8.45719e-16 0)
(3 -6.27723e-16 0)
(1.57959 1.25374 0)
(1.59926 1.25883 0)
(1.62402 1.26649 0)
(1.60799 1.30795 0)
(1.83109 1.11459 0)
(2.7219 0.247019 0)
(3.00378 0.00144921 0)
(2.99994 4.43907e-05 0)
(3 -6.91271e-07 0)
(3 8.17623e-10 0)
(3 -2.27587e-15 0)
(3 3.42955e-15 0)
(3 4.24389e-15 0)
(3 3.95407e-15 0)
(3 3.37336e-15 0)
(3 2.74591e-15 0)
(3 3.74569e-15 0)
(3 1.03125e-15 0)
(3 1.41927e-15 0)
(3 -4.75679e-16 0)
(1.58248 1.26804 0)
(1.59593 1.27254 0)
(1.62661 1.26748 0)
(1.68398 1.23467 0)
(2.38145 0.630554 0)
(3.02022 -0.0205812 0)
(2.99971 1.49702e-05 0)
(3 -3.66617e-06 0)
(3 7.56553e-08 0)
(3 -8.56441e-10 0)
(3 1.28591e-13 0)
(3 2.97431e-15 0)
(3 3.68797e-15 0)
(3 3.06602e-15 0)
(3 2.94615e-15 0)
(3 2.39117e-15 0)
(3 3.63081e-15 0)
(3 1.75937e-15 0)
(3 1.68323e-15 0)
(3 2.98543e-16 0)
(1.58456 1.28535 0)
(1.5888 1.28943 0)
(1.64191 1.2571 0)
(1.78301 1.14066 0)
(2.68198 0.266415 0)
(3 -5.69333e-10 0)
(3 1.32466e-08 0)
(3 -1.19008e-08 0)
(3 5.01633e-10 0)
(3 2.00057e-12 0)
(3 -8.65275e-14 0)
(3 6.7401e-16 0)
(3 3.15582e-15 0)
(3 2.21045e-15 0)
(3 2.36431e-15 0)
(3 1.7124e-15 0)
(3 1.72569e-15 0)
(3 1.47438e-15 0)
(3 1.85935e-15 0)
(3 1.42126e-15 0)
(1.58524 1.29746 0)
(1.55576 1.29803 0)
(1.68202 1.2216 0)
(2.17428 0.818672 0)
(3.02369 -0.0222051 0)
(3 -7.03611e-13 0)
(3 -1.7237e-11 0)
(3 2.26771e-11 0)
(3 -3.44745e-12 0)
(3 2.81998e-15 0)
(3 2.44192e-16 0)
(3 7.34065e-16 0)
(3 2.07246e-15 0)
(3 6.49426e-16 0)
(3 1.29885e-15 0)
(3 1.40174e-15 0)
(3 1.40981e-15 0)
(3 4.26239e-16 0)
(3 1.76481e-15 0)
(3 2.17567e-15 0)
(1.59083 1.3269 0)
(1.50354 1.32799 0)
(1.72843 1.18877 0)
(2.3877 0.552604 0)
(3 -8.80995e-09 0)
(3 1.61229e-13 0)
(3 -5.87998e-14 0)
(3 -1.167e-14 0)
(3 1.63763e-15 0)
(3 -2.03735e-15 0)
(3 -1.70576e-15 0)
(3 -6.77673e-16 0)
(3 5.12171e-16 0)
(3 1.17446e-15 0)
(3 1.98938e-16 0)
(3 2.19961e-16 0)
(3 6.20193e-16 0)
(3 -2.88733e-16 0)
(3 1.01994e-15 0)
(3 1.48534e-15 0)
(1.58434 1.30075 0)
(1.47562 1.33663 0)
(2.00138 1.02648 0)
(2.89254 0.107403 0)
(3 -3.92914e-09 0)
(3 -3.25947e-14 0)
(3 2.16333e-16 0)
(3 -1.17292e-15 0)
(3 -1.90891e-15 0)
(3 -2.36153e-15 0)
(3 -1.96934e-15 0)
(3 -1.97768e-15 0)
(3 -1.13473e-15 0)
(3 -5.17851e-16 0)
(3 -4.25402e-16 0)
(3 -1.88255e-15 0)
(3 -1.7021e-15 0)
(3 -1.62876e-15 0)
(3 -1.35291e-16 0)
(3 7.13585e-17 0)
(1.59878 1.29322 0)
(1.47008 1.39152 0)
(2.13835 0.849153 0)
(3.01074 -0.0086892 0)
(3 1.48663e-08 0)
(3 -4.16037e-15 0)
(3 -1.96781e-16 0)
(3 -2.52821e-16 0)
(3 -2.56459e-16 0)
(3 -9.61853e-16 0)
(3 -1.119e-15 0)
(3 -1.49302e-15 0)
(3 -1.68171e-15 0)
(3 -1.29942e-15 0)
(3 -1.22794e-15 0)
(3 -1.48815e-15 0)
(3 -2.21949e-15 0)
(3 -3.28961e-15 0)
(3 -2.17865e-15 0)
(3 -1.56487e-15 0)
(1.61752 1.28045 0)
(1.5558 1.32203 0)
(2.40201 0.551974 0)
(3 -2.25229e-12 0)
(3 -1.09176e-11 0)
(3 1.59408e-14 0)
(3 2.76909e-16 0)
(3 2.38088e-16 0)
(3 5.26406e-16 0)
(3 3.25619e-16 0)
(3 -6.49141e-17 0)
(3 -6.34097e-16 0)
(3 -1.50457e-15 0)
(3 -1.18097e-15 0)
(3 -9.98328e-16 0)
(3 -1.28957e-15 0)
(3 -1.7122e-15 0)
(3 -2.62373e-15 0)
(3 -3.19988e-15 0)
(3 -3.1544e-15 0)
(1.63627 1.26914 0)
(1.65424 1.23135 0)
(2.65096 0.284476 0)
(3 1.02811e-12 0)
(3 -1.13176e-13 0)
(3 -7.42353e-16 0)
(3 3.21026e-16 0)
(3 8.8818e-16 0)
(3 1.12769e-15 0)
(3 1.30054e-15 0)
(3 1.0802e-15 0)
(3 6.39954e-16 0)
(3 -2.39811e-16 0)
(3 -7.19067e-16 0)
(3 -8.95596e-16 0)
(3 -6.61045e-16 0)
(3 -7.51611e-16 0)
(3 -1.52369e-15 0)
(3 -2.62894e-15 0)
(3 -2.99973e-15 0)
(1.65786 1.24489 0)
(1.81743 1.09764 0)
(2.87525 0.0897793 0)
(3 -1.13664e-15 0)
(3 -3.95452e-16 0)
(3 -2.75417e-16 0)
(3 3.4939e-16 0)
(3 1.03553e-15 0)
(3 1.56768e-15 0)
(3 1.78581e-15 0)
(3 1.82541e-15 0)
(3 1.618e-15 0)
(3 7.94026e-16 0)
(3 7.25364e-17 0)
(3 -1.4626e-16 0)
(3 -1.67911e-16 0)
(3 -8.69969e-17 0)
(3 -4.43119e-16 0)
(3 -8.90384e-16 0)
(3 -2.12077e-15 0)
(1.68383 1.19519 0)
(1.90309 0.976155 0)
(2.99943 0.000205119 0)
(3 -4.33029e-16 0)
(3 -2.69366e-16 0)
(3 -7.26933e-17 0)
(3 5.63263e-16 0)
(3 1.30726e-15 0)
(3 1.6583e-15 0)
(3 1.60433e-15 0)
(3 1.42016e-15 0)
(3 1.28726e-15 0)
(3 1.25851e-15 0)
(3 1.12527e-15 0)
(3 9.0133e-16 0)
(3 8.62997e-16 0)
(3 9.06304e-16 0)
(3 7.07188e-16 0)
(3 -1.20276e-16 0)
(3 -1.29967e-15 0)
(1.71188 1.16019 0)
(2.05757 0.826756 0)
(3 -7.65567e-16 0)
(3 -1.05466e-15 0)
(3 -1.21506e-15 0)
(3 -1.17739e-15 0)
(3 -8.04726e-16 0)
(3 -3.07657e-17 0)
(3 3.56322e-16 0)
(3 1.19271e-15 0)
(3 1.55491e-15 0)
(3 1.41616e-15 0)
(3 1.0417e-15 0)
(3 9.2197e-16 0)
(3 6.21434e-16 0)
(3 2.94466e-16 0)
(3 2.551e-16 0)
(3 2.91737e-17 0)
(3 -2.58704e-16 0)
(3 -7.06186e-16 0)
(1.73037 1.10851 0)
(2.1992 0.663646 0)
(3 -2.81493e-15 0)
(3 -3.71807e-15 0)
(3 -3.98916e-15 0)
(3 -2.82842e-15 0)
(3 -2.27489e-15 0)
(3 -1.78808e-15 0)
(3 -1.9337e-15 0)
(3 -1.08876e-15 0)
(3 -4.30675e-16 0)
(3 -2.3265e-17 0)
(3 6.14759e-18 0)
(3 2.09044e-17 0)
(3 5.1552e-17 0)
(3 -3.01992e-17 0)
(3 -2.13914e-16 0)
(3 -1.2066e-16 0)
(3 -8.27908e-17 0)
(3 3.04746e-17 0)
(1.84367 1.01939 0)
(2.44818 0.446196 0)
(3 -4.21824e-15 0)
(3 -5.32485e-15 0)
(3 -5.61478e-15 0)
(3 -4.48974e-15 0)
(3 -3.7316e-15 0)
(3 -2.78214e-15 0)
(3 -2.90185e-15 0)
(3 -1.88795e-15 0)
(3 -1.33301e-15 0)
(3 -5.74344e-16 0)
(3 -3.38212e-16 0)
(3 -1.03045e-16 0)
(3 3.16367e-16 0)
(3 8.36976e-16 0)
(3 9.94055e-16 0)
(3 9.7555e-16 0)
(3 1.0277e-15 0)
(3 1.01442e-15 0)
(1.9613 0.86471 0)
(2.74058 0.188448 0)
(3 -3.30425e-15 0)
(3 -3.87002e-15 0)
(3 -3.46279e-15 0)
(3 -3.36118e-15 0)
(3 -3.43556e-15 0)
(3 -3.48367e-15 0)
(3 -3.21229e-15 0)
(3 -2.61306e-15 0)
(3 -1.81318e-15 0)
(3 -1.41061e-15 0)
(3 -1.17901e-15 0)
(3 -1.09233e-15 0)
(3 -7.86813e-16 0)
(3 -5.25818e-16 0)
(3 4.54111e-17 0)
(3 8.80658e-16 0)
(3 1.11617e-15 0)
(3 1.75992e-15 0)
(2.09028 0.642739 0)
(2.99302 0.00013112 0)
(3 -2.3795e-15 0)
(3 -2.75464e-15 0)
(3 -2.55288e-15 0)
(3 -1.7565e-15 0)
(3 -1.7701e-15 0)
(3 -1.86418e-15 0)
(3 -1.13322e-15 0)
(3 -1.00579e-15 0)
(3 -9.77404e-16 0)
(3 -1.02048e-15 0)
(3 -1.35735e-15 0)
(3 -1.51117e-15 0)
(3 -1.69419e-15 0)
(3 -1.94055e-15 0)
(3 -1.97731e-15 0)
(3 -1.73195e-15 0)
(3 -1.4621e-15 0)
(3 -1.36494e-15 0)
(1.99228 0.379333 0)
(2.99987 -2.59282e-05 0)
(3 -6.86658e-16 0)
(3 -1.335e-15 0)
(3 -1.243e-15 0)
(3 -8.2199e-16 0)
(3 -8.45725e-16 0)
(3 5.1182e-17 0)
(3 9.20928e-16 0)
(3 1.25864e-15 0)
(3 1.31442e-15 0)
(3 1.162e-15 0)
(3 9.54067e-16 0)
(3 9.79421e-16 0)
(3 1.09622e-15 0)
(3 1.29134e-15 0)
(3 1.20984e-15 0)
(3 9.06131e-16 0)
(3 6.55177e-16 0)
(3 4.05189e-16 0)
(1.99217 -0.379699 0)
(2.99986 2.84636e-05 0)
(3 -1.62908e-16 0)
(3 2.39756e-16 0)
(3 1.47082e-16 0)
(3 4.58839e-16 0)
(3 1.22644e-15 0)
(3 1.78991e-15 0)
(3 1.92914e-15 0)
(3 1.15622e-15 0)
(3 6.82555e-16 0)
(3 2.13214e-16 0)
(3 3.89189e-16 0)
(3 4.35368e-16 0)
(3 6.03371e-16 0)
(3 6.74303e-16 0)
(3 7.257e-16 0)
(3 9.70305e-16 0)
(3 1.07579e-15 0)
(3 1.16509e-15 0)
(2.09128 -0.642819 0)
(2.99311 -0.000130256 0)
(3 1.59782e-15 0)
(3 1.27162e-15 0)
(3 2.06963e-15 0)
(3 2.83059e-15 0)
(3 3.98622e-15 0)
(3 4.14357e-15 0)
(3 2.02003e-15 0)
(3 2.60201e-16 0)
(3 -2.59085e-16 0)
(3 -5.708e-16 0)
(3 -8.83249e-16 0)
(3 -8.53592e-16 0)
(3 -1.36359e-15 0)
(3 -1.65011e-15 0)
(3 -1.55514e-15 0)
(3 -1.34013e-15 0)
(3 -1.11163e-15 0)
(3 -8.68985e-16 0)
(1.96239 -0.864144 0)
(2.74205 -0.187393 0)
(3 1.69208e-15 0)
(3 1.8543e-15 0)
(3 3.11797e-15 0)
(3 3.60256e-15 0)
(3 3.58761e-15 0)
(3 2.65583e-15 0)
(3 1.08606e-15 0)
(3 -2.03176e-16 0)
(3 -9.00938e-16 0)
(3 -1.06611e-15 0)
(3 -2.19439e-15 0)
(3 -1.98506e-15 0)
(3 -1.97166e-15 0)
(3 -1.83878e-15 0)
(3 -1.62069e-15 0)
(3 -1.5095e-15 0)
(3 -1.12281e-15 0)
(3 -4.11556e-16 0)
(1.84439 -1.01962 0)
(2.44882 -0.445708 0)
(3 3.6025e-15 0)
(3 3.96258e-15 0)
(3 3.83951e-15 0)
(3 3.45265e-15 0)
(3 1.41233e-15 0)
(3 1.83348e-16 0)
(3 -8.89009e-16 0)
(3 -6.63003e-16 0)
(3 -7.5884e-16 0)
(3 -7.43741e-16 0)
(3 -1.42235e-16 0)
(3 2.1981e-16 0)
(3 1.04238e-15 0)
(3 2.23449e-15 0)
(3 2.82697e-15 0)
(3 3.58077e-15 0)
(3 3.7555e-15 0)
(3 3.70844e-15 0)
(1.73014 -1.10861 0)
(2.19764 -0.66435 0)
(3 2.51468e-15 0)
(3 2.94954e-15 0)
(3 2.66381e-15 0)
(3 2.74915e-15 0)
(3 1.71875e-15 0)
(3 7.2917e-16 0)
(3 2.5863e-16 0)
(3 2.74888e-16 0)
(3 7.56722e-16 0)
(3 1.06004e-15 0)
(3 1.27354e-15 0)
(3 1.72771e-15 0)
(3 2.46183e-15 0)
(3 2.93444e-15 0)
(3 3.25519e-15 0)
(3 3.01213e-15 0)
(3 2.88924e-15 0)
(3 3.33539e-15 0)
(1.70999 -1.16054 0)
(2.05634 -0.82745 0)
(3 2.37521e-15 0)
(3 1.94346e-15 0)
(3 1.2384e-15 0)
(3 8.94462e-16 0)
(3 9.80176e-16 0)
(3 1.06942e-15 0)
(3 1.53128e-15 0)
(3 1.18292e-15 0)
(3 1.07138e-15 0)
(3 1.04949e-15 0)
(3 1.60777e-15 0)
(3 2.31534e-15 0)
(3 3.12514e-15 0)
(3 4.2146e-15 0)
(3 3.62836e-15 0)
(3 2.63821e-15 0)
(3 2.50617e-15 0)
(3 2.78536e-15 0)
(1.68397 -1.1948 0)
(1.90146 -0.977729 0)
(2.99962 -0.000123681 0)
(3 1.56821e-15 0)
(3 8.39861e-16 0)
(3 6.18033e-16 0)
(3 1.11922e-15 0)
(3 1.31666e-15 0)
(3 1.21127e-15 0)
(3 9.94916e-16 0)
(3 9.71687e-16 0)
(3 1.44897e-15 0)
(3 1.25063e-15 0)
(3 2.19448e-15 0)
(3 3.641e-15 0)
(3 3.22384e-15 0)
(3 2.00961e-15 0)
(3 1.32695e-15 0)
(3 1.19182e-15 0)
(3 1.09605e-15 0)
(1.65825 -1.24533 0)
(1.82359 -1.09709 0)
(2.87691 -0.0892085 0)
(3 3.29528e-14 0)
(3 5.60633e-16 0)
(3 1.68121e-16 0)
(3 1.62157e-16 0)
(3 -8.31775e-17 0)
(3 2.31853e-16 0)
(3 4.96706e-17 0)
(3 1.74902e-15 0)
(3 2.28265e-15 0)
(3 3.09794e-15 0)
(3 3.19834e-15 0)
(3 2.59574e-15 0)
(3 1.92576e-15 0)
(3 5.50306e-16 0)
(3 4.3378e-16 0)
(3 -5.60801e-17 0)
(3 -6.50954e-17 0)
(1.63653 -1.26853 0)
(1.64783 -1.23386 0)
(2.64984 -0.285499 0)
(3 -6.08877e-15 0)
(3 -2.13298e-15 0)
(3 -4.93812e-16 0)
(3 -8.19059e-16 0)
(3 -9.46127e-16 0)
(3 -1.11309e-15 0)
(3 5.22115e-16 0)
(3 1.32231e-15 0)
(3 1.63147e-15 0)
(3 1.68263e-15 0)
(3 1.26502e-15 0)
(3 1.04266e-15 0)
(3 8.60498e-16 0)
(3 5.88344e-16 0)
(3 3.13461e-16 0)
(3 2.49309e-16 0)
(3 1.7069e-16 0)
(1.61818 -1.28045 0)
(1.5606 -1.31989 0)
(2.40652 -0.547876 0)
(3 -1.607e-14 0)
(3 5.97431e-13 0)
(3 -5.63873e-16 0)
(3 -1.00216e-15 0)
(3 -8.28946e-16 0)
(3 -4.99819e-16 0)
(3 1.17122e-15 0)
(3 1.47368e-15 0)
(3 1.47047e-15 0)
(3 7.91257e-16 0)
(3 1.34698e-15 0)
(3 1.12951e-15 0)
(3 3.99561e-16 0)
(3 -2.01629e-16 0)
(3 -5.66735e-16 0)
(3 -6.8073e-16 0)
(3 -8.31203e-16 0)
(1.59978 -1.29356 0)
(1.47229 -1.39182 0)
(2.13742 -0.848379 0)
(3.01078 0.00872133 0)
(3 -4.70057e-10 0)
(3 -1.24702e-14 0)
(3 1.72186e-16 0)
(3 -5.15921e-16 0)
(3 9.95084e-16 0)
(3 1.63491e-15 0)
(3 2.0641e-15 0)
(3 1.2534e-15 0)
(3 9.10113e-16 0)
(3 1.37768e-15 0)
(3 4.7655e-16 0)
(3 -2.8975e-16 0)
(3 -5.37724e-16 0)
(3 -7.59122e-16 0)
(3 -9.35896e-16 0)
(3 -9.66799e-16 0)
(1.58494 -1.3013 0)
(1.47519 -1.33614 0)
(1.99998 -1.02705 0)
(2.8913 -0.108741 0)
(3 8.31916e-11 0)
(3 -4.71529e-15 0)
(3 -5.15615e-16 0)
(3 -1.28685e-16 0)
(3 1.61926e-15 0)
(3 8.87187e-16 0)
(3 1.15709e-15 0)
(3 9.4933e-16 0)
(3 6.53857e-16 0)
(3 2.33614e-16 0)
(3 4.57396e-16 0)
(3 -4.64754e-16 0)
(3 -8.52453e-16 0)
(3 -6.34317e-16 0)
(3 -7.90932e-16 0)
(3 -9.09257e-16 0)
(1.5905 -1.32738 0)
(1.50264 -1.32763 0)
(1.72678 -1.18997 0)
(2.3853 -0.555747 0)
(3 1.16629e-10 0)
(3 -2.04706e-14 0)
(3 -1.81256e-14 0)
(3 4.28394e-14 0)
(3 -1.70871e-14 0)
(3 7.40788e-16 0)
(3 6.66325e-16 0)
(3 7.63186e-16 0)
(3 4.9703e-16 0)
(3 3.43541e-16 0)
(3 2.71755e-16 0)
(3 -6.59413e-16 0)
(3 -9.84349e-16 0)
(3 -1.06015e-15 0)
(3 -8.88064e-16 0)
(3 -1.35606e-15 0)
(1.58446 -1.2967 0)
(1.55502 -1.29719 0)
(1.68188 -1.2219 0)
(2.17321 -0.820387 0)
(3.02372 0.0221694 0)
(3 1.36225e-12 0)
(3 1.8731e-11 0)
(3 -2.51021e-11 0)
(3 3.48439e-12 0)
(3 -2.21366e-15 0)
(3 -1.05155e-15 0)
(3 3.80211e-16 0)
(3 5.74153e-16 0)
(3 -2.04716e-16 0)
(3 1.88387e-16 0)
(3 -1.44465e-17 0)
(3 -1.60626e-15 0)
(3 -1.74128e-15 0)
(3 -7.30808e-16 0)
(3 4.88699e-17 0)
(1.58412 -1.28485 0)
(1.58837 -1.28882 0)
(1.64149 -1.25609 0)
(1.78227 -1.1413 0)
(2.68376 -0.265134 0)
(3 5.71077e-10 0)
(3 -1.33448e-08 0)
(3 1.19985e-08 0)
(3 -5.0771e-10 0)
(3 -2.12019e-12 0)
(3 8.65654e-14 0)
(3 2.63761e-16 0)
(3 -1.24354e-16 0)
(3 -3.52329e-16 0)
(3 9.2139e-16 0)
(3 -2.69587e-16 0)
(3 -2.84642e-15 0)
(3 -1.71009e-15 0)
(3 -6.01144e-16 0)
(3 -1.94303e-16 0)
(1.58256 -1.26765 0)
(1.5965 -1.27199 0)
(1.62743 -1.2671 0)
(1.69029 -1.23125 0)
(2.38186 -0.62935 0)
(3.02017 0.0204056 0)
(2.99972 -3.68513e-05 0)
(3 3.77703e-06 0)
(3 -7.7037e-08 0)
(3 8.57346e-10 0)
(3 -1.32907e-13 0)
(3 3.83945e-16 0)
(3 -3.33897e-16 0)
(3 -4.90214e-16 0)
(3 8.47901e-16 0)
(3 6.33941e-16 0)
(3 -3.06291e-15 0)
(3 -1.08033e-15 0)
(3 6.119e-17 0)
(3 1.73335e-15 0)
(1.5801 -1.25374 0)
(1.59987 -1.25877 0)
(1.62431 -1.26637 0)
(1.60701 -1.3083 0)
(1.82961 -1.11424 0)
(2.72231 -0.245699 0)
(3.00394 -0.00110891 0)
(2.99994 -4.82398e-05 0)
(3 6.9705e-07 0)
(3 -8.14767e-10 0)
(3 7.24742e-15 0)
(3 8.84231e-16 0)
(3 6.00096e-17 0)
(3 1.21956e-16 0)
(3 2.67467e-16 0)
(3 -5.37434e-16 0)
(3 -2.75239e-15 0)
(3 2.28801e-16 0)
(3 1.03308e-15 0)
(3 2.02013e-15 0)
(1.57812 -1.2485 0)
(1.60043 -1.25513 0)
(1.61194 -1.26327 0)
(1.60124 -1.28646 0)
(1.73845 -1.20222 0)
(2.2998 -0.760951 0)
(3.00921 0.012448 0)
(2.99992 0.000146381 0)
(3 -4.98837e-07 0)
(3 -6.43351e-11 0)
(3 6.50953e-14 0)
(3 -9.75169e-16 0)
(3 2.37841e-16 0)
(3 3.64155e-16 0)
(3 -3.48724e-16 0)
(3 5.55468e-16 0)
(3 -7.134e-16 0)
(3 8.21924e-16 0)
(3 2.05144e-15 0)
(3 2.14008e-15 0)
(1.57455 -1.24036 0)
(1.59168 -1.25289 0)
(1.60822 -1.26153 0)
(1.6167 -1.26343 0)
(1.66935 -1.25317 0)
(1.73077 -1.22345 0)
(2.27406 -0.722961 0)
(2.99997 -0.00998134 0)
(3 -5.64364e-08 0)
(3 -8.59073e-11 0)
(3 2.04141e-15 0)
(3 -1.53501e-16 0)
(3 5.25e-15 0)
(3 -3.03916e-15 0)
(3 -1.939e-16 0)
(3 1.36813e-15 0)
(3 8.10025e-16 0)
(3 1.20963e-15 0)
(3 2.17227e-15 0)
(3 1.87951e-15 0)
(1.58168 -1.25699 0)
(1.58636 -1.26114 0)
(1.59914 -1.26327 0)
(1.60748 -1.25814 0)
(1.61189 -1.24087 0)
(1.58246 -1.26563 0)
(1.89118 -1.15937 0)
(2.96002 -0.395652 0)
(3.36904 0.637384 0)
(3 -2.53049e-11 0)
(3 -3.38722e-11 0)
(3 -5.66014e-15 0)
(3 -5.01979e-12 0)
(3 4.80163e-12 0)
(3 -9.95866e-15 0)
(3 -6.30773e-15 0)
(3 -9.75139e-16 0)
(3 1.25425e-15 0)
(3 1.77221e-15 0)
(3 1.78359e-15 0)
(1.16685 -0.758644 0)
(1.82278 -1.16249 0)
(1.84883 -1.14396 0)
(1.7518 -1.18581 0)
(1.71181 -1.20251 0)
(1.65981 -1.23716 0)
(1.65249 -1.21202 0)
(1.71939 -1.16264 0)
(1.74751 -1.23277 0)
(1.78395 -1.14372 0)
(2.26882 -0.743114 0)
(2.85731 -0.209811 0)
(3.09665 0.0278266 0)
(3.02068 0.0124816 0)
(3.00473 0.00555702 0)
(3.00192 0.00308975 0)
(3.00005 0.000599272 0)
(2.99997 2.35558e-05 0)
(2.99999 -1.45281e-05 0)
(3 -5.95321e-06 0)
(1.03662 -0.00706186 0)
(1.93411 -0.795525 0)
(2.085 -0.922268 0)
(2.01318 -0.959537 0)
(1.98136 -0.988528 0)
(1.86468 -1.09594 0)
(1.78196 -1.14486 0)
(1.75351 -1.1456 0)
(1.75243 -1.16188 0)
(1.73258 -1.20287 0)
(1.72059 -1.19327 0)
(1.87136 -1.06474 0)
(2.10127 -0.881365 0)
(2.49985 -0.576441 0)
(2.98316 -0.138119 0)
(3.07358 0.0291599 0)
(3.00825 0.00776585 0)
(3.00297 0.00387014 0)
(3.00124 0.0022122 0)
(3.00008 0.000485226 0)
(1.08403 0.0600825 0)
(1.82145 0.136189 0)
(2.26978 -0.0200703 0)
(2.22522 -0.550664 0)
(2.21833 -0.663003 0)
(2.1432 -0.783122 0)
(2.0505 -0.893485 0)
(1.95273 -0.983427 0)
(1.9075 -1.03954 0)
(1.84074 -1.12688 0)
(1.7918 -1.15649 0)
(1.7943 -1.15077 0)
(1.81214 -1.13073 0)
(1.84693 -1.08989 0)
(2.03466 -0.955935 0)
(2.25729 -0.831435 0)
(2.66473 -0.505428 0)
(3.03655 -0.0921523 0)
(3.05584 0.0240718 0)
(3.00412 0.00473399 0)
(1.55776 0.58826 0)
(2.01752 0.945046 0)
(2.42002 -0.0366929 0)
(2.31872 0.0812904 0)
(2.35667 0.0477616 0)
(2.36464 -0.291409 0)
(2.27155 -0.565601 0)
(2.18838 -0.697478 0)
(2.13809 -0.769522 0)
(2.07056 -0.900904 0)
(1.97291 -1.0108 0)
(1.92251 -1.06065 0)
(1.88717 -1.08065 0)
(1.86952 -1.09126 0)
(1.86888 -1.05913 0)
(1.89477 -1.05033 0)
(1.9601 -1.02235 0)
(2.16289 -0.904497 0)
(2.38089 -0.79481 0)
(2.77858 -0.444568 0)
(1.59572 1.35791 0)
(1.61496 1.74653 0)
(2.24919 0.596632 0)
(2.44646 0.67071 0)
(2.49714 0.0601838 0)
(2.44077 0.23061 0)
(2.41879 -0.00587006 0)
(2.38337 -0.194386 0)
(2.33073 -0.373967 0)
(2.30227 -0.524918 0)
(2.22853 -0.688292 0)
(2.15634 -0.811591 0)
(2.09097 -0.893186 0)
(2.02589 -0.96625 0)
(1.98053 -0.98312 0)
(1.94945 -0.999546 0)
(1.95305 -1.01962 0)
(1.9685 -0.996431 0)
(1.99506 -0.994961 0)
(2.07173 -0.977295 0)
(1.0573 1.55769 0)
(1.72799 1.81462 0)
(2.16751 1.18932 0)
(2.23293 0.930124 0)
(2.43369 0.501565 0)
(2.4925 0.524622 0)
(2.55475 0.295907 0)
(2.51705 -0.0407705 0)
(2.4866 -0.0902199 0)
(2.45985 -0.268808 0)
(2.42912 -0.436982 0)
(2.34899 -0.610662 0)
(2.28438 -0.719349 0)
(2.20519 -0.82016 0)
(2.15431 -0.845474 0)
(2.115 -0.850662 0)
(2.07647 -0.881334 0)
(2.07129 -0.880782 0)
(2.03959 -0.920198 0)
(2.05893 -0.951471 0)
(1.07211 1.77037 0)
(1.74915 1.98749 0)
(1.97028 1.79377 0)
(2.15305 1.09239 0)
(2.30155 1.18543 0)
(2.38672 0.655415 0)
(2.50112 0.506242 0)
(2.58367 0.195264 0)
(2.5751 0.0505743 0)
(2.55413 -0.0861441 0)
(2.54051 -0.223221 0)
(2.50094 -0.351331 0)
(2.45382 -0.445774 0)
(2.40291 -0.519322 0)
(2.35206 -0.558812 0)
(2.32465 -0.56295 0)
(2.27106 -0.613427 0)
(2.22068 -0.682565 0)
(2.15797 -0.775635 0)
(2.13078 -0.798907 0)
(1.38097 1.84262 0)
(1.66342 2.18367 0)
(1.71944 2.01616 0)
(2.0079 1.6466 0)
(2.16547 1.7026 0)
(2.2963 1.05376 0)
(2.31277 1.17859 0)
(2.45819 0.958647 0)
(2.51413 0.584242 0)
(2.54167 0.522686 0)
(2.5713 0.313424 0)
(2.57086 0.148861 0)
(2.55535 0.00261584 0)
(2.54163 -0.111201 0)
(2.48772 -0.263643 0)
(2.48029 -0.331197 0)
(2.4007 -0.48449 0)
(2.3446 -0.560691 0)
(2.29602 -0.601774 0)
(2.30866 -0.550814 0)
(1.55035 1.8628 0)
(1.74574 2.25856 0)
(1.73319 2.10291 0)
(1.82789 1.98717 0)
(2.00171 1.84108 0)
(2.16076 1.46617 0)
(2.23461 1.37233 0)
(2.34937 1.20216 0)
(2.41835 1.00731 0)
(2.46928 0.866217 0)
(2.56146 0.684573 0)
(2.59623 0.435011 0)
(2.6289 0.235618 0)
(2.63908 0.0512879 0)
(2.59077 -0.160191 0)
(2.56691 -0.258001 0)
(2.51524 -0.370153 0)
(2.4987 -0.297914 0)
(2.44645 -0.339864 0)
(2.47784 -0.26793 0)
(1.53135 1.80831 0)
(1.80331 2.26183 0)
(2.0531 2.26747 0)
(1.94406 2.13419 0)
(2.03195 1.94474 0)
(2.15497 1.68402 0)
(2.3333 1.43628 0)
(2.42044 1.3108 0)
(2.51532 1.24009 0)
(2.60426 0.89922 0)
(2.71485 0.710676 0)
(2.71895 0.418562 0)
(2.72239 0.271764 0)
(2.70558 0.123629 0)
(2.68409 0.0271581 0)
(2.65895 -0.00432447 0)
(2.63221 -0.0130682 0)
(2.62284 0.0391384 0)
(2.55568 -0.0978801 0)
(2.57819 -0.0866983 0)
(1.39803 1.65546 0)
(1.77105 2.22303 0)
(2.17899 2.33002 0)
(2.23675 2.40972 0)
(2.32737 2.09194 0)
(2.40517 1.89612 0)
(2.57582 1.49698 0)
(2.66488 1.41882 0)
(2.82499 1.30166 0)
(2.83307 0.923736 0)
(2.82518 0.878498 0)
(2.79626 0.67781 0)
(2.75214 0.645954 0)
(2.73716 0.543256 0)
(2.71607 0.465911 0)
(2.69199 0.405407 0)
(2.68883 0.360113 0)
(2.68342 0.254054 0)
(2.65061 0.0724082 0)
(2.6164 -0.0427449 0)
(1.22065 1.45436 0)
(1.63097 2.12811 0)
(2.10535 2.34482 0)
(2.1715 2.47824 0)
(2.43564 2.21381 0)
(2.55123 2.0069 0)
(2.57763 1.66298 0)
(2.5913 1.49885 0)
(2.60833 1.45214 0)
(2.62921 1.38294 0)
(2.6132 1.32675 0)
(2.63836 1.16846 0)
(2.61789 1.02913 0)
(2.65973 0.945435 0)
(2.67226 0.77116 0)
(2.7096 0.650158 0)
(2.74437 0.50252 0)
(2.74687 0.282366 0)
(2.72593 0.17896 0)
(2.67883 0.136408 0)
(1.16866 1.3589 0)
(1.47423 1.93887 0)
(1.86674 2.19089 0)
(1.99488 2.42339 0)
(2.22844 2.32002 0)
(2.33899 2.14153 0)
(2.2937 1.84196 0)
(2.2485 1.74842 0)
(2.25873 1.734 0)
(2.30117 1.68222 0)
(2.40598 1.4647 0)
(2.51007 1.37511 0)
(2.55787 1.15876 0)
(2.6831 1.07609 0)
(2.70657 0.846613 0)
(2.7729 0.693933 0)
(2.7866 0.52757 0)
(2.7924 0.371944 0)
(2.73703 0.460663 0)
(2.70392 0.443153 0)
(1.22801 1.28368 0)
(1.41673 1.75821 0)
(1.65907 2.1138 0)
(1.7852 2.35515 0)
(1.83862 2.3703 0)
(1.95977 2.23365 0)
(2.01971 2.00795 0)
(2.05293 1.83995 0)
(2.07621 1.78435 0)
(2.23608 1.70505 0)
(2.36852 1.48399 0)
(2.54765 1.41909 0)
(2.61432 1.19532 0)
(2.74102 1.10678 0)