/*--------------------------------*- C++ -*----------------------------------*\
  =========                 |
  \\      /  F ield         | OpenFOAM: The Open Source CFD Toolbox
   \\    /   O peration     | Website:  https://openfoam.org
    \\  /    A nd           | Version:  7
     \\/     M anipulation  |
\*---------------------------------------------------------------------------*/
FoamFile
{
    version     2.0;
    format      ascii;
    class       volVectorField;
    location    "2.8";
    object      U;
}
// * * * * * * * * * * * * * * * * * * * * * * * * * * * * * * * * * * * * * //

dimensions      [0 1 -1 0 0 0 0];

internalField   nonuniform List<vector> 
3700
(
(1.58828 -0.554243 0)
(1.44107 -0.67442 0)
(1.35584 -0.370569 0)
(1.3934 -0.347011 0)
(1.48134 -0.322512 0)
(1.52003 -0.226177 0)
(1.5773 -0.138024 0)
(1.63289 -0.131013 0)
(1.63288 -0.217451 0)
(1.59414 -0.265526 0)
(1.54448 -0.259152 0)
(1.54945 -0.187642 0)
(1.61893 -0.170177 0)
(1.69937 -0.208707 0)
(1.77408 -0.24975 0)
(1.78892 -0.322277 0)
(1.78316 -0.365533 0)
(1.75379 -0.334273 0)
(1.72762 -0.282432 0)
(1.72071 -0.159371 0)
(1.72097 -1.44406 0)
(1.65529 -1.51117 0)
(1.62959 -1.46107 0)
(1.72244 -1.4798 0)
(1.77183 -1.53067 0)
(1.77442 -1.3917 0)
(1.79337 -1.25693 0)
(1.86207 -1.23507 0)
(1.92097 -1.45643 0)
(1.88815 -1.49211 0)
(1.82413 -1.49271 0)
(1.84729 -1.34871 0)
(1.9469 -1.33233 0)
(2.0604 -1.39738 0)
(2.16181 -1.4 0)
(2.25398 -1.41592 0)
(2.28298 -1.34919 0)
(2.28527 -1.25918 0)
(2.26924 -1.1583 0)
(2.23087 -1.07029 0)
(1.5502 -1.3829 0)
(1.65069 -1.58389 0)
(1.69792 -1.8361 0)
(1.72373 -2.11869 0)
(1.76556 -2.24638 0)
(1.8096 -2.26743 0)
(1.89399 -2.25761 0)
(1.96091 -2.19132 0)
(2.00223 -2.17861 0)
(2.1314 -2.11681 0)
(2.18372 -2.12137 0)
(2.23168 -2.04691 0)
(2.27494 -1.97039 0)
(2.28467 -1.92652 0)
(2.32476 -1.83271 0)
(2.40958 -1.80963 0)
(2.48109 -1.71107 0)
(2.56997 -1.64046 0)
(2.65179 -1.55508 0)
(2.74636 -1.50539 0)
(1.46077 -1.383 0)
(1.59566 -1.69934 0)
(1.7136 -2.06457 0)
(1.72272 -2.31596 0)
(1.72692 -2.36734 0)
(1.80686 -2.29721 0)
(1.86315 -2.15645 0)
(1.96957 -1.97643 0)
(2.04469 -1.9366 0)
(2.24355 -1.92209 0)
(2.42874 -1.73967 0)
(2.52833 -1.74435 0)
(2.56967 -1.71772 0)
(2.50989 -1.76693 0)
(2.48469 -1.71598 0)
(2.4815 -1.71336 0)
(2.50476 -1.58948 0)
(2.5521 -1.47639 0)
(2.63273 -1.40321 0)
(2.74808 -1.2099 0)
(1.46106 -1.40144 0)
(1.66222 -1.82031 0)
(1.83487 -2.26905 0)
(1.81884 -2.41543 0)
(1.88648 -2.38182 0)
(2.03934 -2.32081 0)
(2.05503 -2.10312 0)
(1.97202 -2.01385 0)
(1.96745 -1.98033 0)
(2.1573 -1.87199 0)
(2.31405 -1.70862 0)
(2.51801 -1.62857 0)
(2.62864 -1.45802 0)
(2.69471 -1.3873 0)
(2.70611 -1.33783 0)
(2.66771 -1.38818 0)
(2.63079 -1.39902 0)
(2.61763 -1.29422 0)
(2.61585 -1.34469 0)
(2.67297 -1.15576 0)
(1.52283 -1.49502 0)
(1.81835 -1.85521 0)
(2.04058 -2.36476 0)
(2.06903 -2.48851 0)
(2.20849 -2.34387 0)
(2.22042 -2.27958 0)
(2.25929 -2.03281 0)
(2.12096 -1.99059 0)
(2.06118 -1.95584 0)
(2.16588 -1.85907 0)
(2.29115 -1.68749 0)
(2.46462 -1.58676 0)
(2.53741 -1.44433 0)
(2.6911 -1.35509 0)
(2.74616 -1.15899 0)
(2.80449 -0.999656 0)
(2.77847 -0.966414 0)
(2.76623 -0.894472 0)
(2.69809 -1.02438 0)
(2.67827 -0.965889 0)
(1.60988 -1.57975 0)
(1.97618 -1.92677 0)
(2.12745 -2.41816 0)
(2.06675 -2.49057 0)
(2.2463 -2.29611 0)
(2.33628 -2.19054 0)
(2.45169 -1.86046 0)
(2.40907 -1.83889 0)
(2.35335 -1.88121 0)
(2.38392 -1.77631 0)
(2.4218 -1.637 0)
(2.49118 -1.53175 0)
(2.53204 -1.35814 0)
(2.62285 -1.27679 0)
(2.66929 -1.12062 0)
(2.74386 -0.974943 0)
(2.81316 -0.822112 0)
(2.83608 -0.593879 0)
(2.78522 -0.553829 0)
(2.71755 -0.566973 0)
(1.7317 -1.6808 0)
(1.95188 -1.96567 0)
(1.9971 -2.42906 0)
(2.01914 -2.48028 0)
(2.21043 -2.22556 0)
(2.32354 -2.11958 0)
(2.46025 -1.79501 0)
(2.53069 -1.70263 0)
(2.62762 -1.64464 0)
(2.68773 -1.45407 0)
(2.63463 -1.47813 0)
(2.66239 -1.3067 0)
(2.62975 -1.20991 0)
(2.64678 -1.12654 0)
(2.66565 -0.98735 0)
(2.68876 -0.872758 0)
(2.74382 -0.794825 0)
(2.77847 -0.613194 0)
(2.78431 -0.434812 0)
(2.74007 -0.306491 0)
(1.78484 -1.74001 0)
(1.85545 -1.96979 0)
(1.78732 -2.36215 0)
(1.83008 -2.28921 0)
(2.03457 -2.07356 0)
(2.16893 -1.72188 0)
(2.29309 -1.67475 0)
(2.39192 -1.62362 0)
(2.61508 -1.48773 0)
(2.7048 -1.14067 0)
(2.73891 -1.10553 0)
(2.7581 -0.875636 0)
(2.74389 -0.849638 0)
(2.74605 -0.743997 0)
(2.73966 -0.669324 0)
(2.71981 -0.598117 0)
(2.71366 -0.552672 0)
(2.73714 -0.516722 0)
(2.71399 -0.350627 0)
(2.67334 -0.14881 0)
(1.74269 -1.77429 0)
(1.7044 -1.99509 0)
(1.62999 -2.28076 0)
(1.76282 -2.16635 0)
(1.94365 -1.98822 0)
(2.09858 -1.60495 0)
(2.12654 -1.63632 0)
(2.24141 -1.53602 0)
(2.36488 -1.4193 0)
(2.48393 -1.18182 0)
(2.61051 -0.985714 0)
(2.67026 -0.724263 0)
(2.70728 -0.547224 0)
(2.73376 -0.38773 0)
(2.72458 -0.243236 0)
(2.71319 -0.207577 0)
(2.69921 -0.153634 0)
(2.68783 -0.241004 0)
(2.6563 -0.184337 0)
(2.61498 -0.0261448 0)
(1.53111 -1.65301 0)
(1.50172 -1.86339 0)
(1.5237 -2.06108 0)
(1.79425 -1.91301 0)
(1.98651 -1.85235 0)
(2.17294 -1.47057 0)
(2.12485 -1.56292 0)
(2.28967 -1.43086 0)
(2.3919 -1.23283 0)
(2.42618 -1.1371 0)
(2.5114 -0.939842 0)
(2.57689 -0.736956 0)
(2.62505 -0.526366 0)
(2.69355 -0.371012 0)
(2.65481 -0.10763 0)
(2.65287 0.0150956 0)
(2.62047 0.175592 0)
(2.5945 0.125848 0)
(2.551 0.14092 0)
(2.58771 0.048691 0)
(1.3215 -1.40698 0)
(1.39671 -1.53558 0)
(1.65067 -1.68422 0)
(1.91152 -1.7708 0)
(2.07371 -1.668 0)
(2.23664 -1.28292 0)
(2.30901 -1.37932 0)
(2.49852 -1.08332 0)
(2.58284 -0.781198 0)
(2.58147 -0.808371 0)
(2.60185 -0.570343 0)
(2.61394 -0.430824 0)
(2.60771 -0.28264 0)
(2.6254 -0.189303 0)
(2.58044 -0.0105481 0)
(2.58535 0.0726566 0)
(2.53489 0.250091 0)
(2.48982 0.351845 0)
(2.43076 0.406483 0)
(2.45484 0.33424 0)
(1.17655 -1.21176 0)
(1.40636 -1.29084 0)
(1.86357 -1.40862 0)
(1.92713 -1.79516 0)
(2.12994 -1.57429 0)
(2.40627 -1.20101 0)
(2.63449 -0.938844 0)
(2.68653 -0.416514 0)
(2.69065 -0.324856 0)
(2.65892 -0.159425 0)
(2.64109 -0.0247127 0)
(2.60812 0.0992915 0)
(2.57897 0.185289 0)
(2.5462 0.254811 0)
(2.4967 0.315148 0)
(2.4673 0.325456 0)
(2.43211 0.36703 0)
(2.38079 0.464279 0)
(2.30612 0.586325 0)
(2.30057 0.564836 0)
(1.11172 -1.10533 0)
(1.44103 -1.23489 0)
(2.00121 -1.24763 0)
(2.14179 -1.86763 0)
(2.59813 -0.911477 0)
(2.52452 -1.08751 0)
(2.5888 -0.785744 0)
(2.57916 -0.381124 0)
(2.55984 -0.320905 0)
(2.55666 -0.0739254 0)
(2.5598 0.113359 0)
(2.49599 0.328448 0)
(2.46059 0.455953 0)
(2.38722 0.589444 0)
(2.33471 0.646544 0)
(2.28908 0.662071 0)
(2.24692 0.680315 0)
(2.24273 0.669829 0)
(2.18492 0.736105 0)
(2.13728 0.780482 0)
(0.988673 -1.05494 0)
(1.48668 -1.35121 0)
(2.49957 -0.853415 0)
(2.45454 -1.54435 0)
(2.57712 -0.636931 0)
(2.43226 -0.835771 0)
(2.45388 -0.483597 0)
(2.45585 -0.238837 0)
(2.4368 -0.0199326 0)
(2.44401 0.131575 0)
(2.40614 0.32448 0)
(2.34563 0.495796 0)
(2.30427 0.61074 0)
(2.23028 0.732709 0)
(2.17256 0.801969 0)
(2.11584 0.843974 0)
(2.0604 0.905067 0)
(2.05245 0.910477 0)
(2.0407 0.9287 0)
(2.06284 0.948226 0)
(1.12621 -0.728963 0)
(1.50632 -1.51249 0)
(2.45847 -0.98187 0)
(2.26076 -0.858993 0)
(2.35608 -0.634448 0)
(2.45151 -0.238409 0)
(2.4245 0.140951 0)
(2.38447 0.315193 0)
(2.32446 0.460279 0)
(2.29427 0.603225 0)
(2.19797 0.753174 0)
(2.13069 0.848452 0)
(2.08092 0.901117 0)
(2.03039 0.953345 0)
(1.99669 0.959086 0)
(1.95742 0.984409 0)
(1.95508 1.01499 0)
(1.96889 0.997195 0)
(1.99354 0.996607 0)
(2.07105 0.977753 0)
(1.14511 -0.457958 0)
(1.87622 -0.364692 0)
(2.12048 -0.975451 0)
(2.28395 -0.00131443 0)
(2.37944 0.0129411 0)
(2.32322 0.379507 0)
(2.30314 0.537523 0)
(2.18504 0.739992 0)
(2.13703 0.799141 0)
(2.07886 0.916663 0)
(1.96455 1.01912 0)
(1.90898 1.07164 0)
(1.87933 1.08849 0)
(1.86921 1.09367 0)
(1.87402 1.05699 0)
(1.89927 1.0484 0)
(1.96429 1.02023 0)
(2.16703 0.900501 0)
(2.38427 0.788753 0)
(2.78099 0.437917 0)
(1.12658 -0.100677 0)
(1.87097 -0.156378 0)
(2.23962 0.271483 0)
(2.24672 0.50087 0)
(2.1945 0.701769 0)
(2.13899 0.804434 0)
(2.04241 0.916694 0)
(1.97365 0.961133 0)
(1.91599 1.03158 0)
(1.84936 1.12197 0)
(1.78747 1.15449 0)
(1.79067 1.15088 0)
(1.8103 1.13151 0)
(1.85281 1.0887 0)
(2.04164 0.953654 0)
(2.25911 0.832168 0)
(2.66809 0.50286 0)
(3.03862 0.089557 0)
(3.05457 -0.0239627 0)
(3.00389 -0.00458859 0)
(1.01149 0.0350422 0)
(1.93614 0.750185 0)
(2.10787 0.853402 0)
(1.99142 0.984965 0)
(1.96204 0.98235 0)
(1.88065 1.07514 0)
(1.794 1.13601 0)
(1.7571 1.14869 0)
(1.75408 1.16503 0)
(1.73212 1.2041 0)
(1.71529 1.19578 0)
(1.86253 1.06921 0)
(2.09842 0.884569 0)
(2.50597 0.574857 0)
(2.98984 0.133335 0)
(3.07353 -0.0295112 0)
(3.00793 -0.00759252 0)
(3.00285 -0.00379142 0)
(3.0012 -0.00217003 0)
(3.00008 -0.000484292 0)
(1.18019 0.745318 0)
(1.82506 1.16453 0)
(1.84013 1.15602 0)
(1.73728 1.19054 0)
(1.70964 1.19228 0)
(1.66309 1.23936 0)
(1.65736 1.21173 0)
(1.7241 1.16513 0)
(1.75431 1.23023 0)
(1.78801 1.14039 0)
(2.26928 0.73924 0)
(2.85898 0.207605 0)
(3.09718 -0.0285002 0)
(3.02061 -0.0124022 0)
(3.00451 -0.00542146 0)
(3.00183 -0.00299919 0)
(3.00007 -0.000597698 0)
(2.99998 -2.38274e-05 0)
(2.99999 1.4146e-05 0)
(3 5.85275e-06 0)
(1.58194 1.2601 0)
(1.58626 1.26656 0)
(1.58952 1.27144 0)
(1.59263 1.25951 0)
(1.60652 1.23911 0)
(1.58859 1.26712 0)
(1.906 1.16365 0)
(2.95921 0.396615 0)
(3.35465 -0.616255 0)
(3 4.22115e-11 0)
(3 1.67142e-11 0)
(3 -4.15029e-14 0)
(3 7.29043e-12 0)
(3 -6.77721e-12 0)
(3 1.48558e-14 0)
(3 1.36819e-14 0)
(3 6.60737e-15 0)
(3 3.47353e-15 0)
(3 2.86934e-15 0)
(3 -1.55728e-15 0)
(1.58615 1.24919 0)
(1.59619 1.25963 0)
(1.59873 1.27355 0)
(1.59565 1.27826 0)
(1.6573 1.25721 0)
(1.70377 1.24421 0)
(2.26304 0.748525 0)
(2.99588 0.0162244 0)
(3 4.55664e-08 0)
(3 6.28833e-11 0)
(3 1.22386e-14 0)
(3 2.99476e-15 0)
(3 -3.01568e-15 0)
(3 1.08754e-14 0)
(3 2.22798e-15 0)
(3 2.83208e-15 0)
(3 3.53873e-15 0)
(3 2.03646e-15 0)
(3 7.11682e-16 0)
(3 9.77572e-18 0)
(1.58637 1.25019 0)
(1.60669 1.25496 0)
(1.61391 1.26042 0)
(1.59506 1.29003 0)
(1.70498 1.21898 0)
(2.2468 0.789811 0)
(2.99687 0.000419669 0)
(3.00024 -0.000634098 0)
(3 9.15002e-07 0)
(3 5.55096e-11 0)
(3 -1.6286e-13 0)
(3 3.23743e-15 0)
(3 3.3753e-15 0)
(3 3.67497e-15 0)
(3 2.36654e-15 0)
(3 2.44659e-15 0)
(3 3.41739e-15 0)
(3 3.48233e-15 0)
(3 2.55994e-15 0)
(3 1.50695e-15 0)
(1.58492 1.2527 0)
(1.60827 1.25579 0)
(1.62659 1.25577 0)
(1.6381 1.27393 0)
(1.83166 1.10683 0)
(2.72941 0.231797 0)
(3.00532 -0.00192763 0)
(2.99991 8.44307e-05 0)
(3 -1.00887e-06 0)
(3 9.12438e-10 0)
(3 1.15336e-15 0)
(3 1.53776e-15 0)
(3 2.43669e-15 0)
(3 3.00366e-15 0)
(3 2.229e-15 0)
(3 2.99937e-15 0)
(3 3.29136e-15 0)
(3 2.83823e-15 0)
(3 2.92542e-15 0)
(3 1.30272e-15 0)
(1.58454 1.26698 0)
(1.5959 1.26295 0)
(1.62506 1.25205 0)
(1.74638 1.19986 0)
(2.38966 0.63035 0)
(3.01926 -0.0188133 0)
(2.99976 0.000171818 0)
(3 -4.42747e-06 0)
(3 8.73061e-08 0)
(3 -9.35803e-10 0)
(3 8.43252e-16 0)
(3 9.44787e-16 0)
(3 1.91055e-15 0)
(3 2.31898e-15 0)
(3 2.16922e-15 0)
(3 2.6818e-15 0)
(3 2.18488e-15 0)
(3 3.06704e-15 0)
(3 2.83986e-15 0)
(3 2.29538e-15 0)
(1.58323 1.27709 0)
(1.57979 1.27177 0)
(1.63071 1.26424 0)
(1.76952 1.15938 0)
(2.69603 0.259804 0)
(3 -6.12153e-10 0)
(3 1.45671e-08 0)
(3 -1.31561e-08 0)
(3 5.73803e-10 0)
(3 3.18246e-12 0)
(3 -7.94606e-15 0)
(3 3.85483e-16 0)
(3 1.1336e-15 0)
(3 2.11732e-15 0)
(3 2.50753e-15 0)
(3 2.00052e-15 0)
(3 1.93483e-15 0)
(3 2.66409e-15 0)
(3 2.56923e-15 0)
(3 1.43158e-15 0)
(1.58034 1.2948 0)
(1.55925 1.29011 0)
(1.6758 1.23664 0)
(2.15763 0.83944 0)
(3.01758 -0.017001 0)
(3 -9.21515e-12 0)
(3 -1.44235e-11 0)
(3 2.50993e-11 0)
(3 -3.88128e-12 0)
(3 1.01105e-15 0)
(3 1.21002e-15 0)
(3 -6.88445e-16 0)
(3 -3.4036e-17 0)
(3 1.44086e-15 0)
(3 2.48111e-15 0)
(3 2.05964e-15 0)
(3 2.25849e-15 0)
(3 2.9739e-15 0)
(3 2.22946e-15 0)
(3 1.04609e-15 0)
(1.58815 1.32254 0)
(1.50399 1.32782 0)
(1.79531 1.17995 0)
(2.453 0.534338 0)
(3 -3.22586e-06 0)
(3 6.27282e-12 0)
(3 -4.83722e-14 0)
(3 3.61251e-14 0)
(3 -5.36861e-16 0)
(3 1.55834e-15 0)
(3 -2.31584e-16 0)
(3 -2.22086e-16 0)
(3 -3.73331e-16 0)
(3 5.58147e-16 0)
(3 1.53288e-15 0)
(3 1.55476e-15 0)
(3 2.32896e-15 0)
(3 2.86101e-15 0)
(3 2.40705e-15 0)
(3 1.45345e-15 0)
(1.58959 1.30828 0)
(1.462 1.3609 0)
(1.91253 1.05279 0)
(2.84583 0.136926 0)
(3 -1.90034e-08 0)
(3 -9.14654e-13 0)
(3 2.41429e-14 0)
(3 3.42051e-15 0)
(3 3.17827e-15 0)
(3 2.75242e-15 0)
(3 2.95278e-16 0)
(3 -5.36446e-16 0)
(3 -7.38872e-16 0)
(3 -5.22546e-16 0)
(3 3.50806e-16 0)
(3 5.04416e-16 0)
(3 5.85559e-16 0)
(3 2.46123e-15 0)
(3 2.47564e-15 0)
(3 1.93287e-15 0)
(1.606 1.2957 0)
(1.47691 1.38359 0)
(2.15982 0.822276 0)
(3.01112 -0.00943502 0)
(3 1.6604e-08 0)
(3 8.41932e-13 0)
(3 -1.15681e-15 0)
(3 4.83671e-15 0)
(3 3.53371e-15 0)
(3 2.67705e-15 0)
(3 9.8421e-16 0)
(3 -1.87439e-16 0)
(3 -8.00032e-16 0)
(3 -8.28707e-16 0)
(3 -7.93852e-16 0)
(3 -9.57409e-16 0)
(3 -1.12497e-15 0)
(3 -1.05171e-17 0)
(3 4.99715e-16 0)
(3 1.2301e-15 0)
(1.62482 1.28286 0)
(1.58012 1.31083 0)
(2.42501 0.527474 0)
(3 -5.41839e-13 0)
(3 -6.05746e-12 0)
(3 -1.78807e-14 0)
(3 4.56262e-15 0)
(3 2.7338e-15 0)
(3 2.19787e-15 0)
(3 1.2229e-15 0)
(3 -7.66759e-17 0)
(3 -3.55044e-16 0)
(3 -6.35062e-16 0)
(3 -3.76861e-16 0)
(3 -8.87978e-16 0)
(3 -1.01909e-15 0)
(3 -1.55883e-15 0)
(3 -1.71305e-15 0)
(3 -1.98372e-15 0)
(3 -2.27075e-15 0)
(1.64265 1.26573 0)
(1.64095 1.24623 0)
(2.65776 0.287361 0)
(3 -3.40934e-14 0)
(3 1.82848e-14 0)
(3 4.04802e-15 0)
(3 4.20855e-15 0)
(3 3.02452e-15 0)
(3 2.04208e-15 0)
(3 1.86126e-15 0)
(3 9.64016e-16 0)
(3 4.4712e-16 0)
(3 -4.63396e-16 0)
(3 -2.29379e-17 0)
(3 -4.40194e-16 0)
(3 -8.74932e-16 0)
(3 -9.96138e-16 0)
(3 -1.52483e-15 0)
(3 -2.06198e-15 0)
(3 -2.57138e-15 0)
(1.65866 1.23674 0)
(1.82689 1.10523 0)
(2.87268 0.0985461 0)
(3 8.45959e-15 0)
(3 2.40063e-15 0)
(3 2.71855e-15 0)
(3 2.63759e-15 0)
(3 2.37077e-15 0)
(3 1.73857e-15 0)
(3 1.20916e-15 0)
(3 7.59087e-16 0)
(3 8.89385e-16 0)
(3 5.71453e-16 0)
(3 8.35219e-17 0)
(3 -3.92754e-16 0)
(3 -6.24853e-16 0)
(3 -6.75372e-16 0)
(3 -1.04898e-15 0)
(3 -1.33948e-15 0)
(3 -1.6309e-15 0)
(1.65955 1.20392 0)
(1.87624 0.98873 0)
(2.97536 0.017681 0)
(3 4.8767e-16 0)
(3 1.81359e-15 0)
(3 1.92004e-15 0)
(3 1.55926e-15 0)
(3 1.56705e-15 0)
(3 1.4142e-15 0)
(3 1.27133e-15 0)
(3 7.12681e-16 0)
(3 7.81043e-16 0)
(3 1.19105e-15 0)
(3 1.24498e-15 0)
(3 5.27064e-16 0)
(3 3.84055e-16 0)
(3 7.19045e-16 0)
(3 4.36639e-16 0)
(3 -1.94319e-16 0)
(3 -6.9459e-16 0)
(1.69747 1.16586 0)
(2.05449 0.817529 0)
(3 -1.54225e-15 0)
(3 -5.68508e-16 0)
(3 8.04648e-16 0)
(3 1.78551e-15 0)
(3 1.65786e-15 0)
(3 2.01043e-15 0)
(3 2.10792e-15 0)
(3 1.6513e-15 0)
(3 9.906e-16 0)
(3 5.26794e-16 0)
(3 5.2553e-16 0)
(3 8.17328e-16 0)
(3 8.24974e-16 0)
(3 8.71643e-16 0)
(3 1.29591e-15 0)
(3 1.51705e-15 0)
(3 5.45234e-16 0)
(3 -2.93358e-17 0)
(1.76814 1.10272 0)
(2.2256 0.652362 0)
(3 -7.09558e-16 0)
(3 1.65092e-16 0)
(3 8.82325e-16 0)
(3 9.30039e-16 0)
(3 7.04738e-16 0)
(3 1.02657e-15 0)
(3 9.91436e-16 0)
(3 8.69863e-16 0)
(3 8.47391e-16 0)
(3 3.17363e-16 0)
(3 -8.5486e-17 0)
(3 -7.18755e-17 0)
(3 -2.76729e-17 0)
(3 -2.44747e-17 0)
(3 2.87762e-17 0)
(3 6.02901e-16 0)
(3 4.05106e-16 0)
(3 1.65002e-16 0)
(1.8455 1.00659 0)
(2.46844 0.434574 0)
(3 -1.04391e-15 0)
(3 -7.77719e-16 0)
(3 -5.06895e-16 0)
(3 5.64589e-17 0)
(3 2.35222e-16 0)
(3 4.27093e-16 0)
(3 7.24068e-16 0)
(3 7.66058e-16 0)
(3 6.54975e-16 0)
(3 -2.64734e-16 0)
(3 -8.13336e-16 0)
(3 -1.28648e-15 0)
(3 -1.12618e-15 0)
(3 -9.37604e-16 0)
(3 -2.78825e-16 0)
(3 -1.98866e-16 0)
(3 -7.74883e-18 0)
(3 3.19356e-16 0)
(1.92885 0.866279 0)
(2.71438 0.204226 0)
(3 -1.6985e-15 0)
(3 -1.02841e-15 0)
(3 -3.03945e-18 0)
(3 4.64875e-16 0)
(3 2.31962e-16 0)
(3 -6.05031e-17 0)
(3 -2.21281e-16 0)
(3 -4.27969e-16 0)
(3 -4.23467e-16 0)
(3 -7.72414e-17 0)
(3 -1.47715e-16 0)
(3 -4.64463e-16 0)
(3 -9.41765e-16 0)
(3 -1.05615e-15 0)
(3 -9.31691e-16 0)
(3 -7.99217e-16 0)
(3 -1.94518e-16 0)
(3 6.19767e-16 0)
(2.10262 0.665341 0)
(2.99109 -7.56586e-07 0)
(3 -3.93341e-15 0)
(3 -3.34934e-15 0)
(3 -2.47609e-15 0)
(3 -1.85874e-15 0)
(3 -1.02466e-15 0)
(3 -8.33549e-16 0)
(3 -6.33967e-16 0)
(3 -7.77111e-16 0)
(3 -8.42669e-16 0)
(3 -8.81295e-16 0)
(3 -9.44151e-16 0)
(3 -8.69926e-16 0)
(3 -1.27937e-15 0)
(3 -2.17919e-15 0)
(3 -2.91761e-15 0)
(3 -2.73348e-15 0)
(3 -2.55904e-15 0)
(3 -2.04797e-15 0)
(1.99257 0.372782 0)
(2.99989 -1.61093e-05 0)
(3 -4.26562e-15 0)
(3 -4.07864e-15 0)
(3 -3.44609e-15 0)
(3 -3.17346e-15 0)
(3 -1.86681e-15 0)
(3 -7.86488e-16 0)
(3 4.18991e-16 0)
(3 9.72454e-16 0)
(3 1.10388e-15 0)
(3 9.35857e-16 0)
(3 5.17586e-16 0)
(3 7.27674e-17 0)
(3 8.31665e-17 0)
(3 3.81803e-16 0)
(3 3.18996e-16 0)
(3 1.37162e-16 0)
(3 2.60636e-17 0)
(3 -2.10829e-17 0)
(1.99277 -0.373617 0)
(2.99989 1.53763e-05 0)
(3 -3.92316e-15 0)
(3 -2.87025e-15 0)
(3 -2.05601e-15 0)
(3 -1.52705e-15 0)
(3 -1.25102e-15 0)
(3 -1.11255e-15 0)
(3 -5.50629e-16 0)
(3 3.33818e-16 0)
(3 8.49341e-16 0)
(3 8.74247e-16 0)
(3 7.89485e-16 0)
(3 5.73427e-16 0)
(3 6.55997e-16 0)
(3 9.17989e-16 0)
(3 1.40795e-15 0)
(3 1.46095e-15 0)
(3 1.14146e-15 0)
(3 1.03333e-15 0)
(2.10826 -0.666042 0)
(2.99104 -8.72526e-06 0)
(3 -3.85332e-15 0)
(3 -3.43601e-15 0)
(3 -2.88539e-15 0)
(3 -2.54315e-15 0)
(3 -2.71899e-15 0)
(3 -2.29954e-15 0)
(3 -1.8392e-15 0)
(3 -1.70311e-15 0)
(3 -1.81488e-15 0)
(3 -5.63841e-16 0)
(3 -4.44625e-16 0)
(3 -5.90121e-16 0)
(3 -1.10277e-16 0)
(3 1.60009e-16 0)
(3 3.71577e-16 0)
(3 3.81853e-16 0)
(3 4.47375e-16 0)
(3 2.97569e-16 0)
(1.93051 -0.867111 0)
(2.71417 -0.20458 0)
(3 -4.36964e-15 0)
(3 -3.49193e-15 0)
(3 -3.54909e-15 0)
(3 -3.31146e-15 0)
(3 -3.41465e-15 0)
(3 -2.40382e-15 0)
(3 -1.61927e-15 0)
(3 -1.69645e-15 0)
(3 -6.54992e-16 0)
(3 -1.76463e-16 0)
(3 -9.88872e-16 0)
(3 -8.33964e-16 0)
(3 3.59725e-17 0)
(3 5.34548e-16 0)
(3 -1.46513e-16 0)
(3 -4.75727e-16 0)
(3 -3.58238e-16 0)
(3 -5.4879e-17 0)
(1.84382 -1.00655 0)
(2.46677 -0.435426 0)
(3 1.78296e-16 0)
(3 7.52586e-16 0)
(3 -2.63735e-16 0)
(3 -3.33325e-15 0)
(3 -3.54459e-15 0)
(3 -2.86998e-15 0)
(3 -3.90647e-16 0)
(3 5.83763e-16 0)
(3 1.19678e-16 0)
(3 -1.61923e-16 0)
(3 -4.11281e-16 0)
(3 3.39675e-17 0)
(3 3.31577e-16 0)
(3 7.14901e-16 0)
(3 1.36309e-15 0)
(3 1.95668e-15 0)
(3 2.00276e-15 0)
(3 2.00277e-15 0)
(1.76796 -1.10242 0)
(2.22554 -0.652677 0)
(3 1.42301e-15 0)
(3 3.68654e-15 0)
(3 1.91296e-15 0)
(3 1.64919e-15 0)
(3 2.23059e-15 0)
(3 2.75001e-15 0)
(3 3.36595e-15 0)
(3 3.9305e-15 0)
(3 3.75909e-15 0)
(3 3.7253e-15 0)
(3 4.01888e-15 0)
(3 3.85659e-15 0)
(3 3.66108e-15 0)
(3 3.00743e-15 0)
(3 2.32663e-15 0)
(3 2.03928e-15 0)
(3 1.99869e-15 0)
(3 2.32126e-15 0)
(1.69828 -1.16548 0)
(2.05551 -0.817022 0)
(3 1.78345e-15 0)
(3 1.71734e-15 0)
(3 1.44245e-15 0)
(3 1.51689e-15 0)
(3 2.20855e-15 0)
(3 2.98187e-15 0)
(3 3.69488e-15 0)
(3 3.87993e-15 0)
(3 4.11449e-15 0)
(3 4.44138e-15 0)
(3 4.3642e-15 0)
(3 4.00596e-15 0)
(3 3.84583e-15 0)
(3 3.27025e-15 0)
(3 1.13735e-15 0)
(3 1.33159e-15 0)
(3 2.19116e-15 0)
(3 3.19248e-15 0)
(1.65933 -1.20392 0)
(1.87646 -0.988166 0)
(2.97556 -0.0174791 0)
(3 6.58387e-16 0)
(3 2.93295e-16 0)
(3 1.40286e-15 0)
(3 1.55937e-15 0)
(3 2.29867e-15 0)
(3 2.55617e-15 0)
(3 2.60256e-15 0)
(3 3.16529e-15 0)
(3 2.75388e-15 0)
(3 1.79892e-15 0)
(3 1.47939e-15 0)
(3 1.58548e-15 0)
(3 1.16113e-15 0)
(3 5.10278e-16 0)
(3 8.64808e-16 0)
(3 1.42254e-15 0)
(3 1.56622e-15 0)
(1.65846 -1.23669 0)
(1.82669 -1.10501 0)
(2.87257 -0.0985202 0)
(3 -9.501e-15 0)
(3 -4.64382e-16 0)
(3 -2.05379e-16 0)
(3 3.98962e-16 0)
(3 1.27491e-15 0)
(3 1.75822e-15 0)
(3 2.05607e-15 0)
(3 2.1596e-15 0)
(3 1.01309e-15 0)
(3 2.19791e-16 0)
(3 3.78215e-16 0)
(3 6.1509e-16 0)
(3 2.1055e-16 0)
(3 -3.84902e-16 0)
(3 6.0672e-16 0)
(3 1.09313e-15 0)
(3 1.06553e-15 0)
(1.64244 -1.26581 0)
(1.64081 -1.24626 0)
(2.65738 -0.287748 0)
(3 5.03103e-14 0)
(3 -1.38981e-14 0)
(3 -3.38772e-17 0)
(3 -8.1676e-17 0)
(3 2.32111e-16 0)
(3 1.06437e-15 0)
(3 1.51351e-15 0)
(3 1.4759e-15 0)
(3 7.61897e-16 0)
(3 5.26039e-16 0)
(3 3.91749e-16 0)
(3 -4.62854e-17 0)
(3 1.95655e-17 0)
(3 9.8877e-19 0)
(3 3.04367e-16 0)
(3 2.86125e-16 0)
(3 -1.50567e-16 0)
(1.62471 -1.2829 0)
(1.58017 -1.31093 0)
(2.42486 -0.527804 0)
(3 4.67021e-13 0)
(3 5.5713e-12 0)
(3 2.12207e-14 0)
(3 -8.80532e-18 0)
(3 7.24661e-16 0)
(3 1.83289e-15 0)
(3 1.73335e-15 0)
(3 9.46362e-16 0)
(3 8.25384e-16 0)
(3 3.1378e-16 0)
(3 1.00767e-15 0)
(3 7.41133e-16 0)
(3 2.29849e-16 0)
(3 -2.58067e-16 0)
(3 -6.18969e-16 0)
(3 -7.66923e-16 0)
(3 -8.60398e-16 0)
(1.60601 -1.29561 0)
(1.47693 -1.38345 0)
(2.16004 -0.822053 0)
(3.01112 0.00942109 0)
(3 -1.53732e-08 0)
(3 -9.10961e-13 0)
(3 6.81291e-15 0)
(3 8.3482e-16 0)
(3 1.81564e-15 0)
(3 1.56268e-15 0)
(3 1.46515e-15 0)
(3 1.39685e-15 0)
(3 1.11668e-15 0)
(3 7.11217e-16 0)
(3 1.40205e-16 0)
(3 -6.43574e-16 0)
(3 -1.00927e-15 0)
(3 -8.87914e-16 0)
(3 -7.29057e-16 0)
(3 -9.51163e-16 0)
(1.58961 -1.3083 0)
(1.46213 -1.3608 0)
(1.91327 -1.05244 0)
(2.8462 -0.136565 0)
(3 1.78185e-08 0)
(3 1.09137e-12 0)
(3 -2.17866e-14 0)
(3 1.72847e-15 0)
(3 2.29508e-15 0)
(3 1.97073e-15 0)
(3 1.39542e-15 0)
(3 1.19533e-15 0)
(3 9.31295e-16 0)
(3 3.14996e-16 0)
(3 -4.65075e-16 0)
(3 -9.24456e-16 0)
(3 -1.16756e-15 0)
(3 -6.61882e-16 0)
(3 -1.09191e-15 0)
(3 -1.41748e-15 0)
(1.58807 -1.32274 0)
(1.50304 -1.32793 0)
(1.79304 -1.18015 0)
(2.45095 -0.535804 0)
(3 2.52707e-06 0)
(3 -6.20112e-12 0)
(3 6.29126e-14 0)
(3 -3.36679e-14 0)
(3 5.22866e-15 0)
(3 1.94224e-15 0)
(3 1.38639e-15 0)
(3 6.80772e-16 0)
(3 9.00388e-16 0)
(3 -1.99102e-16 0)
(3 -7.48489e-16 0)
(3 -5.53606e-16 0)
(3 -8.33687e-16 0)
(3 -3.82553e-16 0)
(3 -6.81449e-16 0)
(3 -1.36403e-15 0)
(1.58037 -1.29439 0)
(1.55983 -1.29021 0)
(1.6774 -1.23639 0)
(2.16205 -0.837567 0)
(3.01899 0.0183207 0)
(3 8.75902e-12 0)
(3 1.45222e-11 0)
(3 -2.51139e-11 0)
(3 3.88401e-12 0)
(3 2.92839e-15 0)
(3 7.69959e-16 0)
(3 1.52746e-15 0)
(3 1.27835e-15 0)
(3 -4.30378e-16 0)
(3 -8.81315e-16 0)
(3 -1.76507e-16 0)
(3 2.41068e-16 0)
(3 3.63465e-16 0)
(3 4.87103e-17 0)
(3 -1.06047e-15 0)
(1.58334 -1.27701 0)
(1.5802 -1.2714 0)
(1.63125 -1.26387 0)
(1.76916 -1.15914 0)
(2.69611 -0.258917 0)
(3 6.12358e-10 0)
(3 -1.45648e-08 0)
(3 1.31533e-08 0)
(3 -5.73646e-10 0)
(3 -3.15453e-12 0)
(3 9.15392e-15 0)
(3 1.49217e-15 0)
(3 1.42887e-15 0)
(3 -1.69296e-17 0)
(3 -5.69498e-16 0)
(3 -1.69558e-16 0)
(3 5.09506e-16 0)
(3 7.84442e-16 0)
(3 8.49269e-16 0)
(3 5.26104e-16 0)
(1.58486 -1.26714 0)
(1.59609 -1.26307 0)
(1.62533 -1.25248 0)
(1.74511 -1.20017 0)
(2.3887 -0.630238 0)
(3.0193 0.0188128 0)
(2.99976 -0.000171497 0)
(3 4.43576e-06 0)
(3 -8.72975e-08 0)
(3 9.36824e-10 0)
(3 2.67826e-15 0)
(3 1.36443e-15 0)
(3 1.40134e-15 0)
(3 8.00587e-16 0)
(3 -5.94078e-16 0)
(3 4.71277e-16 0)
(3 8.97371e-16 0)
(3 7.83284e-16 0)
(3 1.72097e-17 0)
(3 1.10524e-16 0)
(1.58517 -1.25322 0)
(1.60826 -1.25622 0)
(1.6264 -1.25601 0)
(1.6374 -1.27442 0)
(1.83118 -1.10704 0)
(2.72948 -0.231853 0)
(3.0053 0.00189826 0)
(2.99991 -8.44812e-05 0)
(3 1.01686e-06 0)
(3 -9.14854e-10 0)
(3 2.69781e-15 0)
(3 1.76789e-15 0)
(3 1.7842e-15 0)
(3 1.31259e-15 0)
(3 -2.26378e-16 0)
(3 4.25001e-16 0)
(3 8.40936e-16 0)
(3 5.22865e-16 0)
(3 8.27482e-16 0)
(3 1.18412e-15 0)
(1.58634 -1.25037 0)
(1.60657 -1.25505 0)
(1.6138 -1.26038 0)
(1.59523 -1.29011 0)
(1.70654 -1.21826 0)
(2.24896 -0.789305 0)
(2.99719 -8.56284e-05 0)
(3.00024 0.000633731 0)
(3 -9.2637e-07 0)
(3 -5.50532e-11 0)
(3 1.61616e-13 0)
(3 1.59671e-15 0)
(3 1.57073e-15 0)
(3 3.23696e-16 0)
(3 6.76357e-19 0)
(3 8.0073e-16 0)
(3 1.03455e-15 0)
(3 4.31174e-16 0)
(3 6.60231e-16 0)
(3 1.00442e-15 0)
(1.58597 -1.24915 0)
(1.59631 -1.25944 0)
(1.59895 -1.27321 0)
(1.59575 -1.27768 0)
(1.65706 -1.25673 0)
(1.70134 -1.24493 0)
(2.26251 -0.748213 0)
(2.9958 -0.0163727 0)
(3 -4.56137e-08 0)
(3 -6.14091e-11 0)
(3 -8.60628e-15 0)
(3 5.11082e-16 0)
(3 5.91811e-15 0)
(3 -4.84376e-15 0)
(3 -8.7064e-17 0)
(3 1.4725e-15 0)
(3 2.73459e-15 0)
(3 2.22723e-15 0)
(3 1.08351e-15 0)
(3 -1.08079e-16 0)
(1.58219 -1.26014 0)
(1.58634 -1.26651 0)
(1.58976 -1.2714 0)
(1.59287 -1.2595 0)
(1.60675 -1.23936 0)
(1.58844 -1.26718 0)
(1.90627 -1.16261 0)
(2.95775 -0.396092 0)
(3.35496 0.614362 0)
(3 -4.13516e-11 0)
(3 -1.8117e-11 0)
(3 -3.41544e-14 0)
(3 -3.92718e-12 0)
(3 3.72287e-12 0)
(3 -7.09648e-15 0)
(3 -4.24497e-15 0)
(3 4.28728e-16 0)
(3 2.23611e-15 0)
(3 1.58829e-15 0)
(3 1.063e-15 0)
(1.18155 -0.744689 0)
(1.82609 -1.16374 0)
(1.84029 -1.15796 0)
(1.73709 -1.19291 0)
(1.70978 -1.19399 0)
(1.66224 -1.24103 0)
(1.65586 -1.2127 0)
(1.72275 -1.16606 0)
(1.75347 -1.23095 0)
(1.78785 -1.14116 0)
(2.27 -0.739306 0)
(2.86002 -0.207028 0)
(3.09729 0.0286569 0)
(3.02052 0.0123776 0)
(3.00451 0.00541411 0)
(3.00183 0.00299678 0)
(3.00007 0.000598801 0)
(2.99998 2.38292e-05 0)
(2.99999 -1.4146e-05 0)
(3 -5.85402e-06 0)
(1.00213 -0.0456528 0)
(1.93143 -0.744463 0)
(2.11066 -0.83144 0)
(1.99088 -0.976612 0)
(1.96352 -0.977608 0)
(1.88124 -1.07277 0)
(1.79439 -1.1345 0)
(1.75731 -1.1485 0)
(1.75442 -1.16486 0)
(1.73259 -1.20391 0)
(1.71589 -1.19565 0)
(1.86279 -1.06928 0)
(2.0984 -0.884939 0)
(2.50667 -0.574611 0)
(2.99047 -0.132832 0)
(3.07342 0.0295298 0)
(3.00789 0.00757224 0)
(3.00284 0.00378711 0)
(3.00119 0.0021691 0)
(3.00008 0.000484216 0)
(1.15604 0.161498 0)
(1.90648 0.0663227 0)
(2.24297 -0.349934 0)
(2.25221 -0.499248 0)
(2.19659 -0.699049 0)
(2.13829 -0.804651 0)
(2.04125 -0.916453 0)
(1.973 -0.960969 0)
(1.91623 -1.03093 0)
(1.84992 -1.12156 0)
(1.78779 -1.15441 0)
(1.79084 -1.15105 0)
(1.81035 -1.13179 0)
(1.85292 -1.08892 0)
(2.04181 -0.953756 0)
(2.25937 -0.831988 0)
(2.66873 -0.50214 0)
(3.03887 -0.089088 0)
(3.05453 0.0240085 0)
(3.00389 0.00458801 0)
(1.01094 0.441772 0)
(1.85542 0.49922 0)
(2.09866 1.00759 0)
(2.28384 -0.0393974 0)
(2.38091 -0.0144878 0)
(2.32417 -0.37835 0)
(2.30086 -0.539044 0)
(2.18539 -0.73727 0)
(2.13669 -0.797962 0)
(2.07963 -0.916099 0)
(1.96491 -1.0189 0)
(1.90887 -1.07199 0)
(1.87914 -1.08901 0)
(1.86931 -1.09393 0)
(1.87396 -1.05701 0)
(1.89921 -1.04835 0)
(1.96427 -1.02007 0)
(2.16718 -0.900176 0)
(2.38454 -0.788406 0)
(2.78114 -0.43776 0)
(0.63326 0.50812 0)
(1.43344 0.876986 0)
(2.45748 1.09499 0)
(2.24932 0.88345 0)
(2.35494 0.628179 0)
(2.45108 0.237014 0)
(2.42331 -0.14454 0)
(2.38279 -0.322425 0)
(2.32366 -0.463901 0)
(2.29421 -0.605328 0)
(2.19803 -0.754374 0)
(2.13034 -0.849443 0)
(2.08068 -0.901712 0)
(2.03046 -0.953422 0)
(1.99691 -0.958721 0)
(1.95745 -0.98399 0)
(1.95501 -1.01477 0)
(1.96885 -0.997175 0)
(1.99347 -0.996618 0)
(2.071 -0.977767 0)
(0.785301 0.799457 0)
(1.28314 0.950858 0)
(2.28779 1.21493 0)
(2.52338 1.46722 0)
(2.58243 0.667643 0)
(2.43316 0.83229 0)
(2.45208 0.48888 0)
(2.45335 0.240707 0)
(2.43513 0.020789 0)
(2.44362 -0.129927 0)
(2.40638 -0.322629 0)
(2.34586 -0.493861 0)
(2.3046 -0.608867 0)
(2.23071 -0.731119 0)
(2.17317 -0.800549 0)
(2.11564 -0.843817 0)
(2.05987 -0.905662 0)
(2.05189 -0.911228 0)
(2.04048 -0.9291 0)
(2.06281 -0.948268 0)
(0.974553 0.989688 0)
(1.26092 1.05286 0)
(1.98551 1.45842 0)
(2.17448 1.93434 0)
(2.675 0.819349 0)
(2.5289 1.10189 0)
(2.58662 0.800392 0)
(2.57422 0.398724 0)
(2.55629 0.330942 0)
(2.55567 0.0807884 0)
(2.56032 -0.110113 0)
(2.49645 -0.327442 0)
(2.46052 -0.456552 0)
(2.38741 -0.5897 0)
(2.33457 -0.647402 0)
(2.28838 -0.663621 0)
(2.24663 -0.681102 0)
(2.24307 -0.669715 0)
(2.18526 -0.735667 0)
(2.13748 -0.779987 0)
(1.16276 1.15511 0)
(1.34248 1.2137 0)
(1.82522 1.61411 0)
(1.89562 1.97008 0)
(2.20052 1.48304 0)
(2.42627 1.25771 0)
(2.64151 0.958087 0)
(2.69016 0.421414 0)
(2.69292 0.32482 0)
(2.66006 0.155032 0)
(2.64316 0.0234782 0)
(2.60909 -0.102944 0)
(2.57986 -0.18853 0)
(2.54677 -0.25764 0)
(2.49686 -0.317644 0)
(2.46727 -0.326686 0)
(2.43268 -0.366678 0)
(2.3809 -0.464345 0)
(2.30576 -0.586602 0)
(2.29993 -0.565233 0)
(1.35263 1.38091 0)
(1.39062 1.46877 0)
(1.63368 1.7696 0)
(1.85138 1.93858 0)
(2.13085 1.59243 0)
(2.24912 1.32203 0)
(2.33714 1.36714 0)
(2.5081 1.05762 0)
(2.58786 0.771661 0)
(2.58601 0.804555 0)
(2.60448 0.56541 0)
(2.61637 0.429166 0)
(2.60967 0.282577 0)
(2.62602 0.189934 0)
(2.58054 0.0127801 0)
(2.58552 -0.0698147 0)
(2.53529 -0.247826 0)
(2.49003 -0.35101 0)
(2.43069 -0.405856 0)
(2.45493 -0.333266 0)
(1.5693 1.62688 0)
(1.47413 1.79127 0)
(1.46113 2.05754 0)
(1.76766 2.00566 0)
(2.03793 1.78198 0)
(2.19284 1.47828 0)
(2.14286 1.54405 0)
(2.29153 1.42103 0)
(2.39089 1.22788 0)
(2.42594 1.13678 0)
(2.51061 0.940423 0)
(2.57621 0.740144 0)
(2.62486 0.531353 0)
(2.69337 0.375557 0)
(2.65462 0.111313 0)
(2.65322 -0.0121921 0)
(2.62079 -0.175099 0)
(2.5947 -0.126323 0)
(2.55089 -0.141764 0)
(2.58727 -0.0509873 0)
(1.78725 1.76029 0)
(1.69142 1.97896 0)
(1.57514 2.2928 0)
(1.75892 2.1838 0)
(1.95438 1.96604 0)
(2.0913 1.64365 0)
(2.13495 1.60302 0)
(2.23522 1.51777 0)
(2.35907 1.40854 0)
(2.47814 1.18786 0)
(2.60719 1.00066 0)
(2.66791 0.733089 0)
(2.70695 0.552192 0)
(2.7346 0.390401 0)
(2.72536 0.243585 0)
(2.71391 0.204251 0)
(2.69992 0.149013 0)
(2.68848 0.237542 0)
(2.65708 0.181988 0)
(2.61519 0.0253017 0)
(1.89992 1.78402 0)
(1.83961 2.01999 0)
(1.70202 2.35309 0)
(1.81418 2.2868 0)
(2.01747 2.05086 0)
(2.1584 1.75004 0)
(2.29159 1.63807 0)
(2.36544 1.62063 0)
(2.59329 1.48199 0)
(2.69827 1.1345 0)
(2.73504 1.09418 0)
(2.75514 0.869984 0)
(2.74526 0.843256 0)
(2.74964 0.73965 0)
(2.74367 0.666165 0)
(2.72309 0.594042 0)
(2.71584 0.551567 0)
(2.73752 0.517115 0)
(2.71467 0.353046 0)
(2.67407 0.151404 0)
(1.88144 1.74451 0)
(1.94994 1.98201 0)
(1.9111 2.39199 0)
(2.01536 2.43359 0)
(2.20088 2.16583 0)
(2.29568 2.07995 0)
(2.46699 1.73776 0)
(2.56844 1.64755 0)
(2.63231 1.61689 0)
(2.68684 1.43756 0)
(2.63869 1.4679 0)
(2.66987 1.30251 0)
(2.63803 1.20829 0)
(2.65431 1.12497 0)
(2.67045 0.986607 0)
(2.69089 0.873572 0)
(2.74461 0.799019 0)
(2.77817 0.616918 0)
(2.78432 0.437918 0)
(2.73967 0.307424 0)
(1.70641 1.63188 0)
(1.9834 1.92291 0)
(2.05142 2.3766 0)
(2.06952 2.42369 0)
(2.24966 2.22631 0)
(2.31601 2.18231 0)
(2.44304 1.82027 0)
(2.36997 1.83985 0)
(2.35372 1.86075 0)
(2.38376 1.76895 0)
(2.42446 1.63976 0)
(2.49704 1.53826 0)
(2.53539 1.36764 0)
(2.62347 1.28721 0)
(2.66674 1.12868 0)
(2.74219 0.985049 0)