/*--------------------------------*- C++ -*----------------------------------*\
  =========                 |
  \\      /  F ield         | OpenFOAM: The Open Source CFD Toolbox
   \\    /   O peration     | Website:  https://openfoam.org
    \\  /    A nd           | Version:  7
     \\/     M anipulation  |
\*---------------------------------------------------------------------------*/
FoamFile
{
    version     2.0;
    format      ascii;
    class       volScalarField;
    location    "7.2";
    object      rho;
}
// * * * * * * * * * * * * * * * * * * * * * * * * * * * * * * * * * * * * * //

dimensions      [1 -3 0 0 0 0 0];

internalField   nonuniform List<scalar> 
3700
(
0.214429
0.340492
0.423743
0.48212
0.526568
0.541816
0.552154
0.555787
0.56808
0.587309
0.598674
0.626966
0.632174
0.642998
0.675357
0.685256
0.709025
0.717113
0.706122
0.719598
0.131917
0.148113
0.171593
0.15682
0.147992
0.153391
0.163877
0.154058
0.145725
0.164735
0.213957
0.260927
0.274543
0.269177
0.272528
0.281296
0.290439
0.278698
0.266932
0.263389
0.110792
0.115657
0.110195
0.0929891
0.0706825
0.0653819
0.0703146
0.0780194
0.0888805
0.100872
0.118835
0.132279
0.142682
0.14689
0.146001
0.145759
0.146869
0.149591
0.158315
0.179979
0.0993066
0.105031
0.1039
0.0817817
0.0600253
0.0644032
0.0697015
0.0766177
0.0874811
0.102285
0.122535
0.13942
0.165279
0.191616
0.205286
0.217581
0.214963
0.21226
0.211519
0.230987
0.0846664
0.0884329
0.0829542
0.0658426
0.0624026
0.0751782
0.0831456
0.0892918
0.0989126
0.112658
0.123026
0.137331
0.164457
0.201863
0.232309
0.261665
0.279187
0.289798
0.289774
0.299421
0.0711784
0.0769859
0.0716279
0.063824
0.0739208
0.0914394
0.103332
0.117829
0.138199
0.165112
0.156513
0.160918
0.170064
0.199879
0.24183
0.285716
0.328433
0.367302
0.39971
0.437363
0.0584463
0.0703975
0.0711499
0.071422
0.0806728
0.10262
0.113839
0.137909
0.181238
0.220404
0.227524
0.242642
0.241905
0.253352
0.268467
0.305609
0.361578
0.432847
0.492994
0.590572
0.0516813
0.0677779
0.0735046
0.0742004
0.0834635
0.10961
0.116891
0.143227
0.201693
0.251175
0.296098
0.329367
0.362645
0.39564
0.412755
0.437367
0.464218
0.52548
0.606078
0.766596
0.0486266
0.0654103
0.0723108
0.0724722
0.0808561
0.117349
0.122059
0.142989
0.200769
0.267237
0.335248
0.389533
0.464042
0.522925
0.579831
0.633726
0.68212
0.736119
0.806347
1.01215
0.0497694
0.0621026
0.0654344
0.0708921
0.0943398
0.136015
0.149385
0.186906
0.230058
0.281303
0.36235
0.442784
0.552042
0.641659
0.73994
0.842568
0.941735
1.02991
1.13788
1.32657
0.0599558
0.0553744
0.0580293
0.0854706
0.132169
0.172786
0.219053
0.29975
0.374676
0.446396
0.524201
0.609206
0.711325
0.815857
0.931797
1.07913
1.24574
1.39542
1.62638
1.57305
0.0650585
0.0490868
0.0596238
0.11013
0.166395
0.211792
0.295525
0.406123
0.535663
0.691219
0.818452
0.944599
1.06669
1.18114
1.29156
1.44035
1.64691
1.85413
2.1748
2.11928
0.0650739
0.0493044
0.0686768
0.114448
0.17272
0.216446
0.342208
0.468187
0.650448
0.895107
1.09614
1.30038
1.49254
1.66651
1.85349
2.06708
2.29046
2.52786
2.90489
2.90311
0.0575263
0.0504571
0.0691954
0.0879662
0.158098
0.220672
0.37418
0.571183
0.862683
1.18728
1.48929
1.77292
2.04839
2.30537
2.62022
2.93839
3.24829
3.56954
3.88673
4.18176
0.034697
0.0392848
0.0692162
0.0828518
0.150689
0.430455
0.773536
1.16394
1.62376
2.03889
2.3807
2.68777
2.99903
3.32553
3.75225
4.14126
4.50744
4.84299
5.06501
5.2557
0.0177498
0.0361642
0.0640995
0.154538
0.431603
1.04189
1.60469
2.17305
2.77961
3.29398
3.66402
4.03156
4.41089
4.8142
5.26186
5.53626
5.68077
5.72916
5.60049
5.43027
0.0117971
0.0424194
0.135187
0.551939
1.2895
2.04355
2.80082
3.59769
4.40353
4.89791
5.21303
5.55196
5.85915
6.09141
6.21231
6.10915
5.80937
5.0714
3.88622
2.63948
0.0506085
0.227762
0.75253
1.67008
2.93926
4.01444
4.89902
5.82653
6.59861
6.69972
6.5732
6.59155
6.53876
6.30893
5.60149
4.26971
2.91483
1.86167
1.42547
1.39006
0.424181
1.1854
2.75059
4.481
5.79018
6.65261
7.47905
8.17519
7.97326
7.33334
6.72718
5.98523
4.71545
3.24205
1.99559
1.44248
1.38523
1.39295
1.39628
1.39923
3.23528
5.08793
6.83433
7.9257
8.54841
8.89775
9.07883
8.67101
6.32223
4.47082
3.31241
2.18962
1.51147
1.38232
1.38995
1.39472
1.3988
1.39997
1.40003
1.40002
9.69326
9.61331
9.56583
9.56699
9.64784
9.42791
8.36695
3.26832
0.888243
1.40001
1.40001
1.40001
1.40001
1.40001
1.40001
1.40001
1.40001
1.40001
1.40001
1.40001
9.64026
9.56164
9.48119
9.44439
9.58828
8.02543
3.57815
1.41949
1.40001
1.40001
1.40001
1.40001
1.40001
1.40001
1.40001
1.40001
1.40001
1.40001
1.40001
1.40001
9.42687
9.49579
9.43067
9.15715
8.83105
4.61933
1.44718
1.39928
1.40001
1.40001
1.40001
1.40001
1.40001
1.40001
1.40001
1.40001
1.40001
1.40001
1.40001
1.40001
9.24525
9.46904
9.45152
8.85673
6.58836
2.05696
1.39198
1.40013
1.4
1.40001
1.40001
1.40001
1.40001
1.40001
1.40001
1.40001
1.40001
1.40001
1.40001
1.40001
9.02657
9.4756
9.51381
8.62466
3.90184
1.363
1.40052
1.4
1.40001
1.40001
1.40001
1.40001
1.40001
1.40001
1.40001
1.40001
1.40001
1.40001
1.40001
1.40001
8.857
9.36104
9.49408
6.97998
1.91875
1.40001
1.40001
1.40001
1.40001
1.40001
1.40001
1.40001
1.40001
1.40001
1.40001
1.40001
1.40001
1.40001
1.40001
1.40001
8.8069
9.22065
9.14153
4.80943
1.36735
1.40001
1.40001
1.40001
1.40001
1.40001
1.40001
1.40001
1.40001
1.40001
1.40001
1.40001
1.40001
1.40001
1.40001
1.40001
8.97723
9.20617
8.44758
2.8836
1.40001
1.40001
1.40001
1.40001
1.40001
1.40001
1.40001
1.40001
1.40001
1.40001
1.40001
1.40001
1.40001
1.40001
1.40001
1.40001
9.61954
9.32147
6.87026
1.63867
1.40001
1.40001
1.40001
1.40001
1.40001
1.40001
1.40001
1.40001
1.40001
1.40001
1.40001
1.40001
1.40001
1.40001
1.40001
1.40001
9.99518
8.81914
4.93049
1.3826
1.40001
1.40001
1.40001
1.40001
1.40001
1.40001
1.40001
1.40001
1.40001
1.40001
1.40001
1.40001
1.40001
1.40001
1.40001
1.40001
10.3003
8.3655
3.19724
1.40001
1.40001
1.40001
1.40001
1.40001
1.40001
1.40001
1.40001
1.40001
1.40001
1.40001
1.40001
1.40001
1.40001
1.40001
1.40001
1.40001
10.4166
7.49709
2.21927
1.40001
1.40001
1.40001
1.40001
1.40001
1.40001
1.40001
1.40001
1.40001
1.40001
1.40001
1.40001
1.40001
1.40001
1.40001
1.40001
1.40001
10.4788
6.5611
1.63992
1.40001
1.40001
1.40001
1.40001
1.40001
1.40001
1.40001
1.40001
1.40001
1.40001
1.40001
1.40001
1.40001
1.40001
1.40001
1.40001
1.40001
10.2856
5.50602
1.40148
1.40001
1.40001
1.40001
1.40001
1.40001
1.40001
1.40001
1.40001
1.40001
1.40001
1.40001
1.40001
1.40001
1.40001
1.40001
1.40001
1.40001
9.8786
4.44731
1.40001
1.40001
1.40001
1.40001
1.40001
1.40001
1.40001
1.40001
1.40001
1.40001
1.40001
1.40001
1.40001
1.40001
1.40001
1.40001
1.40001
1.40001
9.56666
3.60843
1.40001
1.40001
1.40001
1.40001
1.40001
1.40001
1.40001
1.40001
1.40001
1.40001
1.40001
1.40001
1.40001
1.40001
1.40001
1.40001
1.40001
1.40001
9.36708
2.65679
1.40001
1.40001
1.40001
1.40001
1.40001
1.40001
1.40001
1.40001
1.40001
1.40001
1.40001
1.40001
1.40001
1.40001
1.40001
1.40001
1.40001
1.40001
8.72797
1.87045
1.40001
1.40001
1.40001
1.40001
1.40001
1.40001
1.40001
1.40001
1.40001
1.40001
1.40001
1.40001
1.40001
1.40001
1.40001
1.40001
1.40001
1.40001
7.86424
1.40655
1.40001
1.40001
1.40001
1.40001
1.40001
1.40001
1.40001
1.40001
1.40001
1.40001
1.40001
1.40001
1.40001
1.40001
1.40001
1.40001
1.40001
1.40001
6.48509
1.4001
1.40001
1.40001
1.40001
1.40001
1.40001
1.40001
1.40001
1.40001
1.40001
1.40001
1.40001
1.40001
1.40001
1.40001
1.40001
1.40001
1.40001
1.40001
6.48617
1.40011
1.40001
1.40001
1.40001
1.40001
1.40001
1.40001
1.40001
1.40001
1.40001
1.40001
1.40001
1.40001
1.40001
1.40001
1.40001
1.40001
1.40001
1.40001
7.88409
1.40635
1.40001
1.40001
1.40001
1.40001
1.40001
1.40001
1.40001
1.40001
1.40001
1.40001
1.40001
1.40001
1.40001
1.40001
1.40001
1.40001
1.40001
1.40001
8.70712
1.8607
1.40001
1.40001
1.40001
1.40001
1.40001
1.40001
1.40001
1.40001
1.40001
1.40001
1.40001
1.40001
1.40001
1.40001
1.40001
1.40001
1.40001
1.40001
9.37951
2.63949
1.40001
1.40001
1.40001
1.40001
1.40001
1.40001
1.40001
1.40001
1.40001
1.40001
1.40001
1.40001
1.40001
1.40001
1.40001
1.40001
1.40001
1.40001
9.58601
3.61336
1.40001
1.40001
1.40001
1.40001
1.40001
1.40001
1.40001
1.40001
1.40001
1.40001
1.40001
1.40001
1.40001
1.40001
1.40001
1.40001
1.40001
1.40001
9.86362
4.47515
1.40001
1.40001
1.40001
1.40001
1.40001
1.40001
1.40001
1.40001
1.40001
1.40001
1.40001
1.40001
1.40001
1.40001
1.40001
1.40001
1.40001
1.40001
10.2797
5.49664
1.40079
1.40001
1.40001
1.40001
1.40001
1.40001
1.40001
1.40001
1.40001
1.40001
1.40001
1.40001
1.40001
1.40001
1.40001
1.40001
1.40001
1.40001
10.4849
6.55555
1.63752
1.40001
1.40001
1.40001
1.40001
1.40001
1.40001
1.40001
1.40001
1.40001
1.40001
1.40001
1.40001
1.40001
1.40001
1.40001
1.40001
1.40001
10.4231
7.48683
2.21934
1.40001
1.40001
1.40001
1.40001
1.40001
1.40001
1.40001
1.40001
1.40001
1.40001
1.40001
1.40001
1.40001
1.40001
1.40001
1.40001
1.40001
10.3164
8.37507
3.17824
1.40001
1.40001
1.40001
1.40001
1.40001
1.40001
1.40001
1.40001
1.40001
1.40001
1.40001
1.40001
1.40001
1.40001
1.40001
1.40001
1.40001
10.0062
8.81834
4.92015
1.38248
1.40001
1.40001
1.40001
1.40001
1.40001
1.40001
1.40001
1.40001
1.40001
1.40001
1.40001
1.40001
1.40001
1.40001
1.40001
1.40001
9.61055
9.31346
6.86387
1.64903
1.40001
1.40001
1.40001
1.40001
1.40001
1.40001
1.40001
1.40001
1.40001
1.40001
1.40001
1.40001
1.40001
1.40001
1.40001
1.40001
8.97074
9.22938
8.48051
2.88501
1.40001
1.40001
1.40001
1.40001
1.40001
1.40001
1.40001
1.40001
1.40001
1.40001
1.40001
1.40001
1.40001
1.40001
1.40001
1.40001
8.80403
9.22033
9.12088
4.83708
1.37428
1.40001
1.40001
1.40001
1.40001
1.40001
1.40001
1.40001
1.40001
1.40001
1.40001
1.40001
1.40001
1.40001
1.40001
1.40001
8.84943
9.3475
9.47649
6.91324
1.90084
1.40001
1.40001
1.40001
1.40001
1.40001
1.40001
1.40001
1.40001
1.40001
1.40001
1.40001
1.40001
1.40001
1.40001
1.40001
9.01818
9.47594
9.52631
8.73135
3.86144
1.36334
1.40052
1.4
1.40001
1.40001
1.40001
1.40001
1.40001
1.40001
1.40001
1.40001
1.40001
1.40001
1.40001
1.40001
9.23706
9.46909
9.47168
8.86972
6.61285
2.08592
1.39129
1.40014
1.4
1.40001
1.40001
1.40001
1.40001
1.40001
1.40001
1.40001
1.40001
1.40001
1.40001
1.40001
9.41579
9.49191
9.4007
9.11169
8.78137
4.64915
1.45508
1.39912
1.40001
1.40001
1.40001
1.40001
1.40001
1.40001
1.40001
1.40001
1.40001
1.40001
1.40001
1.40001
9.62781
9.55653
9.46562
9.40728
9.61459
8.01746
3.56302
1.41606
1.40001
1.40001
1.40001
1.40001
1.40001
1.40001
1.40001
1.40001
1.40001
1.40001
1.40001
1.40001
9.69419
9.61636
9.57347
9.59546
9.69746
9.42981
8.36002
3.23335
0.895271
1.40001
1.40001
1.40001
1.40001
1.40001
1.40001
1.40001
1.40001
1.40001
1.40001
1.40001
3.23406
5.0724
6.81363
7.93069
8.58305
8.91474
9.08458
8.66752
6.31773
4.4682
3.31253
2.19313
1.51372
1.38256
1.39003
1.39475
1.39881
1.39997
1.40003
1.40002
0.438804
1.24573
2.80515
4.48955
5.77391
6.64273
7.47514
8.17659
7.97626
7.3369
6.72859
5.98418
4.71426
3.23985
1.99376
1.44188
1.38521
1.39294
1.39628
1.39923
0.0291361
0.173705
0.737776
1.69248
2.9543
4.00726
4.88775
5.81987
6.60143
6.69883
6.56871
6.58662
6.53543
6.30853
5.60326
4.27123
2.91566
1.86181
1.4254
1.39008
0.0161406
0.0310376
0.146237
0.563751
1.30644
2.05745
2.80275
3.59604
4.40275
4.89643
5.21226
5.54876
5.85472
6.09244
6.2147
6.11117
5.81111
5.07223
3.88516
2.63782
0.0280092
0.0299307
0.0364753
0.135332
0.4159
1.04015
1.60856
2.18046
2.78806
3.29997
3.66576
4.02875
4.40722
4.81278
5.26315
5.53943
5.68181
5.72836
5.59938
5.42897
0.0524207
0.0378924
0.0401043
0.07317
0.149025
0.426385
0.774586
1.16585
1.62535
2.03781
2.3791
2.68634
2.99741
3.32455
3.75338
4.14437
4.51012
4.84325
5.06392
5.25507
0.0685363
0.0475754
0.0490205
0.08948
0.167448
0.21999
0.372633
0.570504
0.861065
1.1875
1.49017
1.77343
2.04833
2.30624
2.62334
2.94253
3.25123
3.57045
3.88518
4.17984
0.0674455
0.0431871
0.0628642
0.116487
0.176636
0.220397
0.341733
0.469715
0.651554
0.896755
1.09584
1.2995
1.49188
1.66674
1.8545
2.06861
2.29135
2.52641
2.90307
2.90099
0.0647069
0.0415443
0.0582318
0.109674
0.166657
0.217208
0.296273
0.407752
0.535203
0.689175
0.816452
0.942628
1.06485
1.17965
1.29046
1.43976
1.64649
1.85329
2.17363
2.1193
0.0622738
0.0452063
0.0536059
0.0826309
0.130253
0.17765
0.219071
0.298178
0.372718
0.442781
0.52224
0.608016
0.710832
0.815981
0.932436
1.07954
1.24501
1.39485
1.62598
1.57153
0.0567195
0.0585994
0.0599226
0.0699517
0.094204
0.139221
0.147492
0.184277
0.229081
0.280875
0.362755
0.444695
0.554373
0.643652
0.740916
0.842337
0.94061
1.02843
1.13757
1.32641
0.0559654
0.0672151
0.0698054
0.0718939
0.0812928
0.117653
0.121186
0.142448
0.202362
0.269396
0.336891
0.391235
0.465162
0.523038
0.579088
0.632389
0.680932
0.734044
0.804688
1.01113
0.0587287
0.071432
0.0725116
0.0723804
0.0835815
0.108617
0.117393
0.144514
0.204523
0.254092
0.29763
0.329817
0.361883
0.393978
0.41131
0.436113
0.463363
0.524274
0.604717
0.76656
0.0636705
0.0722344
0.0712728
0.0708158
0.0808915
0.102401
0.116865
0.140623
0.183603
0.22253
0.227774
0.241696
0.241378
0.253137
0.268504
0.305169
0.360795
0.432142
0.492512
0.591256
0.077333
0.074991
0.0716965
0.0657447
0.0747727
0.0920155
0.107573
0.120055
0.13855
0.164268
0.155702
0.159981
0.16977
0.200343
0.242017
0.285004
0.327311
0.366934
0.399762
0.437453
0.0956276
0.0878467
0.080761
0.0655313
0.0631481
0.0752551
0.0862667
0.0890941
0.097918
0.111463
0.122225
0.137009
0.164782
0.201733
0.231332
0.260287
0.278288
0.289462
0.289141
0.298223
0.104073
0.106322
0.104238
0.0817054
0.0613759
0.0637331
0.0697421
0.0770955
0.0870128
0.10143
0.122005
0.139467
0.165333
0.190584
0.203583
0.21593
0.214336
0.211481
0.21053
0.230025
0.107069
0.113236
0.111328
0.0968675
0.0749884
0.0639885
0.0692688
0.07856
0.0887081
0.100935
0.118745
0.131938
0.141628
0.145616
0.144898
0.144862
0.146135
0.149436
0.15907
0.180351
0.121813
0.135483
0.14917
0.172391
0.174201
0.156298
0.147433
0.170043
0.200927
0.215511
0.219724
0.233557
0.256535
0.280756
0.280874
0.259197
0.250083
0.259551
0.290879
0.306802
0.206594
0.329288
0.386779
0.488653
0.543217
0.542673
0.543285
0.559501
0.604758
0.622987
0.602137
0.619054
0.63361
0.653973
0.677839
0.674996
0.694747
0.724264
0.737296
0.742796
0.779906
0.891921
0.963348
1.08143
1.16151
1.2387
1.22997
1.2106
1.19584
1.20895
1.26125
1.33798
1.35057
1.32859
1.29537
1.29411
1.32017
1.35449
1.35331
1.33623
0.38853
0.562124
0.757021
0.927258
1.06557
1.18341
1.20483
1.22068
1.21717
1.22824
1.26718
1.32467
1.3426
1.33155
1.30207
1.29878
1.31874
1.34587
1.34669
1.33729
0.195042
0.217941
0.337875
0.508746
0.732191
0.964044
1.09094
1.1986
1.24448
1.25355
1.26739
1.2908
1.31423
1.32106
1.32072
1.31796
1.32074
1.3227
1.32329
1.33015
0.266329
0.303686
0.3229
0.326741
0.348432
0.443415
0.71636
1.03149
1.16473
1.26553
1.27746
1.26525
1.27569
1.31204
1.3379
1.34159
1.3346
1.31622
1.31291
1.32876
0.324918
0.37186
0.401054
0.393189
0.385751
0.390685
0.42084
0.566811
0.898375
1.16878
1.22875
1.21717
1.24373
1.30199
1.35083
1.35734
1.3448
1.30951
1.30507
1.32727
0.42297
0.46482
0.476999
0.451013
0.425879
0.426946
0.444974
0.462796
0.534431
0.747393
1.03104
1.16453
1.20282
1.28461
1.35053
1.36168
1.34847
1.31113
1.30975
1.33438
0.5523
0.569974
0.576016
0.537197
0.502586
0.503053
0.511348
0.525501
0.53804
0.546541
0.646605
0.940159
1.13756
1.24381
1.34533
1.35725
1.34447
1.31366
1.32175
1.3456
0.720505
0.703241
0.688876
0.635416
0.565149
0.551799
0.559148
0.558492
0.561366
0.556508
0.559812
0.625762
0.896524
1.141
1.27841
1.3351
1.32108
1.31122
1.34251
1.3507
0.936458
0.851079
0.818212
0.7501
0.655007
0.628646
0.623447
0.614845
0.611122
0.60499
0.588098
0.584912
0.632277
0.884436
1.1327
1.29799
1.27013
1.2989
1.35615
1.35066
1.20737
1.02668
0.971613
0.897588
0.782358
0.713619
0.680818
0.662844
0.640315
0.641966
0.625578
0.61736
0.60978
0.643412
0.845847
1.14496
1.21631
1.30531
1.36563
1.34659
1.80284
1.24095
1.06474
1.01941
0.956366
0.910411
0.819378
0.733329
0.714987
0.707843
0.694567
0.682594
0.668643
0.640734
0.657665
0.78084
1.04349
1.24717
1.31861
1.32931
2.85302
2.10041
1.54025
1.2796
1.18054
1.13933
1.05368
0.906088
0.825835
0.789028
0.761384
0.760046
0.746599
0.714406
0.675111
0.67975
0.738093
0.894871
1.09422
1.26551
3.47417
3.05035
2.38669
1.87129
1.50437
1.29671
1.19363
1.04717
0.967937
0.945474
0.915894
0.890793
0.8601
0.803152
0.758831
0.73064
0.736452
0.747047
0.797361
1.03823
3.29409
3.27231
3.1201
2.68785
2.19639
1.72504
1.50235
1.34656
1.21569
1.15018
1.07256
0.989612
0.93306
0.879215
0.83196
0.814579
0.794155
0.774754
0.763517
0.814807
2.35279
2.98425
3.09893
3.05598
2.8851
2.48001
2.0485
1.75319
1.49528
1.33678
1.20471
1.07081
1.03354
1.02241
0.992057
0.955015
0.909087
0.86228
0.799492
0.803899
1.55249
2.00773
2.57593
2.94788
2.94954
2.89895
2.68203
2.35192
1.99281
1.71559
1.53126
1.34646
1.25461
1.1987
1.12497
1.05146
0.97832
0.911601
0.872042
0.843179
1.40635
1.46163
1.68477
2.16153
2.61045
2.82336
2.80861
2.74382
2.5621
2.24941
1.96678
1.71437
1.50534
1.35771
1.22695
1.13869
1.09144
1.03138
1.01437
0.97432
1.40014
1.40154
1.41465
1.50945
1.77854
2.20029
2.54553
2.70104
2.69299
2.63429
2.46889
2.21653
1.93712
1.70898
1.52637
1.38363
1.30985
1.24592
1.17179
1.06144
1.40001
1.40002
1.40021
1.40355
1.42641
1.54306
1.80684
2.17926
2.4654
2.59345
2.5863
2.54081
2.39943
2.17339
1.93703
1.7053
1.52683
1.39899
1.29661
1.16639
1.40001
1.40001
1.40001
1.40004
1.40046
1.40565
1.43475
1.5508
1.79817
2.12947
2.38008
2.49817
2.4926
2.45338
2.34352
2.15346
1.93237
1.71527
1.56822
1.39734
1.40001
1.40001
1.40001
1.40001
1.40001
1.40007
1.40071
1.40643
1.43744
1.54616
1.76928
2.05879
2.29623
2.41003
2.40643
2.37972
2.29756
2.13327
1.94854
1.67183
1.40001
1.40001
1.40001
1.40001
1.40001
1.40001
1.40001
1.40009
1.40084
1.40651
1.43542
1.53217
1.72588
1.98556
2.19957
2.33485
2.33109
2.31063
2.25907
2.04782
1.40001
1.40001
1.40001
1.40001
1.40001
1.40001
1.40001
1.40001
1.40001
1.40009
1.40081
1.40616
1.42902
1.51499
1.67506
1.91959
2.10425
2.24652
2.2574
2.2254
1.40001
1.40001
1.40001
1.40001
1.40001
1.40001
1.40001
1.40001
1.40001
1.40001
1.40001
1.40009
1.40065
1.40518
1.42418
1.48821
1.63155
1.84028
2.01766
2.16486
1.40001
1.40001
1.40001
1.40001
1.40001
1.40001
1.40001
1.40001
1.40001
1.40001
1.40001
1.40001
1.40001
1.40007
1.40056
1.40355
1.41991
1.47211
1.59022
1.94119
2.2457
3.4276
3.59392
2.90696
1.8315
1.45154
1.40262
1.40007
1.40001
1.40001
1.40001
1.40001
1.40001
1.40001
1.40001
3.26829
3.91799
3.51887
2.15096
1.4671
1.40113
1.40001
1.4
1.40001
1.40001
1.40001
1.40001
1.40001
1.40001
1.40001
4.07969
3.99287
2.75913
1.61132
1.40723
1.40007
1.40001
1.40001
1.40001
1.40001
1.40001
1.40001
1.40001
1.40001
1.40001
4.52556
3.56464
1.90855
1.42717
1.40028
1.40001
1.40001
1.40001
1.40001
1.40001
1.40001
1.40001
1.40001
1.40001
1.40001
4.62457
2.35287
1.4653
1.40066
1.40001
1.40001
1.40001
1.40001
1.40001
1.40001
1.40001
1.40001
1.40001
1.40001
1.40001
2.88442
1.50253
1.40072
1.4
1.4
1.40001
1.40001
1.40001
1.40001
1.40001
1.40001
1.40001
1.40001
1.40001
1.40001
1.54241
1.40078
1.4
1.4
1.40001
1.40001
1.40001
1.40001
1.40001
1.40001
1.40001
1.40001
1.40001
1.40001
1.40001
1.39741
1.39982
1.4
1.40001
1.40001
1.40001
1.40001
1.40001
1.40001
1.40001
1.40001
1.40001
1.40001
1.40001
1.40001
1.39996
1.40001
1.40001
1.40001
1.40001
1.40001
1.40001
1.40001
1.40001
1.40001
1.40001
1.40001
1.40001
1.40001
1.40001
1.40001
1.40001
1.40001
1.40001
1.40001
1.40001
1.40001
1.40001
1.40001
1.40001
1.40001
1.40001
1.40001
1.40001
1.40001
1.40001
1.40001
1.40001
1.40001
1.40001
1.40001
1.40001
1.40001
1.40001
1.40001
1.40001
1.40001
1.40001
1.40001
1.40001
1.40001
1.40001
1.40001
1.40001
1.40001
1.40001
1.40001
1.40001
1.40001
1.40001
1.40001
1.40001
1.40001
1.40001
1.40001
1.40001
1.40001
1.40001
1.40001
1.40001
1.40001
1.40001
1.40001
1.40001
1.40001
1.40001
1.40001
1.40001
1.40001
1.40001
1.40001
1.40001
1.40001
1.40001
1.40001
1.40001
1.40001
1.40001
1.40001
1.40001
1.40001
1.40001
1.40001
1.40001
1.40001
1.40001
1.40001
1.40001
1.40001
1.40001
1.40001
1.40001
1.40001
1.40001
1.40001
1.40001
1.40001
1.40001
1.40001
1.40001
1.40001
1.40001
1.40001
1.40001
1.40001
1.40001
1.40001
1.40001
1.40001
1.40001
1.40001
1.40001
1.40001
1.40001
1.40001
1.40001
1.40001
1.40001
1.40001
1.40001
1.40001
1.40001
1.40001
1.40001
1.40001
1.40001
1.40001
1.40001
1.40001
1.40001
1.40001
1.40001
1.40001
1.40001
1.40001
1.40001
1.40001
1.40001
1.40001
1.40001
1.40001
1.40001
1.40001
1.40001
1.40001
1.40001
1.40001
1.40001
1.40001
1.40001
1.40001
1.40001
1.40001
1.40001
1.40001
1.40001
1.40001
1.40001
1.40001
1.40001
1.40001
1.40001
1.40001
1.40001
1.40001
1.40001
1.40001
1.40001
1.40001
1.40001
1.40001
1.40001
1.40001
1.40001
1.40001
1.40001
1.40001
1.40001
1.40001
1.40001
1.40001
1.40001
1.40001
1.40001
1.40001
1.40001
1.40001
1.40001
1.40001
1.40001
1.40001
1.40001
1.40001
1.40001
1.40001
1.40001
1.40001
1.40001
1.40001
1.40001
1.40001
1.40001
1.40001
1.40001
1.40001
1.40001
1.40001
1.40001
1.40001
1.40001
1.40001
1.40001
1.40001
1.40001
1.40001
1.40001
1.40001
1.40001
1.40001
1.40001
1.40001
1.40001
1.40001
1.40001
1.40001
1.40001
1.40001
1.40001
1.40001
1.40001
1.40001
1.40001
1.40001
1.40001
1.40001
1.40001
1.40001
1.40001
1.40001
1.40001
1.40001
1.40001
1.40001
1.40001
1.40001
1.40001
1.40001
1.40001
1.40001
1.40001
1.40001
1.40001
1.40001
1.40001
1.40001
1.40001
1.40001
1.40001
1.40001
1.40001
1.40001
1.40001
1.40001
1.40001
1.40001
1.40001
1.40001
1.40001
1.40001
1.40001
1.40001
1.40001
1.40001
1.40001
1.40001
1.40001
1.40001
1.40001
1.40001
1.40001
1.40001
1.40001
1.40001
1.40001
1.40001
1.40001
1.40001
1.40001
1.40001
1.40001
1.40001
1.40001
1.40001
1.40001
1.40001
1.40001
1.40001
1.40001
1.40001
1.40001
1.40001
1.40001
1.40001
1.40001
1.40001
1.40001
1.40001
1.40001
1.40001
1.40001
1.40001
1.40001
1.40001
1.40001
1.40001
1.40001
1.40001
1.40001
1.40001
1.40001
1.40001
1.40001
1.40001
1.40001
1.40001
1.40001
1.40001
1.40001
1.40001
1.40001
1.40001
1.40001
1.40001
1.40001
1.40001
1.40001
1.40001
1.40001
1.40001
1.40001
1.40001
1.40001
1.40001
1.40001
1.40001
1.40001
1.40001
1.40001
1.40001
1.40001
1.40001
1.40001
1.40001
1.40001
1.40001
1.40001
1.40001
1.40001
1.40001
1.40001
1.40001
1.40001
1.40001
1.40001
1.40001
1.40001
1.40001
1.40001
1.40001
1.40001
1.40001
1.40001
1.40001
1.40001
1.40001
1.40001
1.40001
1.40001
1.40001
1.40001
1.40001
1.40001
1.40001
1.40001
1.40001
1.40001
1.40001
1.40001
1.40001
1.40001
1.40001
1.40001
1.40001
1.40001
1.40001
1.40001
1.40001
1.40001
1.40001
1.40001
1.40001
1.40001
1.40001
1.40001
1.40001
1.40001
1.40001
1.40001
1.40001
1.40001
1.40001
1.40001
1.40001
1.40001
1.40001
1.40001
1.40001
1.40001
1.40001
1.40001
1.40001
1.40001
1.40001
1.40001
1.40001
1.40001
1.40001
1.40001
1.40001
1.40001
1.40001
1.40001
1.40001
1.40001
1.40001
1.40001
1.40001
1.40001
1.40001
1.40001
1.40001
1.40001
1.40001
1.40001
1.40001
1.40001
1.40001
1.40001
1.40001
1.40001
1.40001
1.40001
1.40001
1.40001
1.40001
1.40001
1.40001
1.40001
1.40001
1.40001
1.40001
1.40001
1.40001
1.40001
1.40001
1.40001
1.40001
1.40001
1.40001
1.40001
1.40001
1.40001
1.40001
1.40001
1.40001
1.40001
1.40001
1.40001
1.40001
1.40001
1.40001
1.40001
1.40001
1.40001
1.40001
1.40001
1.40001
1.40001
1.40001
1.40001
1.40001
1.40001
1.40001
1.40001
1.40001
1.40001
1.40001
1.40001
1.40001
1.40001
1.40001
1.40001
1.40001
1.40001
1.40001
1.40001
1.40001
1.40001
1.40001
1.40001
1.40001
1.40001
1.40001
1.40001
1.40001
1.40001
1.40001
1.40001
1.40001
1.40001
1.40001
1.40001
1.40001
1.40001
1.40001
1.40001
1.40001
1.40001
1.40001
1.40001
1.40001
1.40001
1.40001
1.40001
1.40001
1.40001
1.40001
1.40001
1.40001
1.40001
1.40001
1.40001
1.40001
1.40001
1.40001
1.40001
1.40001
1.40001
1.40001
1.40001
1.40001
1.40001
1.40001
1.40001
1.40001
1.40001
1.40001
1.40001
1.40001
1.40001
1.40001
1.40001
1.40001
1.40001
1.40001
1.40001
1.40001
1.40001
1.40001
1.40001
1.40001
1.40001
1.40001
1.40001
1.40001
1.40001
1.40001
1.40001
1.40001
1.40001
1.40001
1.40001
1.40001
1.40001
1.40001
1.40001
1.40001
1.40001
1.40001
1.40001
1.40001
1.40001
1.40001
1.40001
1.40001
1.40001
1.40001
1.40001
1.40001
1.40001
1.40001
1.40001
1.40001
1.40001
1.40001
1.40001
1.40001
1.40001
1.40001
1.40001
1.40001
1.40001
1.40001
1.40001
1.40001
1.40001
1.40001
1.40001
1.40001
1.40001
1.40001
1.40001
1.40001
1.40001
1.40001
1.40001
1.40001
1.40001
1.40001
1.40001
1.40001
1.40001
1.40001
1.40001
1.40001
1.40001
1.40001
1.40001
1.40001
1.40001
1.40001
1.40001
1.40001
1.40001
1.40001
1.40001
1.40001
1.40001
1.40001
1.40001
1.40001
1.40001
1.40001
1.40001
1.40001
1.40001
1.40001
1.40001
1.40001
1.40001
1.40001
1.40001
1.40001
1.40001
1.40001
1.40001
1.40001
1.40001
1.40001
1.40001
1.40001
1.40001
1.40001
1.40001
1.40001
1.40001
1.40001
1.40001
1.40001
1.40001
1.40001
1.40001
1.40001
1.40001
1.40001
1.40001
1.40001
1.40001
1.40001
1.40001
1.40001
1.40001
1.40001
1.40001
1.40001
1.40001
1.40001
1.40001
1.40001
1.40001
1.40001
1.40001
1.40001
1.40001
1.40001
1.40001
1.40001
1.40001
1.40001
1.40001
1.40001
1.40001
1.40001
1.40001
1.40001
1.40001
1.40001
1.40001
1.40001
1.40001
1.40001
1.40001
1.40001
1.40001
1.40001
1.40001
1.40001
1.40001
1.40001
1.40001
1.40001
1.40001
1.40001
1.40001
1.40001
1.40001
1.40001
1.40001
1.40001
1.40001
1.40001
1.40001
1.40001
1.40001
1.40001
1.40001
1.40001
1.40001
1.40001
1.40001
1.40001
1.40001
1.40001
1.40001
1.40001
1.40001
1.40001
1.40001
1.40001
1.40001
1.40001
1.40001
1.40001
1.40001
1.40001
1.40001
1.40001
1.40001
1.40001
1.40001
1.40001
1.40001
1.40001
1.40001
1.40001
1.40001
1.40001
1.40001
1.40001
1.40001
1.40001
1.40001
1.40001
1.40001
1.40001
1.40001
1.40001
1.40001
1.40001
1.40001
1.40001
1.40001
1.40001
1.40001
1.40001
1.40001
1.40001
1.40001
1.40001
1.40001
1.40001
1.40001
1.40001
1.40001
1.40001
1.40001
1.40001
1.40001
1.40001
1.40001
1.40001
1.40001
1.40001
1.40001
1.40001
1.40001
1.40001
1.40001
1.40001
1.40001
1.40001
1.40001
1.40001
1.40001
1.40001
1.40001
1.40001
1.40001
1.40001
1.40001
1.40001
1.40001
1.40001
1.40001
1.40001
1.40001
1.40001
1.40001
1.40001
1.40001
1.39996
1.40001
1.40001
1.40001
1.40001
1.40001
1.40001
1.40001
1.40001
1.40001
1.40001
1.40001
1.40001
1.40001
1.40001
1.39741
1.39982
1.4
1.40001
1.40001
1.40001
1.40001
1.40001
1.40001
1.40001
1.40001
1.40001
1.40001
1.40001
1.40001
1.54217
1.40078
1.4
1.4
1.40001
1.40001
1.40001
1.40001
1.40001
1.40001
1.40001
1.40001
1.40001
1.40001
1.40001
2.88439
1.50263
1.40072
1.4
1.4
1.40001
1.40001
1.40001
1.40001
1.40001
1.40001
1.40001
1.40001
1.40001
1.40001
4.62451
2.35312
1.46541
1.40066
1.40001
1.40001
1.40001
1.40001
1.40001
1.40001
1.40001
1.40001
1.40001
1.40001
1.40001
4.52544
3.56479
1.90833
1.42715
1.40028
1.40001
1.40001
1.40001
1.40001
1.40001
1.40001
1.40001
1.40001
1.40001
1.40001
4.0789
3.99311
2.75997
1.61129
1.40721
1.40007
1.40001
1.40001
1.40001
1.40001
1.40001
1.40001
1.40001
1.40001
1.40001
3.26775
3.91824
3.51929
2.15141
1.46714
1.40114
1.40001
1.4
1.40001
1.40001
1.40001
1.40001
1.40001
1.40001
1.40001
2.24592
3.42835
3.59396
2.90687
1.83154
1.45156
1.40262
1.40007
1.40001
1.40001
1.40001
1.40001
1.40001
1.40001
1.40001
1.80239
2.85534
3.47573
3.29506
2.35209
1.55228
1.40635
1.40014
1.40001
1.40001
1.40001
1.40001
1.40001
1.40001
1.40001
1.24509
2.09508
3.05179
3.27264
2.98476
2.00712
1.46152
1.40153
1.40002
1.40001
1.40001
1.40001
1.40001
1.40001
1.40001
1.06951
1.53208
2.3802
3.12064
3.09997
2.57634
1.68497
1.41468
1.40021
1.40001
1.40001
1.40001
1.40001
1.40001
1.40001
1.02273
1.30064
1.87036
2.68792
3.05634
2.94788
2.16189
1.50963
1.40356
1.40004
1.40001
1.40001
1.40001
1.40001
1.40001
0.957525
1.192
1.51205
2.19702
2.88691
2.94934
2.61076
1.77869
1.42646
1.40046
1.40001
1.40001
1.40001
1.40001
1.40001
0.90169
1.14191
1.29818
1.72226
2.48363
2.89715
2.82271
2.20046
1.54302
1.40565
1.40007
1.40001
1.40001
1.40001
1.40001
0.818814
1.0495
1.1921
1.49438
2.04297
2.68425
2.80793
2.54575
1.80703
1.43478
1.40071
1.40001
1.40001
1.40001
1.40001
0.73423
0.898895
1.06978
1.3667
1.74349
2.34753
2.74348
2.70052
2.17963
1.55101
1.40644
1.40009
1.40001
1.40001
1.40001
0.721307
0.808612
0.962602
1.24037
1.51012
1.98937
2.55802
2.69239
2.4653
1.79844
1.43751
1.40084
1.40001
1.40001
1.40001
0.714913
0.78016
0.927896
1.14924
1.34475
1.72034
2.25352
2.63402
2.59366
2.12974
1.54617
1.40649
1.40009
1.40001
1.40001
0.69992
0.762969
0.910071
1.06178
1.19642
1.52754
1.96964
2.47045
2.58687
2.38057
1.76895
1.43548
1.40081
1.40001
1.40001
0.683084
0.761045
0.887824
0.990032
1.0782
1.34264
1.70861
2.21709
2.54062
2.49816
2.05985
1.53192
1.40607
1.40009
1.40001
0.666028
0.743674
0.852504
0.93002
1.04795
1.26181
1.49979
1.93491
2.39928
2.49215
2.29421
1.72555
1.42944
1.40066
1.40001
0.646794
0.717238
0.80318
0.868967
1.01453
1.2019
1.35748
1.70655
2.1723
2.45248
2.41002
1.98642
1.51413
1.40514
1.40007
0.663824
0.687027
0.763888
0.82561
0.980037
1.12634
1.23521
1.51963
1.93292
2.34316
2.40638
2.20007
1.67527
1.42414
1.40056
0.787405
0.688599
0.730626
0.814486
0.9491
1.04754
1.1449
1.38974
1.70547
2.15179
2.37947
2.33334
1.92036
1.4885
1.40357
1.04765
0.740656
0.737136
0.798124
0.908923
0.975171
1.08762
1.31192
1.53297
1.93054
2.29716
2.32965
2.10394
1.63154
1.41989
1.24369
0.896084
0.749464
0.780534
0.862215
0.915427
1.03212
1.2429
1.40187
1.71746
2.13456
2.31063
2.24501
1.83911
1.47186
1.31172
1.09847
0.803932
0.7633
0.797138
0.880467
1.01612
1.16829
1.29529
1.57199
1.95092
2.25986
2.25822
2.01771
1.58997
1.32965
1.27014
1.04225
0.810797
0.801588
0.854172
0.973475
1.06224
1.1639
1.39863
1.67276
2.04832
2.22595
2.16534
1.94108
1.20018
1.03264
0.977904
0.891114
0.766351
0.702297
0.68188
0.65499
0.64487
0.645434
0.630438
0.617288
0.610892
0.64059
0.841778
1.14703
1.21796
1.30097
1.3569
1.3433
0.922642
0.858131
0.825836
0.742193
0.626128
0.623441
0.623146
0.607914
0.606849
0.605062
0.592771
0.585497
0.634591
0.868744
1.14806
1.30535
1.2713
1.29265
1.34489
1.34638
0.711569
0.706248
0.696146
0.635253
0.559283
0.556527
0.564345
0.565507
0.561834
0.567003
0.563714
0.624733
0.903663
1.15629
1.24985
1.31718
1.31011
1.30566
1.33457
1.34648
0.55039
0.574474
0.571754
0.522951
0.492742
0.502023
0.508009
0.517004
0.532587
0.547038
0.656966
0.942402
1.1329
1.24362
1.3051
1.33629
1.33388
1.31637
1.32297
1.34346