/*--------------------------------*- C++ -*----------------------------------*\
  =========                 |
  \\      /  F ield         | OpenFOAM: The Open Source CFD Toolbox
   \\    /   O peration     | Website:  https://openfoam.org
    \\  /    A nd           | Version:  7
     \\/     M anipulation  |
\*---------------------------------------------------------------------------*/
FoamFile
{
    version     2.0;
    format      ascii;
    class       volScalarField;
    location    "9";
    object      p;
}
// * * * * * * * * * * * * * * * * * * * * * * * * * * * * * * * * * * * * * //

dimensions      [1 -1 -2 0 0 0 0];

internalField   nonuniform List<scalar> 
3700
(
0.109205
0.198332
0.228101
0.297352
0.31785
0.335773
0.37004
0.422096
0.460063
0.458365
0.468669
0.479054
0.485217
0.495313
0.495854
0.488537
0.490346
0.512513
0.522035
0.525485
0.0829659
0.0890223
0.105365
0.129278
0.119719
0.11025
0.125483
0.155599
0.169621
0.157402
0.147774
0.155915
0.170573
0.184941
0.192387
0.192609
0.19502
0.201308
0.21335
0.216423
0.092877
0.0833175
0.0783365
0.0719034
0.0626279
0.0582312
0.0512845
0.0514256
0.0549021
0.0586387
0.0616723
0.0674851
0.0752993
0.0861382
0.0978734
0.109076
0.119629
0.125572
0.129762
0.129784
0.107506
0.0815478
0.0713349
0.0620041
0.05785
0.0613862
0.0640108
0.0717765
0.0807987
0.0896314
0.0850487
0.0890391
0.0922958
0.100042
0.111083
0.125005
0.142454
0.160735
0.178318
0.190181
0.117187
0.0773228
0.0595578
0.0518285
0.0509429
0.0589898
0.067825
0.0886845
0.104378
0.112996
0.121111
0.131568
0.128466
0.129265
0.129709
0.134918
0.150873
0.177593
0.205738
0.243058
0.116006
0.0678374
0.0477173
0.0454694
0.0465076
0.0532171
0.0645097
0.090083
0.111664
0.127937
0.147845
0.16195
0.177972
0.191267
0.194692
0.193088
0.196452
0.206615
0.233063
0.296096
0.105863
0.0595906
0.0440911
0.0437853
0.0473972
0.0529236
0.0628582
0.085643
0.108433
0.131865
0.16119
0.181445
0.211466
0.237934
0.261002
0.279558
0.293708
0.304864
0.318678
0.375811
0.0892787
0.0542011
0.0440629
0.047181
0.0561898
0.0653401
0.082904
0.100731
0.114165
0.134037
0.164299
0.191527
0.234829
0.274657
0.313951
0.356782
0.393997
0.4339
0.456041
0.529321
0.0734633
0.047522
0.0447828
0.051292
0.0631101
0.0881769
0.125171
0.151976
0.171057
0.191162
0.205669
0.230001
0.267226
0.315938
0.368526
0.429807
0.497117
0.569621
0.621351
0.740306
0.0600988
0.0392271
0.0362226
0.0458528
0.0620057
0.0961675
0.144824
0.182231
0.22802
0.279992
0.318811
0.360552
0.400939
0.448549
0.489737
0.545225
0.626328
0.726627
0.834788
0.971324
0.0455433
0.0293762
0.0278398
0.0386358
0.0559919
0.0938916
0.142469
0.181478
0.250143
0.339487
0.41449
0.488211
0.56799
0.640802
0.705255
0.776594
0.855006
0.945876
1.15008
1.14432
0.0329328
0.0218381
0.021192
0.0353656
0.0552013
0.0920412
0.133781
0.17302
0.254939
0.378298
0.500207
0.617359
0.744276
0.848941
0.968002
1.09053
1.21002
1.32095
1.53266
1.496
0.0242048
0.0176617
0.0178373
0.0323881
0.0591054
0.137786
0.199158
0.297422
0.444672
0.586026
0.734034
0.867717
1.00799
1.13657
1.30287
1.49743
1.68576
1.85372
2.09251
2.07182
0.0189114
0.0154264
0.0163564
0.0350654
0.104886
0.273366
0.41375
0.599325
0.814584
1.02576
1.19763
1.35051
1.50454
1.65564
1.85301
2.09112
2.34063
2.59345
2.801
2.99233
0.0146879
0.0137642
0.0183661
0.0856747
0.234691
0.433324
0.652513
0.909673
1.20794
1.51405
1.743
1.96054
2.17805
2.41432
2.7112
3.00106
3.28248
3.52634
3.66018
3.77585
0.00877829
0.0134867
0.0547345
0.198194
0.434
0.670201
1.01072
1.41221
1.87793
2.26659
2.55368
2.82772
3.10555
3.41498
3.745
3.96288
4.0951
4.13808
4.0441
3.91481
0.00618895
0.0271104
0.170508
0.392783
0.846935
1.43745
1.98643
2.56377
3.17174
3.56661
3.78339
4.00829
4.21183
4.38303
4.4788
4.40327
4.18442
3.64837
2.78914
1.88871
0.0306074
0.162183
0.523134
1.20569
2.07207
2.86964
3.56639
4.27924
4.80015
4.83876
4.73762
4.73251
4.6914
4.53049
4.02779
3.07356
2.09616
1.3332
1.01815
0.992886
0.313645
0.87939
1.96468
3.16751
4.24649
4.8823
5.42207
5.87892
5.74631
5.30236
4.86612
4.31916
3.39923
2.32821
1.42532
1.02883
0.989352
0.994921
0.997317
0.999441
2.31314
3.6284
4.87418
5.72964
6.2768
6.43234
6.57267
6.23088
4.542
3.20989
2.37204
1.56856
1.08428
0.987631
0.993107
0.99639
0.999175
0.999972
1.00002
1.00001
6.94541
6.89885
6.83804
6.93278
7.07099
6.78446
5.98222
2.23052
0.666552
1
1
1
1
1
1
1
1
1
1
1
6.90477
6.86448
6.74672
6.70069
6.86343
5.77724
2.65244
1.01995
1
1
1
1
1
1
1
1
1
1
1
1
6.80999
6.85531
6.80711
6.63399
6.24415
3.47563
1.06457
0.998665
1
1
1
1
1
1
1
1
1
1
1
1
6.65907
6.82801
6.83768
6.66409
4.71796
1.43584
0.992811
1.00014
0.999999
1
1
1
1
1
1
1
1
1
1
1
6.51006
6.75899
6.79906
6.17336
2.62525
0.976381
1.00036
0.999994
1
1
1
1
1
1
1
1
1
1
1
1
6.43803
6.71581
6.69647
4.90462
1.46518
1
1
1
1
1
1
1
1
1
1
1
1
1
1
1
6.40833
6.75875
6.68479
3.59567
0.98849
1
1
1
1
1
1
1
1
1
1
1
1
1
1
1
6.53929
6.72929
6.10598
2.00866
0.999953
1
1
1
1
1
1
1
1
1
1
1
1
1
1
1
6.95496
6.60106
4.85185
1.22458
1
1
1
1
1
1
1
1
1
1
1
1
1
1
1
1
7.27723
6.40192
3.44936
0.987558
1
1
1
1
1
1
1
1
1
1
1
1
1
1
1
1
7.45924
6.00192
2.27947
1
1
1
1
1
1
1
1
1
1
1
1
1
1
1
1
1
7.52005
5.35424
1.59847
1
1
1
1
1
1
1
1
1
1
1
1
1
1
1
1
1
7.55337
4.73884
1.15776
1
1
1
1
1
1
1
1
1
1
1
1
1
1
1
1
1
7.34332
4.01716
1.00718
1
1
1
1
1
1
1
1
1
1
1
1
1
1
1
1
1
7.1486
3.29013
1
1
1
1
1
1
1
1
1
1
1
1
1
1
1
1
1
1
7.05897
2.49294
1
1
1
1
1
1
1
1
1
1
1
1
1
1
1
1
1
1
6.63542
1.84028
1
1
1
1
1
1
1
1
1
1
1
1
1
1
1
1
1
1
6.29946
1.35329
1
1
1
1
1
1
1
1
1
1
1
1
1
1
1
1
1
1
5.75685
1.00544
1
1
1
1
1
1
1
1
1
1
1
1
1
1
1
1
1
1
4.64191
1.00011
1
1
1
1
1
1
1
1
1
1
1
1
1
1
1
1
1
1
4.63577
1.0001
1
1
1
1
1
1
1
1
1
1
1
1
1
1
1
1
1
1
5.75639
1.00581
1
1
1
1
1
1
1
1
1
1
1
1
1
1
1
1
1
1
6.31203
1.36255
1
1
1
1
1
1
1
1
1
1
1
1
1
1
1
1
1
1
6.61597
1.84551
1
1
1
1
1
1
1
1
1
1
1
1
1
1
1
1
1
1
7.05154
2.48036
1
1
1
1
1
1
1
1
1
1
1
1
1
1
1
1
1
1
7.16387
3.27491
1
1
1
1
1
1
1
1
1
1
1
1
1
1
1
1
1
1
7.34196
4.02796
1.01244
1
1
1
1
1
1
1
1
1
1
1
1
1
1
1
1
1
7.5469
4.74872
1.16237
1
1
1
1
1
1
1
1
1
1
1
1
1
1
1
1
1
7.51543
5.35875
1.59979
1
1
1
1
1
1
1
1
1
1
1
1
1
1
1
1
1
7.45651
5.98726
2.28316
1
1
1
1
1
1
1
1
1
1
1
1
1
1
1
1
1
7.28466
6.4128
3.43545
0.987644
1
1
1
1
1
1
1
1
1
1
1
1
1
1
1
1
6.95876
6.59771
4.85177
1.22625
1
1
1
1
1
1
1
1
1
1
1
1
1
1
1
1
6.53157
6.70173
6.07356
2.00768
0.999976
1
1
1
1
1
1
1
1
1
1
1
1
1
1
1
6.42048
6.79098
6.72381
3.5869
0.980285
1
1
1
1
1
1
1
1
1
1
1
1
1
1
1
6.45126
6.73037
6.70633
4.91821
1.48511
1
1
1
1
1
1
1
1
1
1
1
1
1
1
1
6.51817
6.74861
6.781
6.13551
2.62954
0.976528
1.00035
0.999994
1
1
1
1
1
1
1
1
1
1
1
1
6.65695
6.8112
6.82845
6.6731
4.71311
1.41921
0.993095
1.00013
0.999999
1
1
1
1
1
1
1
1
1
1
1
6.81419
6.85305
6.82091
6.65949
6.23827
3.46179
1.06061
0.998679
1
1
1
1
1
1
1
1
1
1
1
1
6.9198
6.86658
6.75418
6.71405
6.82841
5.773
2.67594
1.02409
1
1
1
1
1
1
1
1
1
1
1
1
6.93877
6.89316
6.83609
6.93063
7.06817
6.78461
5.98332
2.24099
0.666667
1
1
1
1
1
1
1
1
1
1
1
2.31071
3.62474
4.86642
5.72522
6.28037
6.43365
6.57266
6.22731
4.5358
3.20549
2.36974
1.56686
1.08368
0.987593
0.993058
0.996402
0.999185
0.999973
1.00002
1.00001
0.312286
0.876111
1.95954
3.15756
4.24659
4.88894
5.42579
5.87664
5.74491
5.30362
4.86929
4.32265
3.40097
2.32895
1.42596
1.02907
0.989368
0.994923
0.997316
0.99944
0.0320101
0.165004
0.517521
1.19909
2.06531
2.86842
3.56927
4.27964
4.80365
4.84628
4.74888
4.73038
4.6899
4.52854
4.02552
3.07177
2.09582
1.33357
1.01831
0.992886
0.00589441
0.0316201
0.175123
0.390924
0.84835
1.43285
1.9776
2.55559
3.16906
3.56914
3.78677
4.00778
4.20843
4.37745
4.47653
4.40187
4.18409
3.64958
2.79114
1.88994
0.00802687
0.0141155
0.0625764
0.197406
0.437211
0.678146
1.01794
1.4175
1.88002
2.26942
2.55504
2.82721
3.10357
3.41235
3.74266
3.96224
4.09602
4.13934
4.04566
3.91621
0.0134917
0.0128651
0.0210942
0.0890052
0.233349
0.437533
0.659266
0.915671
1.21476
1.51917
1.74764
1.9644
2.18118
2.41662
2.71184
3.00054
3.28248
3.52745
3.66169
3.77663
0.017862
0.0146713
0.0166485
0.0382839
0.100561
0.26705
0.40858
0.595233
0.811857
1.02395
1.19793
1.35118
1.50507
1.65529
1.85164
2.08858
2.33879
2.59357
2.80224
2.99344
0.0235125
0.0170336
0.0179179
0.0338965
0.057602
0.131751
0.191463
0.288553
0.436047
0.580501
0.730142
0.864993
1.00598
1.13471
1.30069
1.49487
1.68428
1.85336
2.09332
2.07207
0.0323949
0.021066
0.0203905
0.0361748
0.0553854
0.0928155
0.136366
0.176884
0.259415
0.381922
0.502144
0.618655
0.744387
0.848382
0.966611
1.08918
1.20968
1.32197
1.53366
1.49764
0.0444817
0.0288914
0.0279067
0.0395807
0.0574518
0.0962166
0.147063
0.186579
0.253964
0.341661
0.415993
0.48908
0.56783
0.640168
0.704408
0.776224
0.855335
0.94689
1.15107
1.1444
0.0589748
0.040673
0.0392413
0.0469305
0.0641757
0.0979015
0.147325
0.183683
0.228374
0.278954
0.317155
0.358692
0.398738
0.446098
0.487819
0.544329
0.626578
0.72674
0.835457
0.97159
0.0725574
0.0522248
0.0462059
0.0512901
0.0628782
0.0878511
0.123558
0.148982
0.168393
0.188307
0.203017
0.227968
0.26627
0.315381
0.368465
0.430276
0.497779
0.570092
0.621797
0.742094
0.0858125
0.0582341
0.0450304
0.0464394
0.0544947
0.0629969
0.0797359
0.0977987
0.112601
0.134065
0.16563
0.192661
0.235623
0.275375
0.314715
0.357559
0.394709
0.434651
0.456451
0.531482
0.0991337
0.0623667
0.044881
0.0436614
0.0458284
0.0524601
0.0630371
0.0858048
0.109016
0.133002
0.162398
0.182522
0.212255
0.23866
0.261596
0.279681
0.293348
0.304283
0.317853
0.375435
0.108451
0.0684029
0.048133
0.0448399
0.0455683
0.0533539
0.0655969
0.0907062
0.112474
0.128589
0.148236
0.162357
0.1782
0.191329
0.194244
0.192401
0.195577
0.205856
0.232775
0.29587
0.111093
0.0777379
0.0587636
0.0510883
0.0509501
0.0593595
0.0690758
0.0896173
0.104617
0.112836
0.120386
0.130861
0.127869
0.128805
0.129475
0.134924
0.150946
0.177617
0.205811
0.243054
0.105722
0.083899
0.0718708
0.0618894
0.0575906
0.0613478
0.0645333
0.0720117
0.079913
0.0884254
0.0843755
0.0888264
0.0924333
0.100398
0.111529
0.12525
0.142488
0.16072
0.178364
0.1906
0.0952563
0.0843829
0.0792249
0.0723517
0.0620942
0.0571423
0.0508904
0.0509367
0.0542841
0.058378
0.0620144
0.0679819
0.0758549
0.0867033
0.0983412
0.109394
0.119807
0.12588
0.130041
0.130716
0.0838927
0.0873734
0.0998073
0.102569
0.112047
0.135063
0.124985
0.106678
0.117413
0.129958
0.145802
0.140915
0.136633
0.148317
0.173396
0.202583
0.233307
0.246086
0.234032
0.201096
0.113992
0.191023
0.232006
0.263159
0.293016
0.351441
0.376195
0.391812
0.439032
0.446591
0.467493
0.470267
0.466487
0.489028
0.498335
0.502006
0.510111
0.518612
0.512355
0.498967
0.570069
0.636355
0.69748
0.821438
0.841913
0.851831
0.840065
0.837649
0.857503
0.901358
0.947728
0.95504
0.944151
0.929749
0.939879
0.963145
0.980069
0.979095
0.964735
0.951168
0.300794
0.430607
0.536775
0.67947
0.778134
0.848031
0.844103
0.84488
0.867345
0.900214
0.929607
0.94477
0.943272
0.931448
0.932816
0.945468
0.964384
0.967975
0.964076
0.953684
0.135308
0.166637
0.233494
0.315908
0.502904
0.698562
0.769483
0.850188
0.877214
0.893232
0.913634
0.933779
0.938539
0.938498
0.937308
0.9393
0.950281
0.958472
0.960955
0.961336
0.190361
0.212637
0.230522
0.238525
0.255076
0.332546
0.548119
0.751228
0.82429
0.874122
0.908792
0.921965
0.932604
0.943557
0.941594
0.939601
0.945354
0.953975
0.959072
0.964345
0.244128
0.257778
0.264818
0.278611
0.295365
0.29821
0.322817
0.439377
0.652922
0.802785
0.865951
0.905126
0.93225
0.95173
0.949646
0.942828
0.943125
0.946071
0.954488
0.965462
0.316503
0.326742
0.327364
0.318898
0.316005
0.325889
0.347938
0.346041
0.390891
0.507826
0.693175
0.831563
0.915679
0.953377
0.952648
0.950454
0.946413
0.945463
0.952127
0.967238
0.402062
0.410926
0.382485
0.354328
0.35679
0.366554
0.382167
0.391863
0.386021
0.381211
0.448083
0.648055
0.821396
0.946169
0.948951
0.949537
0.944815
0.938287
0.948582
0.966061
0.525082
0.510487
0.468509
0.411382
0.397001
0.402499
0.424774
0.430508
0.425641
0.409468
0.391272
0.440123
0.626042
0.835528
0.926546
0.949883
0.941938
0.935736
0.954645
0.966001
0.677161
0.625156
0.563114
0.479355
0.449201
0.451723
0.455426
0.459568
0.45558
0.438995
0.414995
0.405864
0.441985
0.615262
0.830747
0.943207
0.922259
0.932896
0.961363
0.963701
0.859973
0.767083
0.688827
0.592819
0.519763
0.494826
0.490069
0.496494
0.48817
0.468794
0.450352
0.427772
0.42952
0.458608
0.621149
0.851407
0.889874
0.935878
0.968473
0.959186
1.26137
0.932562
0.815984
0.757535
0.675134
0.568508
0.53375
0.535908
0.533305
0.522151
0.505087
0.481508
0.467088
0.466652
0.483179
0.57598
0.759895
0.890682
0.934879
0.950921
2.05378
1.47543
1.09832
0.989943
0.928597
0.795314
0.678096
0.636077
0.599806
0.568986
0.549022
0.536439
0.526786
0.51237
0.487576
0.489104
0.526911
0.641057
0.78693
0.908319
2.50162
2.18168
1.71986
1.2957
1.1132
0.965283
0.839079
0.760191
0.693386
0.679466
0.667292
0.634639
0.604704
0.575225
0.543854
0.516248
0.522414
0.536649
0.579754
0.74818
2.36822
2.34855
2.24347
1.92687
1.54273
1.26805
1.08184
0.953194
0.863423
0.827167
0.778842
0.71331
0.652105
0.613042
0.584991
0.581496
0.578169
0.568014
0.549775
0.581983
1.68533
2.14679
2.22086
2.19262
2.04454
1.78663
1.49064
1.25165
1.07218
0.94363
0.865813
0.799106
0.74262
0.724793
0.691577
0.667934
0.650873
0.624194
0.572426
0.573116
1.10833
1.43929
1.84668
2.11348
2.11225
2.07623
1.93582
1.6908
1.44674
1.21335
1.07199
0.985143
0.920986
0.866294
0.799
0.729735
0.692255
0.661131
0.629469
0.603917
1.00448
1.04458
1.20615
1.54756
1.86112
2.02066
2.01628
1.97035
1.84148
1.62554
1.39285
1.22343
1.07748
0.972325
0.898421
0.814118
0.764121
0.740526
0.73201
0.694693
1.00009
1.00113
1.0106
1.07791
1.2672
1.57245
1.8215
1.93629
1.93012
1.88861
1.76736
1.58473
1.38693
1.20672
1.1023
1.01572
0.928572
0.879851
0.836949
0.762687
1
1.00001
1.00015
1.00251
1.01848
1.10084
1.29033
1.56122
1.76461
1.85634
1.85086
1.81583
1.72029
1.55334
1.37774
1.23253
1.10162
0.993616
0.920504
0.833763
1
1
1
1.00003
1.00031
1.00394
1.0252
1.10684
1.28475
1.52506
1.70608
1.78557
1.78221
1.75513
1.67474
1.53782
1.38478
1.22965
1.12041
0.997608
1
1
1
1
1
1.00005
1.00051
1.00443
1.02751
1.10425
1.26556
1.47091
1.64739
1.72535
1.72181
1.70101
1.64322
1.5266
1.39273
1.19392
1
1
1
1
1
1
1
1.00006
1.00063
1.00455
1.02574
1.09545
1.2337
1.41863
1.57481
1.6706
1.66837
1.65381
1.61687
1.46462
1
1
1
1
1
1
1
1
1.00001
1.00006
1.00059
1.00446
1.02055
1.0829
1.19778
1.37024
1.50383
1.6099
1.61522
1.59205
1
1
1
1
1
1
1
1
1
1
1.00001
1.00006
1.00046
1.00379
1.017
1.06427
1.16466
1.31579
1.44295
1.54876
1
1
1
1
1
1
1
1
1
1
1
1
1
1.00005
1.00039
1.0026
1.01409
1.05166
1.13689
1.38868
1.62492
2.46279
2.58565
2.08554
1.30971
1.03698
1.00188
1.00005
1
1
1
1
1
1
1
2.34025
2.81711
2.52809
1.54188
1.04833
1.00081
1
1
1
1
1
1
1
1
1
2.93059
2.87063
1.98255
1.15228
1.00516
1.00005
1
1
1
1
1
1
1
1
1
3.24898
2.55343
1.36446
1.01942
1.00019
1
1
1
1
1
1
1
1
1
1
3.31579
1.68469
1.04768
1.00052
1
1
1
1
1
1
1
1
1
1
1
2.06797
1.07312
1.00047
0.999999
1
1
1
1
1
1
1
1
1
1
1
1.10205
1.00057
0.999997
1
1
1
1
1
1
1
1
1
1
1
1
0.998138
0.999864
0.999996
1
1
1
1
1
1
1
1
1
1
1
1
0.999967
1
1
1
1
1
1
1
1
1
1
1
1
1
1
1
1
1
1
1
1
1
1
1
1
1
1
1
1
1
1
1
1
1
1
1
1
1
1
1
1
1
1
1
1
1
1
1
1
1
1
1
1
1
1
1
1
1
1
1
1
1
1
1
1
1
1
1
1
1
1
1
1
1
1
1
1
1
1
1
1
1
1
1
1
1
1
1
1
1
1
1
1
1
1
1
1
1
1
1
1
1
1
1
1
1
1
1
1
1
1
1
1
1
1
1
1
1
1
1
1
1
1
1
1
1
1
1
1
1
1
1
1
1
1
1
1
1
1
1
1
1
1
1
1
1
1
1
1
1
1
1
1
1
1
1
1
1
1
1
1
1
1
1
1
1
1
1
1
1
1
1
1
1
1
1
1
1
1
1
1
1
1
1
1
1
1
1
1
1
1
1
1
1
1
1
1
1
1
1
1
1
1
1
1
1
1
1
1
1
1
1
1
1
1
1
1
1
1
1
1
1
1
1
1
1
1
1
1
1
1
1
1
1
1
1
1
1
1
1
1
1
1
1
1
1
1
1
1
1
1
1
1
1
1
1
1
1
1
1
1
1
1
1
1
1
1
1
1
1
1
1
1
1
1
1
1
1
1
1
1
1
1
1
1
1
1
1
1
1
1
1
1
1
1
1
1
1
1
1
1
1
1
1
1
1
1
1
1
1
1
1
1
1
1
1
1
1
1
1
1
1
1
1
1
1
1
1
1
1
1
1
1
1
1
1
1
1
1
1
1
1
1
1
1
1
1
1
1
1
1
1
1
1
1
1
1
1
1
1
1
1
1
1
1
1
1
1
1
1
1
1
1
1
1
1
1
1
1
1
1
1
1
1
1
1
1
1
1
1
1
1
1
1
1
1
1
1
1
1
1
1
1
1
1
1
1
1
1
1
1
1
1
1
1
1
1
1
1
1
1
1
1
1
1
1
1
1
1
1
1
1
1
1
1
1
1
1
1
1
1
1
1
1
1
1
1
1
1
1
1
1
1
1
1
1
1
1
1
1
1
1
1
1
1
1
1
1
1
1
1
1
1
1
1
1
1
1
1
1
1
1
1
1
1
1
1
1
1
1
1
1
1
1
1
1
1
1
1
1
1
1
1
1
1
1
1
1
1
1
1
1
1
1
1
1
1
1
1
1
1
1
1
1
1
1
1
1
1
1
1
1
1
1
1
1
1
1
1
1
1
1
1
1
1
1
1
1
1
1
1
1
1
1
1
1
1
1
1
1
1
1
1
1
1
1
1
1
1
1
1
1
1
1
1
1
1
1
1
1
1
1
1
1
1
1
1
1
1
1
1
1
1
1
1
1
1
1
1
1
1
1
1
1
1
1
1
1
1
1
1
1
1
1
1
1
1
1
1
1
1
1
1
1
1
1
1
1
1
1
1
1
1
1
1
1
1
1
1
1
1
1
1
1
1
1
1
1
1
1
1
1
1
1
1
1
1
1
1
1
1
1
1
1
1
1
1
1
1
1
1
1
1
1
1
1
1
1
1
1
1
1
1
1
1
1
1
1
1
1
1
1
1
1
1
1
1
1
1
1
1
1
1
1
1
1
1
1
1
1
1
1
1
1
1
1
1
1
1
1
1
1
1
1
1
1
1
1
1
1
1
1
1
1
1
1
1
1
1
1
1
1
1
1
1
1
1
1
1
1
1
1
1
1
1
1
1
1
1
1
1
1
1
1
1
1
1
1
1
1
1
1
1
1
1
1
1
1
1
1
1
1
1
1
1
1
1
1
1
1
1
1
1
1
1
1
1
1
1
1
1
1
1
1
1
1
1
1
1
1
1
1
1
1
1
1
1
1
1
1
1
1
1
1
1
1
1
1
1
1
1
1
1
1
1
1
1
1
1
1
1
1
1
1
1
0.999966
1
1
1
1
1
1
1
1
1
1
1
1
1
1
0.998139
0.999864
0.999996
1
1
1
1
1
1
1
1
1
1
1
1
1.10212
1.00057
0.999997
1
1
1
1
1
1
1
1
1
1
1
1
2.0679
1.07303
1.00047
0.999999
1
1
1
1
1
1
1
1
1
1
1
3.31575
1.68441
1.04765
1.00052
1
1
1
1
1
1
1
1
1
1
1
3.24875
2.55307
1.36441
1.01944
1.00019
1
1
1
1
1
1
1
1
1
1
2.93008
2.87008
1.98262
1.15236
1.00517
1.00005
1
1
1
1
1
1
1
1
1
2.34043
2.81673
2.52804
1.54203
1.04835
1.00081
1
1
1
1
1
1
1
1
1
1.62518
2.46289
2.58531
2.08561
1.30979
1.03697
1.00188
1.00005
1
1
1
1
1
1
1
1.26394
2.0558
2.50244
2.36766
1.68418
1.10832
1.00449
1.00009
1
1
1
1
1
1
1
0.927432
1.47423
2.18379
2.34834
2.14634
1.43808
1.04442
1.00112
1.00001
1
1
1
1
1
1
0.815829
1.09471
1.70935
2.24461
2.22061
1.8465
1.20579
1.01055
1.00015
1
1
1
1
1
1
0.757664
0.997587
1.30163
1.92175
2.19125
2.11261
1.54783
1.07813
1.00252
1.00003
1
1
1
1
1
0.668165
0.931841
1.12773
1.54238
2.04368
2.11188
1.86072
1.26774
1.01862
1.00032
1
1
1
1
1
0.559286
0.777336
0.963744
1.27923
1.79316
2.07677
2.02077
1.57254
1.10063
1.00392
1.00005
1
1
1
1
0.542627
0.681127
0.821835
1.08044
1.49433
1.93688
2.01654
1.82156
1.2903
1.02512
1.00051
1
1
1
1
0.551644
0.64181
0.750334
0.951184
1.24393
1.69366
1.97099
1.93599
1.5601
1.10698
1.00447
1.00006
1
1
1
0.542537
0.599819
0.695126
0.878641
1.06789
1.44429
1.84076
1.93001
1.76546
1.28468
1.02733
1.00063
1.00001
1
1
0.525748
0.569531
0.673763
0.834149
0.944744
1.21033
1.62544
1.88906
1.85695
1.52518
1.10449
1.00457
1.00006
1
1
0.50587
0.546657
0.657594
0.775506
0.866261
1.07248
1.39758
1.76791
1.85119
1.7056
1.26574
1.02588
1.00059
1.00001
1
0.481391
0.541461
0.631888
0.710067
0.795507
0.982649
1.22178
1.5854
1.81635
1.78652
1.47178
1.09523
1.00444
1.00006
1
0.46293
0.530943
0.606979
0.658203
0.748554
0.918342
1.07404
1.38516
1.71949
1.78285
1.64721
1.23396
1.02057
1.00046
1
0.461387
0.511826
0.574115
0.614338
0.731314
0.866076
0.973813
1.2108
1.55212
1.75518
1.72463
1.41853
1.08317
1.00381
1.00005
0.480489
0.48565
0.540442
0.585452
0.699782
0.800829
0.894655
1.10295
1.37868
1.6746
1.72137
1.57514
1.19773
1.01699
1.00039
0.576471
0.489588
0.516822
0.581791
0.675778
0.737401
0.809355
1.00754
1.2302
1.53759
1.70118
1.6707
1.36999
1.06417
1.00259
0.759678
0.52819
0.520867
0.573932
0.655336
0.696187
0.764806
0.926056
1.10014
1.38437
1.64338
1.66835
1.50392
1.1647
1.01411
0.898086
0.642318
0.533318
0.557924
0.624181
0.658669
0.739015
0.880755
0.995351
1.2302
1.52663
1.65362
1.61024
1.31607
1.05178
0.940998
0.786463
0.573583
0.543202
0.56974
0.627894
0.730115
0.837508
0.922078
1.12176
1.39301
1.61698
1.61532
1.44313
1.13698
0.951963
0.910746
0.74615
0.578812
0.570782
0.606137
0.69571
0.7618
0.83312
0.998247
1.19424
1.46502
1.59231
1.54911
1.38878
0.855473
0.768973
0.690751
0.591465
0.510469
0.49195
0.488302
0.495452
0.487425
0.466077
0.446704
0.42378
0.427415
0.458539
0.616637
0.850522
0.890084
0.940239
0.976053
0.9618
0.673599
0.625997
0.567329
0.486699
0.445442
0.448113
0.456143
0.458611
0.452139
0.434004
0.410839
0.408633
0.443952
0.616885
0.827614
0.944825
0.928385
0.935028
0.966934
0.964796
0.522895
0.509862
0.47535
0.416276
0.392973
0.399389
0.420635
0.423446
0.417605
0.400946
0.39232
0.442242
0.626306
0.832562
0.933166
0.950228
0.938474
0.933605
0.953766
0.964273
0.399488
0.414609
0.388713
0.35375
0.35498
0.366029
0.378749
0.382012
0.38227
0.375325
0.447079
0.650528
0.82405
0.944392
0.949418
0.947236
0.937546
0.931053
0.941213
0.96189
0.316792
0.328448
0.328681
0.320924
0.320521
0.33087
0.347153
0.33982
0.370363
0.48798
0.691717
0.834122
0.919679
0.952879
0.951882
0.943406
0.935289
0.933556
0.943764
0.962228
0.24428
0.258015
0.275187
0.285373
0.293771
0.296505
0.324444
0.433351
0.626035
0.794983
0.876591
0.907473
0.93515
0.953386
0.949707
0.93677
0.934256
0.936759
0.946591
0.962468
0.190672
0.215245
0.223773
0.23217
0.255056
0.343515
0.564453
0.74783
0.824118
0.887856
0.925997
0.925681
0.93526
0.947899
0.945257
0.940782
0.944073
0.952365
0.958652
0.965324
0.136175
0.160486
0.239111
0.334738
0.522696
0.711732
0.777758
0.844046
0.88386
0.914219
0.933666
0.939523
0.942177
0.939649
0.939833
0.944681
0.958691
0.966953
0.965876
0.965427
0.263765
0.400547
0.542054
0.684422
0.782625
0.852501
0.844973
0.843312
0.865838
0.910527
0.94527
0.952927
0.94601
0.931867
0.937874
0.959563
0.978259
0.979913
0.971305
0.960233
0.556353
0.631102
0.699553
0.821081
0.84316
0.868802
0.848146
0.838554
0.859137
0.907928
0.93745
0.942984
0.935507
0.931207
0.942828
0.969001
0.977561
0.973807
0.96025
0.951575
)
;

boundaryField
{
    inlet
    {
        type            fixedValue;
        value           uniform 1;
    }
    outlet
    {
        type            zeroGradient;
    }
    airfoil
    {
        type            zeroGradient;
    }
    top
    {
        type            symmetryPlane;
    }
    bottom
    {
        type            symmetryPlane;
    }
    defaultFaces
    {
        type            empty;
    }
}


// ************************************************************************* //
