/*--------------------------------*- C++ -*----------------------------------*\
  =========                 |
  \\      /  F ield         | OpenFOAM: The Open Source CFD Toolbox
   \\    /   O peration     | Website:  https://openfoam.org
    \\  /    A nd           | Version:  7
     \\/     M anipulation  |
\*---------------------------------------------------------------------------*/
FoamFile
{
    version     2.0;
    format      ascii;
    class       volScalarField;
    location    "9";
    object      rho;
}
// * * * * * * * * * * * * * * * * * * * * * * * * * * * * * * * * * * * * * //

dimensions      [1 -3 0 0 0 0 0];

internalField   nonuniform List<scalar> 
3700
(
0.152114
0.275656
0.31691
0.412807
0.441281
0.466016
0.512734
0.584013
0.636474
0.634251
0.648754
0.663186
0.6716
0.6856
0.686459
0.676532
0.679243
0.709938
0.723082
0.727872
0.115954
0.124382
0.147101
0.180314
0.167057
0.153868
0.174706
0.216141
0.235621
0.21885
0.20576
0.217068
0.237339
0.257352
0.267848
0.268395
0.271923
0.280663
0.297316
0.301516
0.129791
0.116468
0.109547
0.100584
0.0876498
0.0815291
0.0718498
0.0720693
0.076943
0.0821802
0.086422
0.0945433
0.105459
0.1206
0.136996
0.152655
0.167409
0.175718
0.181581
0.181639
0.150127
0.113988
0.0997685
0.0867526
0.080958
0.0859064
0.0895902
0.100463
0.113102
0.125481
0.119115
0.124709
0.129266
0.140077
0.155483
0.174933
0.199318
0.224847
0.249403
0.265977
0.163544
0.10807
0.0833212
0.0725433
0.0713091
0.0825549
0.0949049
0.124038
0.145973
0.158037
0.169399
0.184037
0.179745
0.180901
0.181541
0.188821
0.211107
0.24841
0.287697
0.339767
0.161867
0.0948338
0.0668217
0.0636959
0.0651469
0.0745245
0.0902897
0.125988
0.156127
0.178859
0.206666
0.226391
0.248784
0.267385
0.27221
0.270022
0.274763
0.288977
0.3259
0.413783
0.147747
0.0833652
0.0617812
0.0613618
0.0664076
0.0741312
0.0880036
0.119821
0.15165
0.184351
0.22529
0.253583
0.295478
0.332441
0.364658
0.390576
0.410366
0.425978
0.445281
0.524969
0.12475
0.0758778
0.0617519
0.0661262
0.0787303
0.0915238
0.116053
0.140937
0.159695
0.187424
0.22967
0.267684
0.328096
0.383658
0.438463
0.498187
0.550103
0.605774
0.636663
0.738736
0.10278
0.0665741
0.0627644
0.0718764
0.0883945
0.123398
0.17505
0.212475
0.239136
0.26719
0.287463
0.321425
0.373365
0.441289
0.514579
0.599967
0.693735
0.794762
0.866846
1.03239
0.0841639
0.0549985
0.0507999
0.0642649
0.0868426
0.134515
0.202409
0.254621
0.318497
0.390959
0.445111
0.503327
0.559635
0.626016
0.683438
0.760757
0.873679
1.01329
1.16382
1.35371
0.0638429
0.0412339
0.0390775
0.0541725
0.0784308
0.131312
0.19908
0.25353
0.349278
0.473773
0.57829
0.681028
0.792161
0.893609
0.983349
1.08266
1.19178
1.31823
1.60215
1.59418
0.0462096
0.0306832
0.0297713
0.0495939
0.077299
0.128666
0.186927
0.24169
0.355907
0.527797
0.69759
0.860735
1.03742
1.18315
1.34879
1.51919
1.68524
1.83937
2.13348
2.08264
0.0339919
0.0248301
0.0250644
0.0454206
0.0826549
0.192335
0.277962
0.414878
0.619942
0.81677
1.02283
1.20894
1.40418
1.5831
1.81429
2.08455
2.34596
2.57906
2.91041
2.88177
0.0265773
0.0216933
0.0229818
0.0491331
0.146467
0.381171
0.576726
0.83497
1.13438
1.42801
1.66707
1.87969
2.09391
2.30398
2.57813
2.90862
3.25466
3.60519
3.8931
4.15873
0.0206576
0.0193575
0.0257634
0.119779
0.327337
0.603814
0.908778
1.26638
1.68093
2.10628
2.42447
2.72665
3.02869
3.35653
3.76826
4.17012
4.56026
4.89845
5.0846
5.2456
0.0123642
0.0189541
0.0766108
0.276564
0.604681
0.93328
1.40669
1.96448
2.61121
3.15094
3.54948
3.92962
4.31475
4.74344
5.2008
5.50275
5.68641
5.74645
5.61733
5.44018
0.0087264
0.0380346
0.238215
0.547448
1.17865
1.99866
2.76086
3.56203
4.4056
4.9533
5.25373
5.56518
5.84683
6.08421
6.21723
6.11306
5.81221
5.07334
3.88474
2.63687
0.0430534
0.226759
0.728926
1.67678
2.87894
3.98528
4.95146
5.93967
6.66192
6.71509
6.5747
6.56754
6.51059
6.28876
5.5958
4.27642
2.92411
1.86459
1.42534
1.39008
0.438577
1.22469
2.73052
4.39781
5.89267
6.77374
7.52178
8.15549
7.97182
7.35655
6.75216
5.99634
4.72457
3.24426
1.99253
1.44022
1.38514
1.39292
1.39626
1.39922
3.21602
5.03764
6.76216
7.94594
8.70368
8.92009
9.11498
8.64323
6.30558
4.45971
3.30171
2.19081
1.51753
1.38275
1.39039
1.39497
1.39885
1.39997
1.40003
1.40002
9.62755
9.56322
9.47931
9.61071
9.8029
9.40886
8.30246
3.10928
0.9345
1.40001
1.40001
1.40001
1.40001
1.40001
1.40001
1.40001
1.40001
1.40001
1.40001
1.40001
9.57157
9.51592
9.35333
9.29043
9.51707
8.01841
3.69484
1.42771
1.40001
1.40001
1.40001
1.40001
1.40001
1.40001
1.40001
1.40001
1.40001
1.40001
1.40001
1.40001
9.44066
9.5034
9.43709
9.19886
8.66223
4.83436
1.48966
1.39815
1.40001
1.40001
1.40001
1.40001
1.40001
1.40001
1.40001
1.40001
1.40001
1.40001
1.40001
1.40001
9.2319
9.46565
9.47952
9.24161
6.55375
2.00545
1.38999
1.4002
1.4
1.40001
1.40001
1.40001
1.40001
1.40001
1.40001
1.40001
1.40001
1.40001
1.40001
1.40001
9.02572
9.3701
9.4262
8.56411
3.65539
1.36704
1.4005
1.4
1.40001
1.40001
1.40001
1.40001
1.40001
1.40001
1.40001
1.40001
1.40001
1.40001
1.40001
1.40001
8.92598
9.3103
9.28419
6.80975
2.04562
1.40001
1.40001
1.40001
1.40001
1.40001
1.40001
1.40001
1.40001
1.40001
1.40001
1.40001
1.40001
1.40001
1.40001
1.40001
8.88484
9.36965
9.26817
4.99852
1.38386
1.40001
1.40001
1.40001
1.40001
1.40001
1.40001
1.40001
1.40001
1.40001
1.40001
1.40001
1.40001
1.40001
1.40001
1.40001
9.06585
9.32942
8.47011
2.79933
1.39997
1.40001
1.40001
1.40001
1.40001
1.40001
1.40001
1.40001
1.40001
1.40001
1.40001
1.40001
1.40001
1.40001
1.40001
1.40001
9.64052
9.15329
6.73755
1.71168
1.4
1.40001
1.40001
1.40001
1.40001
1.40001
1.40001
1.40001
1.40001
1.40001
1.40001
1.40001
1.40001
1.40001
1.40001
1.40001
10.0859
8.8791
4.79667
1.38264
1.40001
1.40001
1.40001
1.40001
1.40001
1.40001
1.40001
1.40001
1.40001
1.40001
1.40001
1.40001
1.40001
1.40001
1.40001
1.40001
10.3372
8.32752
3.1754
1.40001
1.40001
1.40001
1.40001
1.40001
1.40001
1.40001
1.40001
1.40001
1.40001
1.40001
1.40001
1.40001
1.40001
1.40001
1.40001
1.40001
10.4209
7.43295
2.23085
1.40001
1.40001
1.40001
1.40001
1.40001
1.40001
1.40001
1.40001
1.40001
1.40001
1.40001
1.40001
1.40001
1.40001
1.40001
1.40001
1.40001
10.4666
6.58208
1.61911
1.40001
1.40001
1.40001
1.40001
1.40001
1.40001
1.40001
1.40001
1.40001
1.40001
1.40001
1.40001
1.40001
1.40001
1.40001
1.40001
1.40001
10.1755
5.58276
1.40996
1.40001
1.40001
1.40001
1.40001
1.40001
1.40001
1.40001
1.40001
1.40001
1.40001
1.40001
1.40001
1.40001
1.40001
1.40001
1.40001
1.40001
9.90792
4.57491
1.40001
1.40001
1.40001
1.40001
1.40001
1.40001
1.40001
1.40001
1.40001
1.40001
1.40001
1.40001
1.40001
1.40001
1.40001
1.40001
1.40001
1.40001
9.78603
3.47052
1.40001
1.40001
1.40001
1.40001
1.40001
1.40001
1.40001
1.40001
1.40001
1.40001
1.40001
1.40001
1.40001
1.40001
1.40001
1.40001
1.40001
1.40001
9.20274
2.56571
1.40001
1.40001
1.40001
1.40001
1.40001
1.40001
1.40001
1.40001
1.40001
1.40001
1.40001
1.40001
1.40001
1.40001
1.40001
1.40001
1.40001
1.40001
8.73992
1.89027
1.40001
1.40001
1.40001
1.40001
1.40001
1.40001
1.40001
1.40001
1.40001
1.40001
1.40001
1.40001
1.40001
1.40001
1.40001
1.40001
1.40001
1.40001
7.99023
1.40756
1.40001
1.40001
1.40001
1.40001
1.40001
1.40001
1.40001
1.40001
1.40001
1.40001
1.40001
1.40001
1.40001
1.40001
1.40001
1.40001
1.40001
1.40001
6.44643
1.40015
1.40001
1.40001
1.40001
1.40001
1.40001
1.40001
1.40001
1.40001
1.40001
1.40001
1.40001
1.40001
1.40001
1.40001
1.40001
1.40001
1.40001
1.40001
6.438
1.40014
1.40001
1.40001
1.40001
1.40001
1.40001
1.40001
1.40001
1.40001
1.40001
1.40001
1.40001
1.40001
1.40001
1.40001
1.40001
1.40001
1.40001
1.40001
7.98963
1.40807
1.40001
1.40001
1.40001
1.40001
1.40001
1.40001
1.40001
1.40001
1.40001
1.40001
1.40001
1.40001
1.40001
1.40001
1.40001
1.40001
1.40001
1.40001
8.75706
1.9031
1.40001
1.40001
1.40001
1.40001
1.40001
1.40001
1.40001
1.40001
1.40001
1.40001
1.40001
1.40001
1.40001
1.40001
1.40001
1.40001
1.40001
1.40001
9.1757
2.57296
1.40001
1.40001
1.40001
1.40001
1.40001
1.40001
1.40001
1.40001
1.40001
1.40001
1.40001
1.40001
1.40001
1.40001
1.40001
1.40001
1.40001
1.40001
9.77588
3.45313
1.40001
1.40001
1.40001
1.40001
1.40001
1.40001
1.40001
1.40001
1.40001
1.40001
1.40001
1.40001
1.40001
1.40001
1.40001
1.40001
1.40001
1.40001
9.92924
4.55389
1.40001
1.40001
1.40001
1.40001
1.40001
1.40001
1.40001
1.40001
1.40001
1.40001
1.40001
1.40001
1.40001
1.40001
1.40001
1.40001
1.40001
1.40001
10.1737
5.59762
1.41727
1.40001
1.40001
1.40001
1.40001
1.40001
1.40001
1.40001
1.40001
1.40001
1.40001
1.40001
1.40001
1.40001
1.40001
1.40001
1.40001
1.40001
10.4576
6.59564
1.6255
1.40001
1.40001
1.40001
1.40001
1.40001
1.40001
1.40001
1.40001
1.40001
1.40001
1.40001
1.40001
1.40001
1.40001
1.40001
1.40001
1.40001
10.4144
7.43912
2.23267
1.40001
1.40001
1.40001
1.40001
1.40001
1.40001
1.40001
1.40001
1.40001
1.40001
1.40001
1.40001
1.40001
1.40001
1.40001
1.40001
1.40001
10.3334
8.30727
3.18054
1.40001
1.40001
1.40001
1.40001
1.40001
1.40001
1.40001
1.40001
1.40001
1.40001
1.40001
1.40001
1.40001
1.40001
1.40001
1.40001
1.40001
10.0962
8.89415
4.77741
1.38276
1.40001
1.40001
1.40001
1.40001
1.40001
1.40001
1.40001
1.40001
1.40001
1.40001
1.40001
1.40001
1.40001
1.40001
1.40001
1.40001
9.64582
9.14872
6.73746
1.714
1.4
1.40001
1.40001
1.40001
1.40001
1.40001
1.40001
1.40001
1.40001
1.40001
1.40001
1.40001
1.40001
1.40001
1.40001
1.40001
9.05528
9.29151
8.42541
2.79797
1.39999
1.40001
1.40001
1.40001
1.40001
1.40001
1.40001
1.40001
1.40001
1.40001
1.40001
1.40001
1.40001
1.40001
1.40001
1.40001
8.90167
9.4142
9.32215
4.98655
1.37246
1.40001
1.40001
1.40001
1.40001
1.40001
1.40001
1.40001
1.40001
1.40001
1.40001
1.40001
1.40001
1.40001
1.40001
1.40001
8.94427
9.33038
9.29775
6.82846
2.07326
1.40001
1.40001
1.40001
1.40001
1.40001
1.40001
1.40001
1.40001
1.40001
1.40001
1.40001
1.40001
1.40001
1.40001
1.40001
9.03686
9.35567
9.40108
8.51152
3.66125
1.36725
1.4005
1.4
1.40001
1.40001
1.40001
1.40001
1.40001
1.40001
1.40001
1.40001
1.40001
1.40001
1.40001
1.40001
9.2289
9.44234
9.46673
9.25413
6.54719
1.98235
1.39039
1.40019
1.4
1.40001
1.40001
1.40001
1.40001
1.40001
1.40001
1.40001
1.40001
1.40001
1.40001
1.40001
9.44644
9.50026
9.4562
9.23423
8.65444
4.81542
1.48415
1.39817
1.40001
1.40001
1.40001
1.40001
1.40001
1.40001
1.40001
1.40001
1.40001
1.40001
1.40001
1.40001
9.59241
9.51888
9.3637
9.309
9.46873
8.01247
3.72734
1.43348
1.40001
1.40001
1.40001
1.40001
1.40001
1.40001
1.40001
1.40001
1.40001
1.40001
1.40001
1.40001
9.61843
9.55543
9.47668
9.60777
9.79897
9.40889
8.30379
3.12378
0.934674
1.40001
1.40001
1.40001
1.40001
1.40001
1.40001
1.40001
1.40001
1.40001
1.40001
1.40001
3.21266
5.0326
6.75146
7.93986
8.70858
8.92182
9.11487
8.63822
6.29705
4.45367
3.29855
2.18845
1.51669
1.38269
1.39032
1.39498
1.39887
1.39997
1.40003
1.40002
0.436676
1.22013
2.7234
4.38404
5.8928
6.78289
7.52682
8.15231
7.96989
7.35833
6.75658
6.00119
4.72696
3.24525
1.99342
1.44056
1.38517
1.39292
1.39626
1.39922
0.0450243
0.230694
0.721146
1.66763
2.86957
3.98356
4.95539
5.94019
6.66678
6.72554
6.59033
6.56461
6.5085
6.28605
5.59263
4.27393
2.92365
1.86511
1.42555
1.39008
0.00831123
0.044344
0.244655
0.544873
1.1806
1.99227
2.74861
3.5507
4.40191
4.95684
5.25846
5.56449
5.84211
6.07646
6.21408
6.11113
5.81177
5.07503
3.88751
2.63857
0.0113072
0.0198307
0.0875905
0.275488
0.609152
0.944312
1.4167
1.97182
2.61411
3.15489
3.55139
3.92892
4.31198
4.73976
5.19754
5.50188
5.6877
5.74821
5.61949
5.4421
0.0189752
0.0180901
0.0295757
0.12443
0.325476
0.609662
0.91816
1.2747
1.69039
2.11342
2.43092
2.73199
3.033
3.35969
3.76914
4.16942
4.56027
4.89999
5.08668
5.24667
0.0250983
0.0206263
0.0233775
0.0536311
0.140448
0.372384
0.569525
0.829268
1.13059
1.42551
1.6675
1.88061
2.09463
2.30347
2.57623
2.90511
3.25213
3.60536
3.89482
4.16025
0.0330123
0.023941
0.0251672
0.0475278
0.0805648
0.183927
0.267231
0.402523
0.607943
0.8091
1.01743
1.20515
1.40137
1.58051
1.81126
2.08101
2.34392
2.57856
2.91153
2.8821
0.0454477
0.0295927
0.0286378
0.0507211
0.0775571
0.129748
0.190534
0.247082
0.362152
0.532844
0.700283
0.862531
1.03757
1.18237
1.34686
1.51732
1.68478
1.84079
2.13486
2.08491
0.0623519
0.0405487
0.0391645
0.0554883
0.0804648
0.134553
0.205492
0.260651
0.35461
0.476804
0.580385
0.68224
0.791943
0.892735
0.982181
1.08216
1.19224
1.31964
1.60352
1.59429
0.082592
0.0570179
0.0550205
0.0657701
0.089876
0.13694
0.20591
0.25666
0.319
0.389519
0.442809
0.500738
0.556574
0.622611
0.680778
0.75952
0.874031
1.01345
1.16475
1.35408
0.10152
0.073144
0.0647526
0.0718762
0.088076
0.122957
0.172818
0.208315
0.235431
0.263212
0.283764
0.318586
0.372027
0.440512
0.514496
0.600622
0.694656
0.795414
0.867463
1.03488
0.119924
0.0815047
0.0631039
0.0650913
0.0763653
0.0882532
0.111632
0.136846
0.157514
0.187461
0.231524
0.269261
0.3292
0.384658
0.439529
0.49927
0.551094
0.60682
0.637234
0.741751
0.138375
0.0872314
0.0628852
0.061192
0.0642184
0.0734892
0.0882594
0.120052
0.152465
0.185937
0.226972
0.255082
0.296578
0.333454
0.365486
0.390749
0.409865
0.425171
0.444137
0.524452
0.151341
0.095614
0.0674054
0.0628211
0.0638387
0.0747188
0.0918106
0.126858
0.157258
0.179769
0.207212
0.226961
0.249106
0.267475
0.271587
0.269064
0.273542
0.287917
0.325496
0.41347
0.155051
0.108636
0.0822148
0.0715139
0.0713216
0.0830745
0.0966535
0.125342
0.146311
0.157819
0.168393
0.183058
0.178916
0.180262
0.181215
0.188827
0.211206
0.248441
0.287798
0.339761
0.147635
0.117256
0.100511
0.0865915
0.0805971
0.0858551
0.090322
0.100795
0.111871
0.123804
0.118181
0.124417
0.129461
0.140573
0.156104
0.175273
0.199363
0.224824
0.249466
0.26656
0.133104
0.117951
0.110782
0.101209
0.0869069
0.0800117
0.0713025
0.0713891
0.076082
0.0818192
0.0869029
0.0952404
0.106237
0.121389
0.137647
0.153097
0.167656
0.176145
0.181967
0.182937
0.117251
0.122097
0.139402
0.143292
0.156341
0.187999
0.174022
0.148723
0.163606
0.18088
0.202858
0.196208
0.190527
0.206825
0.241676
0.282135
0.324705
0.342455
0.32579
0.280312
0.158755
0.265445
0.322383
0.365704
0.406907
0.487235
0.521068
0.542662
0.607744
0.618036
0.646992
0.650973
0.646051
0.677354
0.690079
0.694975
0.706192
0.718012
0.709481
0.691308
0.78971
0.881769
0.966794
1.13884
1.16751
1.18148
1.16546
1.16238
1.19005
1.25091
1.31526
1.32552
1.31063
1.29082
1.30489
1.3372
1.36075
1.35954
1.33976
1.32108
0.418563
0.598796
0.746236
0.944529
1.08134
1.17804
1.17243
1.17339
1.20451
1.25016
1.291
1.31211
1.31009
1.2937
1.29559
1.31317
1.33949
1.34456
1.3392
1.32484
0.189383
0.233084
0.326316
0.441152
0.701309
0.973124
1.07118
1.18273
1.22006
1.24228
1.27057
1.29848
1.305
1.3048
1.30304
1.30579
1.32105
1.33242
1.3358
1.33623
0.266292
0.297448
0.322436
0.333632
0.35674
0.464668
0.764617
1.04683
1.1482
1.21734
1.26539
1.28356
1.29821
1.31328
1.31043
1.3076
1.31555
1.32745
1.33441
1.34156
0.341312
0.360404
0.370287
0.38957
0.412966
0.416929
0.451195
0.613472
0.91051
1.11895
1.20675
1.26105
1.29858
1.32558
1.32264
1.31312
1.31348
1.3175
1.3291
1.3442
0.442257
0.456594
0.457524
0.445766
0.441739
0.455516
0.486251
0.483592
0.546048
0.708869
0.966817
1.15921
1.276
1.32833
1.32732
1.32428
1.31865
1.31728
1.3265
1.34742
0.561531
0.573929
0.534366
0.495148
0.49858
0.51219
0.533949
0.547463
0.539327
0.532665
0.625829
0.904167
1.1452
1.31858
1.32246
1.32331
1.31675
1.30766
1.32196
1.34622
0.732885
0.712616
0.65419
0.574602
0.554591
0.562268
0.593326
0.601336
0.594572
0.572073
0.54678
0.614866
0.873697
1.16502
1.29155
1.324
1.31297
1.30435
1.33062
1.3464
0.944566
0.872215
0.785871
0.669223
0.627266
0.630845
0.636053
0.641853
0.636323
0.61325
0.579863
0.567209
0.617569
0.858855
1.15859
1.31493
1.28581
1.30059
1.34015
1.34341
1.19881
1.06961
0.960783
0.82718
0.725508
0.690887
0.684341
0.693326
0.681766
0.654807
0.62916
0.597774
0.600256
0.640848
0.867187
1.1875
1.24099
1.30493
1.35025
1.33735
1.75657
1.29979
1.13777
1.05649
0.941859
0.793519
0.745246
0.7483
0.744718
0.729224
0.705491
0.6727
0.652683
0.652162
0.675238
0.804514
1.0605
1.24246
1.30398
1.32627
2.85757
2.05444
1.53055
1.38002
1.29475
1.10933
0.946274
0.887899
0.837488
0.794616
0.766821
0.749343
0.735994
0.716007
0.681497
0.68371
0.736433
0.895483
1.09866
1.2676
3.4811
3.03648
2.39485
1.80557
1.55189
1.34617
1.17059
1.06089
0.967976
0.948637
0.931738
0.88634
0.844744
0.803762
0.760108
0.721695
0.73035
0.750288
0.810456
1.04514
3.29942
3.27009
3.12394
2.68377
2.14977
1.76789
1.50887
1.32992
1.20505
1.15465
1.08744
0.996247
0.911042
0.856668
0.817632
0.812869
0.80833
0.794263
0.768911
0.813908
2.35356
2.99424
3.0954
3.05495
2.8489
2.49012
2.07841
1.74593
1.4962
1.3173
1.20901
1.11614
1.03748
1.01271
0.9665
0.933642
0.909952
0.872849
0.800667
0.80179
1.55101
2.01209
2.57881
2.94896
2.94575
2.89471
2.69921
2.35816
2.01846
1.69359
1.49678
1.37586
1.28652
1.21039
1.11667
1.02018
0.968
0.924655
0.880523
0.844976
1.40626
1.4622
1.68751
2.16324
2.59953
2.82077
2.81352
2.74892
2.56934
2.26858
1.94454
1.70857
1.50525
1.35873
1.25576
1.13826
1.06859
1.03573
1.0239
0.971926
1.40013
1.40158
1.4148
1.5087
1.77272
2.19816
2.54481
2.70405
2.69464
2.6364
2.46737
2.21288
1.93727
1.68612
1.54059
1.41991
1.29841
1.2305
1.17071
1.06716
1.40001
1.40002
1.40021
1.40351
1.4258
1.54071
1.80501
2.18266
2.46586
2.59329
2.58501
2.53597
2.40273
2.17001
1.92525
1.72282
1.54028
1.38966
1.28769
1.1667
1.40001
1.40001
1.40001
1.40004
1.40044
1.4055
1.43517
1.54908
1.79725
2.13235
2.38447
2.49502
2.48987
2.45207
2.33995
2.14904
1.93567
1.71935
1.56701
1.3957
1.40001
1.40001
1.40001
1.40001
1.40001
1.40007
1.40072
1.40619
1.4384
1.54548
1.7705
2.05687
2.30276
2.41131
2.40607
2.37705
2.29645
2.13383
1.94718
1.66987
1.40001
1.40001
1.40001
1.40001
1.40001
1.40001
1.40001
1.40008
1.40089
1.40635
1.43593
1.53319
1.72606
1.98399
2.20165
2.3351
2.3318
2.31148
2.25996
2.04763
1.40001
1.40001
1.40001
1.40001
1.40001
1.40001
1.40001
1.40001
1.40001
1.40009
1.40083
1.40623
1.42868
1.51568
1.67596
1.9165
2.10272
2.25058
2.25782
2.22549
1.40001
1.40001
1.40001
1.40001
1.40001
1.40001
1.40001
1.40001
1.40001
1.40001
1.40001
1.40009
1.40064
1.40529
1.42372
1.48969
1.62975
1.84055
2.01786
2.16529
1.40001
1.40001
1.40001
1.40001
1.40001
1.40001
1.40001
1.40001
1.40001
1.40001
1.40001
1.40001
1.40001
1.40007
1.40055
1.40363
1.41967
1.47209
1.59101
1.94212
2.2614
3.42554
3.59798
2.90768
1.83101
1.45153
1.40263
1.40007
1.40001
1.40001
1.40001
1.40001
1.40001
1.40001
1.40001
3.25457
3.91802
3.52109
2.15395
1.46734
1.40113
1.40001
1.4
1.40001
1.40001
1.40001
1.40001
1.40001
1.40001
1.40001
4.07418
3.99351
2.76522
1.61201
1.4072
1.40007
1.40001
1.40001
1.40001
1.40001
1.40001
1.40001
1.40001
1.40001
1.40001
4.51613
3.55638
1.90706
1.42706
1.40027
1.40001
1.40001
1.40001
1.40001
1.40001
1.40001
1.40001
1.40001
1.40001
1.40001
4.61216
2.3519
1.46639
1.40073
1.40001
1.40001
1.40001
1.40001
1.40001
1.40001
1.40001
1.40001
1.40001
1.40001
1.40001
2.88379
1.5018
1.40066
1.4
1.4
1.4
1.40001
1.40001
1.40001
1.40001
1.40001
1.40001
1.40001
1.40001
1.40001
1.54221
1.4008
1.4
1.4
1.40001
1.40001
1.40001
1.40001
1.40001
1.40001
1.40001
1.40001
1.40001
1.40001
1.40001
1.39741
1.39982
1.4
1.40001
1.40001
1.40001
1.40001
1.40001
1.40001
1.40001
1.40001
1.40001
1.40001
1.40001
1.40001
1.39996
1.40001
1.40001
1.40001
1.40001
1.40001
1.40001
1.40001
1.40001
1.40001
1.40001
1.40001
1.40001
1.40001
1.40001
1.40001
1.40001
1.40001
1.40001
1.40001
1.40001
1.40001
1.40001
1.40001
1.40001
1.40001
1.40001
1.40001
1.40001
1.40001
1.40001
1.40001
1.40001
1.40001
1.40001
1.40001
1.40001
1.40001
1.40001
1.40001
1.40001
1.40001
1.40001
1.40001
1.40001
1.40001
1.40001
1.40001
1.40001
1.40001
1.40001
1.40001
1.40001
1.40001
1.40001
1.40001
1.40001
1.40001
1.40001
1.40001
1.40001
1.40001
1.40001
1.40001
1.40001
1.40001
1.40001
1.40001
1.40001
1.40001
1.40001
1.40001
1.40001
1.40001
1.40001
1.40001
1.40001
1.40001
1.40001
1.40001
1.40001
1.40001
1.40001
1.40001
1.40001
1.40001
1.40001
1.40001
1.40001
1.40001
1.40001
1.40001
1.40001
1.40001
1.40001
1.40001
1.40001
1.40001
1.40001
1.40001
1.40001
1.40001
1.40001
1.40001
1.40001
1.40001
1.40001
1.40001
1.40001
1.40001
1.40001
1.40001
1.40001
1.40001
1.40001
1.40001
1.40001
1.40001
1.40001
1.40001
1.40001
1.40001
1.40001
1.40001
1.40001
1.40001
1.40001
1.40001
1.40001
1.40001
1.40001
1.40001
1.40001
1.40001
1.40001
1.40001
1.40001
1.40001
1.40001
1.40001
1.40001
1.40001
1.40001
1.40001
1.40001
1.40001
1.40001
1.40001
1.40001
1.40001
1.40001
1.40001
1.40001
1.40001
1.40001
1.40001
1.40001
1.40001
1.40001
1.40001
1.40001
1.40001
1.40001
1.40001
1.40001
1.40001
1.40001
1.40001
1.40001
1.40001
1.40001
1.40001
1.40001
1.40001
1.40001
1.40001
1.40001
1.40001
1.40001
1.40001
1.40001
1.40001
1.40001
1.40001
1.40001
1.40001
1.40001
1.40001
1.40001
1.40001
1.40001
1.40001
1.40001
1.40001
1.40001
1.40001
1.40001
1.40001
1.40001
1.40001
1.40001
1.40001
1.40001
1.40001
1.40001
1.40001
1.40001
1.40001
1.40001
1.40001
1.40001
1.40001
1.40001
1.40001
1.40001
1.40001
1.40001
1.40001
1.40001
1.40001
1.40001
1.40001
1.40001
1.40001
1.40001
1.40001
1.40001
1.40001
1.40001
1.40001
1.40001
1.40001
1.40001
1.40001
1.40001
1.40001
1.40001
1.40001
1.40001
1.40001
1.40001
1.40001
1.40001
1.40001
1.40001
1.40001
1.40001
1.40001
1.40001
1.40001
1.40001
1.40001
1.40001
1.40001
1.40001
1.40001
1.40001
1.40001
1.40001
1.40001
1.40001
1.40001
1.40001
1.40001
1.40001
1.40001
1.40001
1.40001
1.40001
1.40001
1.40001
1.40001
1.40001
1.40001
1.40001
1.40001
1.40001
1.40001
1.40001
1.40001
1.40001
1.40001
1.40001
1.40001
1.40001
1.40001
1.40001
1.40001
1.40001
1.40001
1.40001
1.40001
1.40001
1.40001
1.40001
1.40001
1.40001
1.40001
1.40001
1.40001
1.40001
1.40001
1.40001
1.40001
1.40001
1.40001
1.40001
1.40001
1.40001
1.40001
1.40001
1.40001
1.40001
1.40001
1.40001
1.40001
1.40001
1.40001
1.40001
1.40001
1.40001
1.40001
1.40001
1.40001
1.40001
1.40001
1.40001
1.40001
1.40001
1.40001
1.40001
1.40001
1.40001
1.40001
1.40001
1.40001
1.40001
1.40001
1.40001
1.40001
1.40001
1.40001
1.40001
1.40001
1.40001
1.40001
1.40001
1.40001
1.40001
1.40001
1.40001
1.40001
1.40001
1.40001
1.40001
1.40001
1.40001
1.40001
1.40001
1.40001
1.40001
1.40001
1.40001
1.40001
1.40001
1.40001
1.40001
1.40001
1.40001
1.40001
1.40001
1.40001
1.40001
1.40001
1.40001
1.40001
1.40001
1.40001
1.40001
1.40001
1.40001
1.40001
1.40001
1.40001
1.40001
1.40001
1.40001
1.40001
1.40001
1.40001
1.40001
1.40001
1.40001
1.40001
1.40001
1.40001
1.40001
1.40001
1.40001
1.40001
1.40001
1.40001
1.40001
1.40001
1.40001
1.40001
1.40001
1.40001
1.40001
1.40001
1.40001
1.40001
1.40001
1.40001
1.40001
1.40001
1.40001
1.40001
1.40001
1.40001
1.40001
1.40001
1.40001
1.40001
1.40001
1.40001
1.40001
1.40001
1.40001
1.40001
1.40001
1.40001
1.40001
1.40001
1.40001
1.40001
1.40001
1.40001
1.40001
1.40001
1.40001
1.40001
1.40001
1.40001
1.40001
1.40001
1.40001
1.40001
1.40001
1.40001
1.40001
1.40001
1.40001
1.40001
1.40001
1.40001
1.40001
1.40001
1.40001
1.40001
1.40001
1.40001
1.40001
1.40001
1.40001
1.40001
1.40001
1.40001
1.40001
1.40001
1.40001
1.40001
1.40001
1.40001
1.40001
1.40001
1.40001
1.40001
1.40001
1.40001
1.40001
1.40001
1.40001
1.40001
1.40001
1.40001
1.40001
1.40001
1.40001
1.40001
1.40001
1.40001
1.40001
1.40001
1.40001
1.40001
1.40001
1.40001
1.40001
1.40001
1.40001
1.40001
1.40001
1.40001
1.40001
1.40001
1.40001
1.40001
1.40001
1.40001
1.40001
1.40001
1.40001
1.40001
1.40001
1.40001
1.40001
1.40001
1.40001
1.40001
1.40001
1.40001
1.40001
1.40001
1.40001
1.40001
1.40001
1.40001
1.40001
1.40001
1.40001
1.40001
1.40001
1.40001
1.40001
1.40001
1.40001
1.40001
1.40001
1.40001
1.40001
1.40001
1.40001
1.40001
1.40001
1.40001
1.40001
1.40001
1.40001
1.40001
1.40001
1.40001
1.40001
1.40001
1.40001
1.40001
1.40001
1.40001
1.40001
1.40001
1.40001
1.40001
1.40001
1.40001
1.40001
1.40001
1.40001
1.40001
1.40001
1.40001
1.40001
1.40001
1.40001
1.40001
1.40001
1.40001
1.40001
1.40001
1.40001
1.40001
1.40001
1.40001
1.40001
1.40001
1.40001
1.40001
1.40001
1.40001
1.40001
1.40001
1.40001
1.40001
1.40001
1.40001
1.40001
1.40001
1.40001
1.40001
1.40001
1.40001
1.40001
1.40001
1.40001
1.40001
1.40001
1.40001
1.40001
1.40001
1.40001
1.40001
1.40001
1.40001
1.40001
1.40001
1.40001
1.40001
1.40001
1.40001
1.40001
1.40001
1.40001
1.40001
1.40001
1.40001
1.40001
1.40001
1.40001
1.40001
1.40001
1.40001
1.40001
1.40001
1.40001
1.40001
1.40001
1.40001
1.40001
1.40001
1.40001
1.40001
1.40001
1.40001
1.40001
1.40001
1.40001
1.40001
1.40001
1.40001
1.40001
1.40001
1.40001
1.40001
1.40001
1.40001
1.40001
1.40001
1.40001
1.40001
1.40001
1.40001
1.40001
1.40001
1.40001
1.40001
1.40001
1.40001
1.40001
1.40001
1.40001
1.40001
1.40001
1.40001
1.40001
1.40001
1.40001
1.40001
1.40001
1.40001
1.40001
1.40001
1.40001
1.40001
1.40001
1.40001
1.40001
1.40001
1.40001
1.40001
1.40001
1.40001
1.40001
1.40001
1.40001
1.40001
1.40001
1.40001
1.40001
1.40001
1.40001
1.40001
1.40001
1.40001
1.40001
1.40001
1.40001
1.40001
1.40001
1.40001
1.40001
1.40001
1.40001
1.40001
1.40001
1.40001
1.40001
1.40001
1.40001
1.40001
1.40001
1.40001
1.40001
1.40001
1.40001
1.40001
1.40001
1.40001
1.40001
1.40001
1.40001
1.40001
1.40001
1.40001
1.40001
1.40001
1.40001
1.40001
1.40001
1.40001
1.40001
1.40001
1.40001
1.40001
1.40001
1.40001
1.40001
1.40001
1.40001
1.40001
1.40001
1.40001
1.40001
1.40001
1.40001
1.40001
1.40001
1.40001
1.40001
1.40001
1.40001
1.40001
1.40001
1.40001
1.40001
1.40001
1.40001
1.40001
1.40001
1.40001
1.40001
1.40001
1.40001
1.40001
1.40001
1.40001
1.40001
1.40001
1.40001
1.40001
1.40001
1.40001
1.40001
1.40001
1.40001
1.40001
1.40001
1.40001
1.40001
1.40001
1.40001
1.40001
1.40001
1.40001
1.40001
1.40001
1.40001
1.40001
1.40001
1.40001
1.40001
1.40001
1.40001
1.40001
1.40001
1.40001
1.40001
1.40001
1.40001
1.40001
1.40001
1.40001
1.40001
1.40001
1.40001
1.40001
1.40001
1.40001
1.40001
1.40001
1.40001
1.40001
1.40001
1.40001
1.40001
1.40001
1.40001
1.40001
1.40001
1.40001
1.40001
1.40001
1.40001
1.40001
1.40001
1.40001
1.40001
1.40001
1.40001
1.40001
1.40001
1.40001
1.40001
1.40001
1.40001
1.40001
1.40001
1.39996
1.40001
1.40001
1.40001
1.40001
1.40001
1.40001
1.40001
1.40001
1.40001
1.40001
1.40001
1.40001
1.40001
1.40001
1.39741
1.39982
1.4
1.40001
1.40001
1.40001
1.40001
1.40001
1.40001
1.40001
1.40001
1.40001
1.40001
1.40001
1.40001
1.54232
1.4008
1.4
1.4
1.40001
1.40001
1.40001
1.40001
1.40001
1.40001
1.40001
1.40001
1.40001
1.40001
1.40001
2.8837
1.50168
1.40066
1.4
1.4
1.4
1.40001
1.40001
1.40001
1.40001
1.40001
1.40001
1.40001
1.40001
1.40001
4.61211
2.35152
1.46636
1.40073
1.40001
1.40001
1.40001
1.40001
1.40001
1.40001
1.40001
1.40001
1.40001
1.40001
1.40001
4.51581
3.5559
1.90698
1.42708
1.40027
1.40001
1.40001
1.40001
1.40001
1.40001
1.40001
1.40001
1.40001
1.40001
1.40001
4.07347
3.99275
2.76533
1.61212
1.4072
1.40007
1.40001
1.40001
1.40001
1.40001
1.40001
1.40001
1.40001
1.40001
1.40001
3.25482
3.91748
3.52102
2.15415
1.46738
1.40113
1.40001
1.4
1.40001
1.40001
1.40001
1.40001
1.40001
1.40001
1.40001
2.26176
3.42568
3.5975
2.90778
1.83111
1.45151
1.40263
1.40007
1.40001
1.40001
1.40001
1.40001
1.40001
1.40001
1.40001
1.76014
2.86037
3.48224
3.29864
2.35197
1.55098
1.40627
1.40013
1.40001
1.40001
1.40001
1.40001
1.40001
1.40001
1.40001
1.29266
2.05278
3.03941
3.26979
2.99362
2.0104
1.46198
1.40157
1.40002
1.40001
1.40001
1.40001
1.40001
1.40001
1.40001
1.13756
1.52553
2.38025
3.12552
3.09506
2.57857
1.68701
1.41473
1.40021
1.40001
1.40001
1.40001
1.40001
1.40001
1.40001
1.05667
1.39064
1.81382
2.67666
3.05305
2.94775
2.16362
1.50902
1.40352
1.40004
1.40001
1.40001
1.40001
1.40001
1.40001
0.932154
1.29924
1.57208
2.1493
2.84772
2.94523
2.59897
1.77347
1.42599
1.40045
1.40001
1.40001
1.40001
1.40001
1.40001
0.780687
1.08431
1.34401
1.78343
2.4992
2.89545
2.82092
2.19829
1.54042
1.40547
1.40007
1.40001
1.40001
1.40001
1.40001
0.757597
0.950506
1.14659
1.50691
2.08352
2.70068
2.81387
2.54489
1.80497
1.43506
1.40072
1.40001
1.40001
1.40001
1.40001
0.770207
0.895896
1.04718
1.32712
1.73518
2.36213
2.74981
2.70365
2.18109
1.54929
1.40625
1.40008
1.40001
1.40001
1.40001
0.757571
0.837519
0.9704
1.22624
1.49024
2.01507
2.56835
2.69448
2.46705
1.79715
1.43815
1.40088
1.40001
1.40001
1.40001
0.73423
0.79537
0.940685
1.16437
1.31887
1.68939
2.26845
2.63702
2.59413
2.1325
1.54581
1.40638
1.40009
1.40001
1.40001
0.70658
0.763518
0.918221
1.08279
1.20964
1.49746
1.95113
2.46814
2.58546
2.3838
1.77075
1.43612
1.40083
1.40001
1.40001
0.672536
0.756344
0.88251
0.991722
1.11112
1.37238
1.70627
2.21381
2.53669
2.49635
2.05809
1.53288
1.4062
1.40009
1.40001
0.646891
0.741788
0.847916
0.919543
1.04575
1.28284
1.50045
1.9348
2.40161
2.49076
2.30251
1.72643
1.42872
1.40064
1.40001
0.644816
0.715246
0.802212
0.858468
1.0218
1.21009
1.36081
1.69181
2.16831
2.45214
2.4103
1.98384
1.51606
1.40532
1.40007
0.671487
0.678813
0.755348
0.818269
0.977931
1.11922
1.25051
1.5415
1.92656
2.33975
2.40546
2.20211
1.67588
1.42371
1.40055
0.805207
0.684377
0.722482
0.813271
0.944571
1.03088
1.13162
1.4085
1.71956
2.14872
2.37728
2.33524
1.91615
1.48955
1.40362
1.06021
0.738219
0.728198
0.802419
0.916173
0.973489
1.06955
1.2949
1.53821
1.9351
2.29667
2.33178
2.10285
1.62981
1.4197
1.25274
0.897245
0.745672
0.780192
0.872828
0.921218
1.03362
1.23176
1.39208
1.72011
2.13387
2.31121
2.25105
1.84095
1.47227
1.31249
1.09802
0.801878
0.759746
0.796919
0.878324
1.02126
1.17149
1.28989
1.5689
1.94757
2.26012
2.25795
2.01812
1.59114
1.32773
1.27098
1.04232
0.809489
0.79853
0.848074
0.973346
1.06592
1.1658
1.39659
1.67031
2.04819
2.22586
2.16579
1.94226
1.19256
1.07224
0.963461
0.825298
0.712561
0.686885
0.681879
0.691872
0.68072
0.651015
0.624079
0.592217
0.597312
0.64075
0.860908
1.18628
1.24129
1.311
1.3608
1.34099
0.939618
0.873386
0.791738
0.679459
0.622028
0.625817
0.637052
0.640517
0.631525
0.606291
0.574072
0.571069
0.620306
0.861103
1.15423
1.31717
1.29433
1.30357
1.34792
1.34493
0.729847
0.711746
0.663716
0.581424
0.548978
0.557934
0.587562
0.591494
0.583374
0.560203
0.548242
0.617821
0.874073
1.1609
1.30072
1.32447
1.30816
1.30141
1.32942
1.344
0.557944
0.579064
0.543042
0.494343
0.496058
0.511455
0.529186
0.533737
0.534119
0.524472
0.624438
0.907609
1.14891
1.31612
1.3231
1.3201
1.30665
1.29763
1.31174
1.34044
0.442658
0.458971
0.45936
0.44859
0.44803
0.462455