/*--------------------------------*- C++ -*----------------------------------*\
  =========                 |
  \\      /  F ield         | OpenFOAM: The Open Source CFD Toolbox
   \\    /   O peration     | Website:  https://openfoam.org
    \\  /    A nd           | Version:  7
     \\/     M anipulation  |
\*---------------------------------------------------------------------------*/
FoamFile
{
    version     2.0;
    format      ascii;
    class       volScalarField;
    location    "9";
    object      T;
}
// * * * * * * * * * * * * * * * * * * * * * * * * * * * * * * * * * * * * * //

dimensions      [0 0 0 1 0 0 0];

internalField   nonuniform List<scalar> 
3700
(
100.509
100.729
100.768
100.845
100.841
100.873
101.038
101.186
101.197
101.177
101.138
101.13
101.147
101.144
101.127
101.097
101.067
101.068
101.074
101.073
100.171
100.201
100.279
100.375
100.329
100.314
100.555
100.786
100.785
100.692
100.547
100.559
100.617
100.609
100.558
100.469
100.407
100.417
100.463
100.49
100.183
100.152
100.114
100.08
100.034
99.9936
99.9286
99.8984
99.8963
99.8957
99.9069
99.9325
99.9629
99.9953
100.02
100.034
100.043
100.048
100.048
100.033
100.254
100.158
100.101
100.062
100.04
100.04
100.028
100.024
100.015
100.002
99.9611
99.9568
99.9599
99.9871
100.021
100.042
100.059
100.082
100.098
100.104
100.317
100.169
100.072
100.023
100.016
100.038
100.053
100.097
100.108
100.1
100.093
100.086
100.061
100.039
100.029
100.034
100.055
100.089
100.117
100.152
100.334
100.146
99.9741
99.9395
99.9449
99.9729
100.027
100.102
100.13
100.142
100.154
100.15
100.152
100.146
100.132
100.112
100.099
100.099
100.12
100.182
100.313
100.074
99.9136
99.8989
99.9227
99.9489
99.9979
100.066
100.103
100.142
100.167
100.174
100.195
100.201
100.205
100.206
100.201
100.196
100.195
100.222
100.193
100.005
99.8969
99.8902
99.9183
99.9483
100.011
100.062
100.085
100.122
100.152
100.17
100.203
100.225
100.244
100.263
100.272
100.279
100.282
100.313
100.067
99.9353
99.8911
99.9063
99.9546
100.04
100.109
100.138
100.144
100.164
100.165
100.179
100.202
100.233
100.264
100.294
100.322
100.341
100.352
100.391
99.97
99.8538
99.8267
99.8899
99.9604
100.089
100.171
100.197
100.23
100.264
100.275
100.288
100.301
100.312
100.321
100.337
100.364
100.394
100.42
100.454
99.8715
99.7402
99.7399
99.8485
99.9467
100.104
100.189
100.213
100.264
100.319
100.345
100.363
100.382
100.394
100.408
100.422
100.439
100.455
100.497
100.494
99.7761
99.6423
99.6557
99.835
99.9781
100.15
100.196
100.223
100.283
100.345
100.387
100.415
100.44
100.454
100.476
100.498
100.521
100.542
100.574
100.565
99.691
99.5827
99.6326
99.8304
100.112
100.295
100.31
100.365
100.419
100.449
100.471
100.486
100.499
100.512
100.537
100.569
100.601
100.627
100.657
100.652
99.6187
99.5563
99.6395
99.9158
100.255
100.405
100.438
100.49
100.532
100.564
100.577
100.587
100.595
100.605
100.624
100.652
100.683
100.712
100.727
100.735
99.543
99.5478
99.8028
100.139
100.376
100.471
100.522
100.566
100.607
100.636
100.649
100.665
100.68
100.701
100.728
100.752
100.773
100.785
100.78
100.774
99.3974
99.6166
100.023
100.329
100.483
100.536
100.592
100.642
100.686
100.707
100.724
100.743
100.766
100.792
100.812
100.823
100.822
100.816
100.791
100.746
99.2914
99.7897
100.209
100.448
100.6
100.69
100.73
100.765
100.791
100.807
100.819
100.835
100.851
100.856
100.854
100.843
100.791
100.678
100.517
100.278
99.5289
100.132
100.475
100.668
100.763
100.809
100.838
100.864
100.875
100.882
100.882
100.883
100.882
100.858
100.771
100.622
100.36
100.102
100.006
99.9978
100.12
100.528
100.734
100.835
100.89
100.908
100.919
100.92
100.916
100.908
100.895
100.842
100.728
100.47
100.146
100.01
99.9966
99.9985
99.9992
99.9998
100.696
100.836
100.913
100.951
100.964
100.955
100.952
100.926
100.844
100.766
100.58
100.237
100.031
99.9958
99.9978
99.9989
99.9998
100
100
100
100.998
100.996
100.991
100.991
100.985
100.95
100.875
100.433
99.8583
100
100
100
100
100
100
100
100
100
100
100
100.994
100.992
100.985
100.975
100.964
100.87
100.503
100.015
100
100
100
100
100
100
100
100
100
100
100
100
100.989
100.99
100.984
100.965
100.919
100.652
100.05
99.9991
100
100
100
100
100
100
100
100
100
100
100
100
100.984
100.989
100.984
100.954
100.785
100.236
99.9962
100
100
100
100
100
100
100
100
100
100
100
100
100
100.979
100.987
100.981
100.918
100.546
99.9924
100
100
100
100
100
100
100
100
100
100
100
100
100
100
100.978
100.987
100.979
100.833
100.276
100
100
100
100
100
100
100
100
100
100
100
100
100
100
100
100.978
100.989
100.977
100.709
100.002
100
100
100
100
100
100
100
100
100
100
100
100
100
100
100
100.984
100.982
100.924
100.458
99.9978
100
100
100
100
100
100
100
100
100
100
100
100
100
100
100
101.001
100.964
100.817
100.16
100
100
100
100
100
100
100
100
100
100
100
100
100
100
100
100
101.014
100.942
100.677
99.9964
100
100
100
100
100
100
100
100
100
100
100
100
100
100
100
100
101.023
100.903
100.5
100
100
100
100
100
100
100
100
100
100
100
100
100
100
100
100
100
101.029
100.848
100.315
100
100
100
100
100
100
100
100
100
100
100
100
100
100
100
100
100
101.033
100.795
100.109
100
100
100
100
100
100
100
100
100
100
100
100
100
100
100
100
100
101.033
100.739
100.007
100
100
100
100
100
100
100
100
100
100
100
100
100
100
100
100
100
101.011
100.684
100
100
100
100
100
100
100
100
100
100
100
100
100
100
100
100
100
100
100.987
100.565
100
100
100
100
100
100
100
100
100
100
100
100
100
100
100
100
100
100
100.944
100.417
100
100
100
100
100
100
100
100
100
100
100
100
100
100
100
100
100
100
100.908
100.229
100
100
100
100
100
100
100
100
100
100
100
100
100
100
100
100
100
100
100.868
100.005
100
100
100
100
100
100
100
100
100
100
100
100
100
100
100
100
100
100
100.811
100
100
100
100
100
100
100
100
100
100
100
100
100
100
100
100
100
100
100
100.809
100
100
100
100
100
100
100
100
100
100
100
100
100
100
100
100
100
100
100
100.868
100.005
100
100
100
100
100
100
100
100
100
100
100
100
100
100
100
100
100
100
100.911
100.235
100
100
100
100
100
100
100
100
100
100
100
100
100
100
100
100
100
100
100.945
100.418
100
100
100
100
100
100
100
100
100
100
100
100
100
100
100
100
100
100
100.985
100.561
100
100
100
100
100
100
100
100
100
100
100
100
100
100
100
100
100
100
101.009
100.681
100
100
100
100
100
100
100
100
100
100
100
100
100
100
100
100
100
100
101.033
100.742
100.01
100
100
100
100
100
100
100
100
100
100
100
100
100
100
100
100
100
101.034
100.797
100.112
100
100
100
100
100
100
100
100
100
100
100
100
100
100
100
100
100
101.03
100.849
100.316
100
100
100
100
100
100
100
100
100
100
100
100
100
100
100
100
100
101.023
100.902
100.5
100
100
100
100
100
100
100
100
100
100
100
100
100
100
100
100
100
101.014
100.942
100.675
99.9964
100
100
100
100
100
100
100
100
100
100
100
100
100
100
100
100
101
100.963
100.817
100.161
100
100
100
100
100
100
100
100
100
100
100
100
100
100
100
100
100.982
100.979
100.921
100.457
99.9988
100
100
100
100
100
100
100
100
100
100
100
100
100
100
100
100.978
100.99
100.979
100.704
99.9958
100
100
100
100
100
100
100
100
100
100
100
100
100
100
100
100.979
100.988
100.98
100.836
100.285
100
100
100
100
100
100
100
100
100
100
100
100
100
100
100
100.981
100.988
100.982
100.919
100.549
99.9924
100
100
100
100
100
100
100
100
100
100
100
100
100
100
100.985
100.989
100.984
100.954
100.782
100.229
99.9964
100
100
100
100
100
100
100
100
100
100
100
100
100
100.989
100.99
100.985
100.965
100.915
100.646
100.047
99.9991
100
100
100
100
100
100
100
100
100
100
100
100
100.994
100.991
100.984
100.974
100.962
100.871
100.51
100.018
100
100
100
100
100
100
100
100
100
100
100
100
100.997
100.995
100.991
100.99
100.985
100.952
100.878
100.436
99.8569
100
100
100
100
100
100
100
100
100
100
100
100.696
100.836
100.912
100.951
100.964
100.956
100.953
100.927
100.843
100.764
100.579
100.236
100.031
99.9958
99.9978
99.9989
99.9998
100
100
100
100.12
100.527
100.733
100.834
100.89
100.909
100.921
100.92
100.916
100.907
100.895
100.842
100.728
100.471
100.147
100.01
99.9967
99.9985
99.9992
99.9998
99.5335
100.136
100.47
100.666
100.762
100.809
100.839
100.864
100.875
100.881
100.882
100.883
100.882
100.858
100.771
100.621
100.359
100.102
100.006
99.9978
99.2898
99.8292
100.212
100.444
100.601
100.689
100.729
100.764
100.79
100.806
100.818
100.834
100.851
100.856
100.854
100.843
100.791
100.678
100.517
100.279
99.3854
99.6522
100.019
100.32
100.484
100.54
100.595
100.644
100.686
100.707
100.723
100.743
100.766
100.792
100.812
100.823
100.822
100.816
100.791
100.746
99.5426
99.5635
99.8518
100.143
100.373
100.474
100.524
100.568
100.608
100.636
100.649
100.665
100.681
100.702
100.728
100.752
100.772
100.785
100.781
100.774
99.6354
99.5812
99.7026
99.9375
100.24
100.399
100.437
100.49
100.532
100.563
100.577
100.587
100.595
100.605
100.624
100.651
100.682
100.712
100.727
100.735
99.713
99.6081
99.6737
99.8474
100.097
100.286
100.306
100.361
100.415
100.445
100.469
100.485
100.5
100.512
100.536
100.568
100.601
100.627
100.657
100.653
99.7917
99.6617
99.6823
99.8497
99.9777
100.15
100.199
100.225
100.284
100.347
100.389
100.416
100.441
100.454
100.475
100.497
100.521
100.542
100.575
100.566
99.8761
99.752
99.7575
99.8647
99.9603
100.112
100.193
100.215
100.266
100.319
100.346
100.363
100.382
100.392
100.407
100.421
100.439
100.455
100.498
100.494
99.9674
99.8675
99.85
99.8979
99.9671
100.09
100.168
100.193
100.227
100.261
100.273
100.286
100.299
100.31
100.319
100.335
100.364
100.394
100.42
100.454
100.06
99.9604
99.9011
99.903
99.9475
100.029
100.095
100.125
100.136
100.159
100.163
100.179
100.202
100.232
100.264
100.294
100.322
100.342
100.352
100.392
100.179
100.029
99.9031
99.8833
99.9052
99.9352
99.9989
100.053
100.082
100.123
100.155
100.173
100.204
100.226
100.244
100.263
100.272
100.279
100.282
100.314
100.298
100.094
99.9178
99.8925
99.909
99.939
99.992
100.062
100.104
100.144
100.17
100.176
100.195
100.201
100.205
100.206
100.201
100.195
100.193
100.221
100.325
100.157
99.9718
99.9285
99.9329
99.9691
100.028
100.103
100.131
100.142
100.154
100.15
100.15
100.144
100.131
100.111
100.098
100.098
100.12
100.181
100.309
100.182
100.066
100.014
100.012
100.035
100.055
100.098
100.105
100.096
100.088
100.081
100.056
100.036
100.028
100.036
100.056
100.09
100.118
100.152
100.255
100.173
100.108
100.062
100.037
100.037
100.028
100.021
100.007
99.9933
99.9533
99.9521
99.9585
99.9888
100.024
100.044
100.06
100.083
100.098
100.105
100.191
100.157
100.12
100.083
100.029
99.9848
99.9219
99.8915
99.8896
99.8903
99.9051
99.9313
99.9625
99.9969
100.023
100.037
100.044
100.05
100.05
100.036
100.17
100.185
100.236
100.213
100.336
100.58
100.55
100.422
100.472
100.587
100.623
100.547
100.399
100.396
100.447
100.526
100.593
100.603
100.57
100.437
100.526
100.749
100.753
100.744
100.815
100.982
101.076
101.083
101.136
101.164
101.159
101.137
101.089
101.076
101.1
101.127
101.128
101.121
101.102
101.049
101.062
101.036
101.001
100.982
100.957
100.939
100.913
100.889
100.879
100.879
100.88
100.87
100.853
100.839
100.839
100.838
100.834
100.824
100.812
100.799
100.609
100.677
100.704
100.713
100.745
100.782
100.795
100.805
100.812
100.811
100.81
100.805
100.801
100.798
100.799
100.799
100.795
100.789
100.785
100.779
100.026
100.09
100.177
100.254
100.393
100.5
100.57
100.637
100.659
100.664
100.671
100.679
100.686
100.698
100.706
100.707
100.707
100.709
100.715
100.722
100.081
100.082
100.092
100.091
100.103
100.193
100.36
100.467
100.506
100.529
100.547
100.561
100.573
100.587
100.595
100.6
100.605
100.612
100.622
100.636
100.137
100.135
100.124
100.125
100.132
100.136
100.166
100.27
100.394
100.443
100.463
100.486
100.506
100.517
100.519
100.521
100.525
100.532
100.541
100.555
100.192
100.186
100.172
100.156
100.152
100.16
100.178
100.179
100.22
100.295
100.376
100.43
100.467
100.482
100.481
100.48
100.48
100.483
100.489
100.499
100.242
100.239
100.209
100.185
100.186
100.193
100.204
100.21
100.205
100.194
100.238
100.344
100.415
100.46
100.459
100.457
100.455
100.454
100.458
100.466
100.305
100.29
100.264
100.232
100.218
100.219
100.229
100.229
100.223
100.207
100.184
100.213
100.316
100.405
100.435
100.441
100.438
100.436
100.442
100.446
100.367
100.345
100.317
100.28
100.258
100.249
100.243
100.241
100.234
100.22
100.195
100.177
100.196
100.293
100.385
100.423
100.416
100.42
100.43
100.43
100.43
100.403
100.372
100.335
100.298
100.271
100.257
100.255
100.246
100.23
100.212
100.186
100.179
100.188
100.28
100.377
100.39
100.406
100.416
100.412
100.532
100.446
100.405
100.384
100.354
100.302
100.269
100.264
100.257
100.246
100.232
100.21
100.19
100.177
100.18
100.231
100.316
100.362
100.373
100.379
100.621
100.544
100.464
100.428
100.409
100.371
100.324
100.294
100.268
100.248
100.236
100.223
100.205
100.184
100.163
100.152
100.169
100.223
100.277
100.32
100.609
100.589
100.541
100.466
100.426
100.388
100.352
100.319
100.286
100.276
100.266
100.243
100.218
100.194
100.17
100.146
100.141
100.136
100.148
100.222
100.488
100.547
100.542
100.516
100.468
100.418
100.378
100.343
100.311
100.293
100.27
100.24
100.21
100.186
100.166
100.151
100.137
100.121
100.101
100.107
100.251
100.377
100.446
100.482
100.473
100.448
100.408
100.366
100.325
100.287
100.259
100.234
100.211
100.198
100.177
100.157
100.14
100.117
100.091
100.072
100.043
100.146
100.254
100.337
100.387
100.415
100.406
100.381
100.346
100.301
100.268
100.243
100.222
100.201
100.173
100.142
100.12
100.101
100.084
100.061
100.002
100.015
100.066
100.155
100.233
100.29
100.33
100.349
100.34
100.316
100.281
100.248
100.215
100.186
100.162
100.133
100.111
100.098
100.09
100.067
100
100
100.003
100.025
100.078
100.149
100.208
100.25
100.28
100.291
100.281
100.26
100.229
100.195
100.171
100.148
100.123
100.105
100.088
100.057
100
100
100
100.001
100.006
100.031
100.081
100.14
100.187
100.216
100.24
100.244
100.237
100.216
100.186
100.158
100.13
100.101
100.079
100.049
100
100
100
100
100
100.001
100.008
100.032
100.078
100.129
100.17
100.192
100.21
100.209
100.201
100.182
100.157
100.126
100.1
100.068
100
100
100
100
100
100
100
100.001
100.009
100.031
100.073
100.117
100.156
100.174
100.186
100.184
100.177
100.16
100.136
100.097
100
100
100
100
100
100
100
100
100
100.001
100.008
100.029
100.065
100.106
100.14
100.16
100.168
100.167
100.162
100.139
100
100
100
100
100
100
100
100
100
100
100
100.001
100.006
100.025
100.056
100.096
100.126
100.146
100.155
100.152
100
100
100
100
100
100
100
100
100
100
100
100
100
100.001
100.005
100.02
100.048
100.085
100.113
100.137
100
100
100
100
100
100
100
100
100
100
100
100
100
100
100
100.001
100.004
100.016
100.041
100.105
100.597
100.653
100.61
100.416
100.142
100.017
100.001
100
100
100
100
100
100
100
100
100.67
100.663
100.518
100.218
100.022
100
100
100
100
100
100
100
100
100
100
100.704
100.636
100.374
100.074
100.002
100
100
100
100
100
100
100
100
100
100
100.719
100.518
100.168
100.009
100
100
100
100
100
100
100
100
100
100
100
100.65
100.284
100.025
100
100
100
100
100
100
100
100
100
100
100
100
100.394
100.038
100
100
100
100
100
100
100
100
100
100
100
100
100
100.043
100
100
100
100
100
100
100
100
100
100
100
100
100
100
99.9995
100
100
100
100
100
100
100
100
100
100
100
100
100
100
100
100
100
100
100
100
100
100
100
100
100
100
100
100
100
100
100
100
100
100
100
100
100
100
100
100
100
100
100
100
100
100
100
100
100
100
100
100
100
100
100
100
100
100
100
100
100
100
100
100
100
100
100
100
100
100
100
100
100
100
100
100
100
100
100
100
100
100
100
100
100
100
100
100
100
100
100
100
100
100
100
100
100
100
100
100
100
100
100
100
100
100
100
100
100
100
100
100
100
100
100
100
100
100
100
100
100
100
100
100
100
100
100
100
100
100
100
100
100
100
100
100
100
100
100
100
100
100
100
100
100
100
100
100
100
100
100
100
100
100
100
100
100
100
100
100
100
100
100
100
100
100
100
100
100
100
100
100
100
100
100
100
100
100
100
100
100
100
100
100
100
100
100
100
100
100
100
100
100
100
100
100
100
100
100
100
100
100
100
100
100
100
100
100
100
100
100
100
100
100
100
100
100
100
100
100
100
100
100
100
100
100
100
100
100
100
100
100
100
100
100
100
100
100
100
100
100
100
100
100
100
100
100
100
100
100
100
100
100
100
100
100
100
100
100
100
100
100
100
100
100
100
100
100
100
100
100
100
100
100
100
100
100
100
100
100
100
100
100
100
100
100
100
100
100
100
100
100
100
100
100
100
100
100
100
100
100
100
100
100
100
100
100
100
100
100
100
100
100
100
100
100
100
100
100
100
100
100
100
100
100
100
100
100
100
100
100
100
100
100
100
100
100
100
100
100
100
100
100
100
100
100
100
100
100
100
100
100
100
100
100
100
100
100
100
100
100
100
100
100
100
100
100
100
100
100
100
100
100
100
100
100
100
100
100
100
100
100
100
100
100
100
100
100
100
100
100
100
100
100
100
100
100
100
100
100
100
100
100
100
100
100
100
100
100
100
100
100
100
100
100
100
100
100
100
100
100
100
100
100
100
100
100
100
100
100
100
100
100
100
100
100
100
100
100
100
100
100
100
100
100
100
100
100
100
100
100
100
100
100
100
100
100
100
100
100
100
100
100
100
100
100
100
100
100
100
100
100
100
100
100
100
100
100
100
100
100
100
100
100
100
100
100
100
100
100
100
100
100
100
100
100
100
100
100
100
100
100
100
100
100
100
100
100
100
100
100
100
100
100
100
100
100
100
100
100
100
100
100
100
100
100
100
100
100
100
100
100
100
100
100
100
100
100
100
100
100
100
100
100
100
100
100
100
100
100
100
100
100
100
100
100
100
100
100
100
100
100
100
100
100
100
100
100
100
100
100
100
100
100
100
100
100
100
100
100
100
100
100
100
100
100
100
100
100
100
100
100
100
100
100
100
100
100
100
100
100
100
100
100
100
100
100
100
100
100
100
100
100
100
100
100
100
100
100
100
100
100
100
100
100
100
100
100
100
100
100
100
100
100
100
100
100
100
100
100
100
100
100
100
100
100
100
100
100
100
100
100
100
100
100
100
100
100
100
100
100
100
100
100
100
100
100
100
100
100
100
100
100
100
100
100
100
100
100
100
100
100
100
100
100
100
100
100
100
100
100
100
100
100
100
100
100
100
100
100
100
100
100
100
100
100
100
100
100
100
100
100
100
100
100
100
100
100
100
100
100
100
100
100
100
100
100
100
100
100
100
100
100
100
100
100
100
100
100
100
100
100
100
100
100
100
100
100
100
100
100
100
100
100
100
100
100
100
100
100
100
100
100
100
100
100
100
100
100
100
100
100
100
100
100
100
100
100
100
100
100
100
100
100
100
100
100
100
100
100
100
100
100
100
100
100
100
100
100
100
100
100
100
100
100
100
100
100
100
100
100
100
100
100
100
100
100
100
100
100
100
100
100
100
100
100
100
100
100
100
100
100
100
100
100
100
100
100
100
100
100
100
100
100
100
100
100
100
100
100
100
100
100
100
100
100
100
100
100
100
100
100
100
100
100
100
100
100
100
100
100
100
100
100
99.9995
100
100
100
100
100
100
100
100
100
100
100
100
100
100
100.043
100
100
100
100
100
100
100
100
100
100
100
100
100
100
100.394
100.038
100
100
100
100
100
100
100
100
100
100
100
100
100
100.65
100.284
100.025
100
100
100
100
100
100
100
100
100
100
100
100
100.719
100.518
100.168
100.009
100
100
100
100
100
100
100
100
100
100
100
100.704
100.636
100.374
100.074
100.002
100
100
100
100
100
100
100
100
100
100
100.67
100.662
100.518
100.218
100.022
100
100
100
100
100
100
100
100
100
100
100.597
100.653
100.61
100.416
100.142
100.017
100.001
100
100
100
100
100
100
100
100
100.533
100.621
100.609
100.488
100.251
100.043
100.002
100
100
100
100
100
100
100
100
100.445
100.543
100.589
100.547
100.377
100.145
100.015
100
100
100
100
100
100
100
100
100.405
100.463
100.54
100.542
100.446
100.254
100.066
100.003
100
100
100
100
100
100
100
100.385
100.43
100.467
100.516
100.482
100.336
100.155
100.025
100.001
100
100
100
100
100
100
100.352
100.411
100.429
100.467
100.472
100.387
100.233
100.078
100.006
100
100
100
100
100
100
100.297
100.366
100.39
100.42
100.449
100.416
100.29
100.149
100.031
100.001
100
100
100
100
100
100.275
100.324
100.348
100.379
100.41
100.406
100.33
100.208
100.081
100.008
100
100
100
100
100
100.272
100.295
100.315
100.342
100.365
100.381
100.349
100.25
100.14
100.032
100.001
100
100
100
100
100.262
100.266
100.286
100.315
100.323
100.345
100.34
100.28
100.187
100.078
100.008
100
100
100
100
100.248
100.249
100.275
100.296
100.286
100.3
100.316
100.291
100.216
100.129
100.031
100.001
100
100
100
100.232
100.236
100.263
100.27
100.259
100.268
100.281
100.282
100.241
100.17
100.073
100.008
100
100
100
100.21
100.225
100.242
100.24
100.233
100.243
100.248
100.26
100.245
100.192
100.117
100.029
100.001
100
100
100.188
100.207
100.219
100.212
100.213
100.222
100.214
100.229
100.236
100.21
100.156
100.065
100.006
100
100
100.175
100.184
100.193
100.187
100.2
100.2
100.186
100.196
100.215
100.209
100.174
100.106
100.025
100.001
100
100.179
100.162
100.169
100.167
100.181
100.173
100.161
100.171
100.186
100.201
100.186
100.14
100.056
100.005
100
100.23
100.153
100.148
100.153
100.161
100.144
100.131
100.146
100.158
100.182
100.184
100.16
100.096
100.02
100.001
100.316
100.169
100.14
100.136
100.142
100.121
100.11
100.122
100.129
100.157
100.177
100.168
100.126
100.048
100.004
100.366
100.223
100.131
100.116
100.118
100.1
100.097
100.105
100.102
100.126
100.16
100.167
100.147
100.085
100.016
100.374
100.276
100.142
100.097
100.09
100.083
100.089
100.088
100.079
100.1
100.136
100.162
100.155
100.113
100.041
100.379
100.32
100.22
100.105
100.071
100.061
100.067
100.057
100.049
100.069
100.097
100.139
100.152
100.138
100.105
100.428
100.403
100.373
100.334
100.294
100.269
100.256
100.255
100.246
100.23
100.21
100.182
100.179
100.188
100.277
100.376
100.389
100.408
100.418
100.413
100.364
100.345
100.319
100.283
100.256
100.247
100.243
100.241
100.233
100.217
100.192
100.178
100.198
100.295
100.385
100.424
100.418
100.42
100.43
100.43
100.303
100.29
100.268
100.235
100.216
100.217
100.226
100.225
100.218
100.2
100.184
100.214
100.316
100.404
100.439
100.442
100.437
100.434
100.44
100.445
100.24
100.24
100.213
100.184
100.185
100.193
100.201
100.203
100.198
100.188
100.236
100.345
100.415
100.458
100.46
100.457
100.453
100.451
100.454
100.464
100.193
100.187
100.173
100.157
100.157
100.166
100.177
100.173
100.204
100.283
100.376
100.434
100.468
100.481
100.48
100.478
100.477
100.479
100.484
100.495
100.137
100.137
100.134
100.131
100.128
100.132
100.169
100.267
100.375
100.435
100.468
100.493
100.51
100.516
100.517
100.517
100.522
100.528
100.536
100.549
100.082
100.09
100.088
100.087
100.106
100.204
100.374
100.469
100.495
100.519
100.551
100.571
100.582
100.59
100.591
100.594
100.602
100.611
100.618
100.629
100.028
100.056
100.188
100.28
100.412
100.514
100.588
100.641
100.646
100.65
100.672
100.691
100.699
100.7
100.699
100.699
100.705
100.712
100.714
100.717
100.512
100.606
100.707
100.736
100.77
100.802
100.81
100.807
100.8
100.799
100.807
100.811
100.809
100.799
100.793
100.794
100.794
100.792
100.786
100.778
101.021
101.009
101.002
100.994
100.97
100.953
100.923
100.89
100.877
100.877
100.873
100.864
100.851
100.839
100.836
100.836
100.831
100.82
100.81
100.799
)
;

boundaryField
{
    inlet
    {
        type            fixedValue;
        value           uniform 100;
    }
    outlet
    {
        type            inletOutlet;
        inletValue      uniform 100;
        value           nonuniform List<scalar> 
50
(
100.379
100.32
100.221
100.107
100.072
100.061
100.067
100.057
100.049
100.068
100.097
100.139
100.152
100.137
100.105
100.799
100.779
100.722
100.636
100.555
100.499
100.466
100.446
100.43
100.412
100.413
100.43
100.445
100.464
100.495
100.549
100.629
100.717
100.778
100.799
100.379
100.32
100.22
100.105
100.071
100.061
100.067
100.057
100.049
100.069
100.097
100.139
100.152
100.138
100.105
)
;
    }
    airfoil
    {
        type            zeroGradient;
    }
    top
    {
        type            symmetryPlane;
    }
    bottom
    {
        type            symmetryPlane;
    }
    defaultFaces
    {
        type            empty;
    }
}


// ************************************************************************* //
