/*--------------------------------*- C++ -*----------------------------------*\
  =========                 |
  \\      /  F ield         | OpenFOAM: The Open Source CFD Toolbox
   \\    /   O peration     | Website:  https://openfoam.org
    \\  /    A nd           | Version:  7
     \\/     M anipulation  |
\*---------------------------------------------------------------------------*/
FoamFile
{
    version     2.0;
    format      ascii;
    class       volVectorField;
    location    "9";
    object      U;
}
// * * * * * * * * * * * * * * * * * * * * * * * * * * * * * * * * * * * * * //

dimensions      [0 1 -1 0 0 0 0];

internalField   nonuniform List<vector> 
3700
(
(1.48678 -0.571079 0)
(1.30995 -0.642259 0)
(1.24548 -0.375224 0)
(1.29946 -0.268852 0)
(1.47117 -0.388207 0)
(1.58756 -0.441749 0)
(1.48504 -0.292004 0)
(1.45802 -0.0725267 0)
(1.52237 -0.0567889 0)
(1.55725 -0.122926 0)
(1.57759 -0.239502 0)
(1.54756 -0.235305 0)
(1.5444 -0.14514 0)
(1.61939 -0.10131 0)
(1.70843 -0.14597 0)
(1.76005 -0.221905 0)
(1.80534 -0.293398 0)
(1.82305 -0.288447 0)
(1.79366 -0.246417 0)
(1.80785 -0.167519 0)
(1.54487 -1.46667 0)
(1.51287 -1.57662 0)
(1.55733 -1.51649 0)
(1.67399 -1.40596 0)
(1.78629 -1.55261 0)
(1.79133 -1.67452 0)
(1.64636 -1.34476 0)
(1.60121 -0.929199 0)
(1.71214 -0.922635 0)
(1.82899 -1.04901 0)
(1.88857 -1.3188 0)
(1.86407 -1.31535 0)
(1.84788 -1.1785 0)
(1.91657 -1.14655 0)
(2.04839 -1.18703 0)
(2.19097 -1.28118 0)
(2.27566 -1.2927 0)
(2.29296 -1.22022 0)
(2.30541 -1.11852 0)
(2.34737 -1.04792 0)
(1.40426 -1.47869 0)
(1.5652 -1.71052 0)
(1.69926 -1.8898 0)
(1.79865 -2.07658 0)
(1.86885 -2.19098 0)
(1.91271 -2.25079 0)
(1.94231 -2.21516 0)
(1.96653 -2.14979 0)
(1.9542 -2.14681 0)
(2.08542 -2.09713 0)
(2.19564 -2.06754 0)
(2.25358 -2.04435 0)
(2.31554 -1.95277 0)
(2.30414 -1.93584 0)
(2.32202 -1.85503 0)
(2.36481 -1.80742 0)
(2.43368 -1.748 0)
(2.51347 -1.6517 0)
(2.61052 -1.59446 0)
(2.73049 -1.49603 0)
(1.40632 -1.54627 0)
(1.58171 -1.77596 0)
(1.78311 -2.07476 0)
(1.87608 -2.26213 0)
(1.94516 -2.32698 0)
(1.96677 -2.33363 0)
(2.00285 -2.15939 0)
(1.99003 -2.03188 0)
(1.95903 -1.99958 0)
(2.13887 -1.92668 0)
(2.33378 -1.74079 0)
(2.46842 -1.72105 0)
(2.58404 -1.63943 0)
(2.58534 -1.67869 0)
(2.57506 -1.66319 0)
(2.52845 -1.6735 0)
(2.51109 -1.6461 0)
(2.54017 -1.49264 0)
(2.59602 -1.46886 0)
(2.69929 -1.27065 0)
(1.46661 -1.6115 0)
(1.70028 -1.85789 0)
(1.93555 -2.19192 0)
(2.04218 -2.29409 0)
(2.20028 -2.28654 0)
(2.1285 -2.36465 0)
(2.14537 -2.11175 0)
(2.0346 -2.04951 0)
(1.99099 -2.01251 0)
(2.10633 -1.92212 0)
(2.23761 -1.77883 0)
(2.42994 -1.68157 0)
(2.52448 -1.55559 0)
(2.67247 -1.42013 0)
(2.75077 -1.27925 0)
(2.75062 -1.24091 0)
(2.70062 -1.31173 0)
(2.69208 -1.2265 0)
(2.63021 -1.31926 0)
(2.64764 -1.19753 0)
(1.55386 -1.65419 0)
(1.91562 -1.88549 0)
(2.02884 -2.26014 0)
(2.11913 -2.33814 0)
(2.27216 -2.25648 0)
(2.26327 -2.28822 0)
(2.33519 -1.97724 0)
(2.22219 -1.97258 0)
(2.223 -1.9556 0)
(2.26468 -1.85306 0)
(2.3119 -1.76537 0)
(2.41725 -1.64983 0)
(2.48661 -1.50366 0)
(2.61032 -1.41499 0)
(2.68987 -1.28565 0)
(2.76493 -1.0736 0)
(2.82979 -0.945446 0)
(2.84159 -0.815185 0)
(2.75912 -0.861007 0)
(2.69411 -0.907537 0)
(1.72462 -1.7225 0)
(2.01511 -1.89891 0)
(1.92764 -2.30429 0)
(2.05169 -2.37167 0)
(2.2123 -2.23207 0)
(2.26707 -2.22187 0)
(2.36008 -1.91077 0)
(2.37561 -1.8238 0)
(2.4793 -1.76751 0)
(2.54422 -1.66238 0)
(2.51033 -1.676 0)
(2.5556 -1.52563 0)
(2.5582 -1.39966 0)
(2.59671 -1.31049 0)
(2.64087 -1.18286 0)
(2.69014 -1.05013 0)
(2.77321 -0.933204 0)
(2.82151 -0.718257 0)
(2.83231 -0.543746 0)
(2.74877 -0.484262 0)
(1.86665 -1.77792 0)
(1.90436 -1.97204 0)
(1.80845 -2.33248 0)
(1.83813 -2.29678 0)
(1.99943 -2.12969 0)
(2.16031 -1.82504 0)
(2.27124 -1.79677 0)
(2.4246 -1.65192 0)
(2.58145 -1.57721 0)
(2.69574 -1.34865 0)
(2.71275 -1.39786 0)
(2.7515 -1.20057 0)
(2.70465 -1.17882 0)
(2.69597 -1.09147 0)
(2.69367 -0.981544 0)
(2.68998 -0.881832 0)
(2.70628 -0.809598 0)
(2.76626 -0.718482 0)
(2.76063 -0.510437 0)
(2.74688 -0.333077 0)
(1.83173 -1.7839 0)
(1.73663 -2.00772 0)
(1.69556 -2.28378 0)
(1.75801 -2.21277 0)
(1.90608 -2.02856 0)
(2.04748 -1.76185 0)
(2.09866 -1.74431 0)
(2.22228 -1.59523 0)
(2.38975 -1.49297 0)
(2.53699 -1.2427 0)
(2.65225 -1.04544 0)
(2.73214 -0.831954 0)
(2.75311 -0.736207 0)
(2.7687 -0.644484 0)
(2.77058 -0.575464 0)
(2.74601 -0.544775 0)
(2.72132 -0.48194 0)
(2.72734 -0.521986 0)
(2.70592 -0.406585 0)
(2.66735 -0.188297 0)
(1.6762 -1.70232 0)
(1.59796 -1.87501 0)
(1.49947 -2.04205 0)
(1.73068 -1.96342 0)
(1.89948 -1.9112 0)
(2.02875 -1.68884 0)
(2.06266 -1.70102 0)
(2.20663 -1.50561 0)
(2.28516 -1.39625 0)
(2.38585 -1.29654 0)
(2.51864 -1.0789 0)
(2.62582 -0.881581 0)
(2.6771 -0.622533 0)
(2.74535 -0.463671 0)
(2.72214 -0.227084 0)
(2.71337 -0.165317 0)
(2.70098 -0.075142 0)
(2.67605 -0.156395 0)
(2.65452 -0.178314 0)
(2.61474 -0.051973 0)
(1.51102 -1.50805 0)
(1.55324 -1.61091 0)
(1.60596 -1.70499 0)
(1.75479 -1.75763 0)
(1.89391 -1.76504 0)
(2.09902 -1.56645 0)
(2.20476 -1.5526 0)
(2.38163 -1.32044 0)
(2.44085 -1.1906 0)
(2.45273 -1.14386 0)
(2.51548 -0.94125 0)
(2.57331 -0.777301 0)
(2.60413 -0.576077 0)
(2.67734 -0.449001 0)
(2.64844 -0.196039 0)
(2.66592 -0.0640654 0)
(2.62908 0.140214 0)
(2.59112 0.17767 0)
(2.53669 0.196624 0)
(2.57833 0.0700273 0)
(1.34457 -1.31357 0)
(1.50526 -1.3813 0)
(1.79602 -1.48647 0)
(1.81551 -1.73876 0)
(1.9131 -1.70331 0)
(2.17701 -1.54259 0)
(2.37197 -1.34824 0)
(2.54449 -0.920052 0)
(2.65815 -0.654586 0)
(2.66057 -0.621682 0)
(2.66041 -0.456323 0)
(2.65555 -0.331777 0)
(2.6371 -0.224041 0)
(2.6344 -0.141459 0)
(2.58919 -0.00971713 0)
(2.58312 0.042796 0)
(2.55085 0.167525 0)
(2.50053 0.30899 0)
(2.43199 0.409642 0)
(2.44895 0.35252 0)
(1.19781 -1.15057 0)
(1.38414 -1.22032 0)
(1.78016 -1.36093 0)
(1.86908 -1.7885 0)
(2.30563 -1.41729 0)
(2.51769 -1.47248 0)
(2.70567 -0.974022 0)
(2.72567 -0.544685 0)
(2.70868 -0.458792 0)
(2.66528 -0.177939 0)
(2.65535 -0.0306671 0)
(2.60593 0.142069 0)
(2.58648 0.224904 0)
(2.53995 0.326646 0)
(2.49581 0.378068 0)
(2.45889 0.382174 0)
(2.43286 0.379379 0)
(2.39769 0.428006 0)
(2.31526 0.559948 0)
(2.30298 0.553992 0)
(1.03289 -1.03439 0)
(1.29166 -1.16224 0)
(1.79746 -1.23341 0)
(2.20416 -1.75528 0)
(2.62342 -1.01371 0)
(2.4223 -1.23352 0)
(2.50167 -0.848929 0)
(2.52871 -0.530423 0)
(2.5215 -0.387955 0)
(2.53518 -0.176426 0)
(2.54458 0.0267349 0)
(2.49135 0.25545 0)
(2.47152 0.397174 0)
(2.3968 0.553889 0)
(2.33619 0.64923 0)
(2.28569 0.683122 0)
(2.23161 0.723231 0)
(2.2321 0.693755 0)
(2.19216 0.734358 0)
(2.14408 0.771487 0)
(0.841074 -0.907343 0)
(1.30879 -1.2135 0)
(2.24979 -0.87081 0)
(2.28937 -1.32873 0)
(2.40733 -1.00864 0)
(2.41523 -0.820561 0)
(2.46138 -0.471539 0)
(2.47083 -0.222332 0)
(2.43828 0.0201368 0)
(2.45076 0.156653 0)
(2.40066 0.346237 0)
(2.34096 0.498251 0)
(2.30246 0.597004 0)
(2.23952 0.701551 0)
(2.18045 0.77711 0)
(2.12517 0.827087 0)
(2.06346 0.899546 0)
(2.04675 0.918097 0)
(2.03659 0.936375 0)
(2.06265 0.951396 0)
(0.879039 -0.664957 0)
(1.38104 -1.28699 0)
(2.38786 -0.985816 0)
(2.20209 -0.904467 0)
(2.33116 -0.737698 0)
(2.42403 -0.103107 0)
(2.44184 0.195236 0)
(2.39064 0.38765 0)
(2.32688 0.501069 0)
(2.29767 0.633634 0)
(2.19343 0.779872 0)
(2.1182 0.875066 0)
(2.07042 0.918893 0)
(2.02445 0.962045 0)
(1.9946 0.960854 0)
(1.95842 0.982781 0)
(1.95425 1.01397 0)
(1.96912 0.997103 0)
(1.99359 0.99712 0)
(2.07017 0.979578 0)
(1.03282 -0.475385 0)
(2.007 -0.0936447 0)
(2.08433 -0.95401 0)
(2.30152 -0.0193866 0)
(2.36261 0.180842 0)
(2.35066 0.347025 0)
(2.30201 0.531102 0)
(2.20239 0.709933 0)
(2.13964 0.787689 0)
(2.08485 0.910516 0)
(1.96891 1.01232 0)
(1.90881 1.06809 0)
(1.87899 1.0864 0)
(1.86867 1.0921 0)
(1.87279 1.05659 0)
(1.89702 1.04859 0)
(1.9612 1.02158 0)
(2.16459 0.902404 0)
(2.38255 0.790781 0)
(2.7786 0.440806 0)
(1.14868 -0.0868071 0)
(1.89066 -0.197217 0)
(2.22767 0.324644 0)
(2.24312 0.474048 0)
(2.19286 0.646449 0)
(2.14016 0.780246 0)
(2.04271 0.911738 0)
(1.97878 0.95885 0)
(1.91309 1.03013 0)
(1.85493 1.12031 0)
(1.78576 1.15461 0)
(1.78717 1.15075 0)
(1.80903 1.1311 0)
(1.85378 1.08718 0)
(2.0423 0.950538 0)
(2.25646 0.830632 0)
(2.66124 0.50705 0)
(3.03597 0.0931166 0)
(3.05545 -0.0239338 0)
(3.00403 -0.00467558 0)
(1.00388 0.0359882 0)
(1.92257 0.767813 0)
(2.11625 0.809233 0)
(1.98175 0.982653 0)
(1.95016 0.981451 0)
(1.88295 1.06848 0)
(1.80176 1.1299 0)
(1.76364 1.14742 0)
(1.75904 1.16407 0)
(1.73391 1.20299 0)
(1.70952 1.19669 0)
(1.85409 1.07367 0)
(2.09612 0.888814 0)
(2.50672 0.578506 0)
(2.99057 0.134613 0)
(3.07414 -0.0299002 0)
(3.00813 -0.0077162 0)
(3.00292 -0.00385524 0)
(3.00122 -0.00220416 0)
(3.00008 -0.000484845 0)
(1.16696 0.76094 0)
(1.83036 1.14725 0)
(1.83074 1.15715 0)
(1.73298 1.19263 0)
(1.71181 1.18855 0)
(1.66901 1.23988 0)
(1.66375 1.21166 0)
(1.73192 1.16573 0)
(1.76569 1.22523 0)
(1.79206 1.13642 0)
(2.26436 0.740473 0)
(2.85221 0.212863 0)
(3.09646 -0.0265861 0)
(3.02101 -0.0124951 0)
(3.00428 -0.00525332 0)
(3.00179 -0.00292455 0)
(3.00006 -0.000582511 0)
(2.99998 -2.43752e-05 0)
(2.99999 1.43834e-05 0)
(3 5.92043e-06 0)
(1.57534 1.25765 0)
(1.58133 1.26537 0)
(1.58438 1.27272 0)
(1.59169 1.26307 0)
(1.6087 1.24329 0)
(1.60457 1.26548 0)
(1.92361 1.165 0)
(2.99107 0.364081 0)
(3.31271 -0.561951 0)
(3 6.04959e-11 0)
(3 -7.28864e-11 0)
(3 7.95894e-11 0)
(3 -1.1513e-15 0)
(3 -4.29088e-13 0)
(3 -1.70764e-14 0)
(3 8.69255e-15 0)
(3 -9.40153e-15 0)
(3 -2.64801e-15 0)
(3 3.02492e-16 0)
(3 -4.75775e-15 0)
(1.58182 1.25205 0)
(1.59239 1.2601 0)
(1.59566 1.27785 0)
(1.59509 1.28482 0)
(1.65821 1.26363 0)
(1.72213 1.24082 0)
(2.27585 0.748524 0)
(2.99713 0.0159955 0)
(3 5.38439e-08 0)
(3 -3.14879e-11 0)
(3 -1.33717e-14 0)
(3 -1.44459e-15 0)
(3 -4.69488e-15 0)
(3 -2.39293e-15 0)
(3 -4.10137e-15 0)
(3 -3.96457e-15 0)
(3 -2.2222e-15 0)
(3 -2.20077e-15 0)
(3 -3.49369e-15 0)
(3 -3.64999e-15 0)
(1.58813 1.25051 0)
(1.60651 1.25457 0)
(1.61365 1.26185 0)
(1.595 1.29124 0)
(1.67751 1.23659 0)
(2.18672 0.811554 0)
(2.9847 0.00921605 0)
(3.00054 -0.00101508 0)
(3 7.0179e-07 0)
(3 6.09276e-11 0)
(3 -1.04991e-14 0)
(3 -3.21128e-15 0)
(3 -3.10755e-15 0)
(3 -4.5155e-15 0)
(3 -3.8305e-15 0)
(3 -1.20607e-15 0)
(3 -2.4687e-15 0)
(3 -3.23207e-15 0)
(3 -4.57719e-15 0)
(3 -4.32588e-15 0)
(1.5873 1.25335 0)
(1.61072 1.25536 0)
(1.62613 1.2537 0)
(1.64012 1.26792 0)
(1.85765 1.08209 0)
(2.74822 0.212017 0)
(3.00537 -0.00270915 0)
(2.9999 9.48437e-05 0)
(3 -8.86268e-07 0)
(3 8.94512e-10 0)
(3 -8.77332e-15 0)
(3 -2.42791e-15 0)
(3 -3.05889e-15 0)
(3 -3.87411e-15 0)
(3 -3.24005e-15 0)
(3 -1.35581e-15 0)
(3 -2.58668e-15 0)
(3 -4.61987e-15 0)
(3 -4.99482e-15 0)
(3 -4.77729e-15 0)
(1.58603 1.26435 0)
(1.59717 1.26031 0)
(1.62531 1.24731 0)
(1.7438 1.19497 0)
(2.38441 0.625599 0)
(3.01902 -0.0174915 0)
(2.99976 0.000191631 0)
(3 -4.42223e-06 0)
(3 8.62027e-08 0)
(3 -9.21631e-10 0)
(3 1.57529e-13 0)
(3 -1.37282e-15 0)
(3 -2.27528e-15 0)
(3 -3.30837e-15 0)
(3 -1.66067e-15 0)
(3 -2.08027e-15 0)
(3 -3.93696e-15 0)
(3 -5.46467e-15 0)
(3 -5.2588e-15 0)
(3 -5.52714e-15 0)
(1.58287 1.27508 0)
(1.57875 1.26948 0)
(1.62871 1.26316 0)
(1.76433 1.16931 0)
(2.68845 0.272272 0)
(3 -5.93564e-10 0)
(3 1.44103e-08 0)
(3 -1.30376e-08 0)
(3 5.69159e-10 0)
(3 3.2002e-12 0)
(3 -9.60983e-14 0)
(3 3.90308e-16 0)
(3 -1.75975e-15 0)
(3 -2.37225e-15 0)
(3 -1.30006e-15 0)
(3 -2.3395e-15 0)
(3 -3.76328e-15 0)
(3 -5.60058e-15 0)
(3 -5.91075e-15 0)
(3 -6.51354e-15 0)
(1.57924 1.29487 0)
(1.55676 1.29144 0)
(1.66953 1.24267 0)
(2.14884 0.848244 0)
(3.01127 -0.0115537 0)
(3 -4.99192e-12 0)
(3 -1.18709e-11 0)
(3 1.75671e-11 0)
(3 -2.84035e-12 0)
(3 6.20387e-15 0)
(3 -6.74724e-16 0)
(3 -9.69364e-16 0)
(3 -1.18185e-15 0)
(3 -1.75629e-15 0)
(3 -1.19762e-15 0)
(3 -1.51122e-15 0)
(3 -2.77747e-15 0)
(3 -4.79193e-15 0)
(3 -5.75595e-15 0)
(3 -6.86912e-15 0)
(1.58736 1.32191 0)
(1.50384 1.32882 0)
(1.79237 1.17888 0)
(2.45033 0.532727 0)
(3 -5.55727e-05 0)
(3 -2.00231e-12 0)
(3 3.3894e-14 0)
(3 -4.55599e-14 0)
(3 1.27105e-14 0)
(3 -8.00144e-16 0)
(3 -9.50643e-16 0)
(3 -9.88806e-16 0)
(3 -1.04645e-15 0)
(3 -1.09117e-15 0)
(3 -1.39299e-15 0)
(3 -1.95993e-15 0)
(3 -1.78288e-15 0)
(3 -3.9243e-15 0)
(3 -4.02598e-15 0)
(3 -5.63176e-15 0)
(1.59093 1.30865 0)
(1.46596 1.36435 0)
(1.90882 1.0519 0)
(2.84357 0.135022 0)
(3 -1.94163e-08 0)
(3 1.14715e-12 0)
(3 -2.328e-15 0)
(3 -8.79883e-16 0)
(3 -9.03278e-16 0)
(3 -2.00901e-17 0)
(3 -6.58038e-16 0)
(3 -7.19344e-16 0)
(3 -7.06729e-16 0)
(3 -7.15046e-16 0)
(3 -1.14224e-15 0)
(3 -1.7177e-15 0)
(3 -3.31363e-15 0)
(3 -4.41056e-15 0)
(3 -5.53795e-15 0)
(3 -5.48363e-15 0)
(1.60504 1.29499 0)
(1.47954 1.37794 0)
(2.1758 0.81385 0)
(3.01089 -0.00926775 0)
(3 2.46344e-08 0)
(3 -2.24135e-13 0)
(3 -5.3389e-15 0)
(3 -3.29936e-16 0)
(3 7.68183e-17 0)
(3 9.17933e-17 0)
(3 -5.27903e-16 0)
(3 -7.53976e-16 0)
(3 -2.25684e-16 0)
(3 -3.95276e-16 0)
(3 -6.18493e-16 0)
(3 -1.57993e-15 0)
(3 -3.57872e-15 0)
(3 -4.07718e-15 0)
(3 -5.25274e-15 0)
(3 -4.83283e-15 0)
(1.6221 1.27977 0)
(1.57597 1.31165 0)
(2.41991 0.53466 0)
(3 -3.3829e-12 0)
(3 -1.98772e-11 0)
(3 4.7597e-14 0)
(3 1.47691e-16 0)
(3 5.26437e-16 0)
(3 5.65438e-16 0)
(3 6.75622e-16 0)
(3 1.15243e-15 0)
(3 5.18352e-16 0)
(3 8.92865e-16 0)
(3 1.79354e-16 0)
(3 -8.04605e-18 0)
(3 -8.48054e-16 0)
(3 -1.99315e-15 0)
(3 -2.97461e-15 0)
(3 -3.94408e-15 0)
(3 -4.64142e-15 0)
(1.63919 1.25986 0)
(1.62436 1.24985 0)
(2.65187 0.289197 0)
(3 5.18529e-13 0)
(3 -2.70514e-14 0)
(3 1.40891e-15 0)
(3 1.76868e-15 0)
(3 1.0758e-15 0)
(3 1.03071e-15 0)
(3 1.66512e-15 0)
(3 2.63778e-15 0)
(3 2.80114e-15 0)
(3 2.72899e-15 0)
(3 1.86345e-15 0)
(3 1.46761e-15 0)
(3 1.95342e-15 0)
(3 2.19123e-16 0)
(3 -5.81299e-16 0)
(3 -1.47923e-15 0)
(3 -2.31438e-15 0)
(1.65691 1.23884 0)
(1.83225 1.10042 0)
(2.87821 0.0907874 0)
(3 -4.75949e-13 0)
(3 3.8895e-15 0)
(3 3.34902e-15 0)
(3 2.66788e-15 0)
(3 1.76915e-15 0)
(3 9.80072e-16 0)
(3 1.1962e-15 0)
(3 1.66994e-15 0)
(3 2.31534e-15 0)
(3 1.90009e-15 0)
(3 1.22915e-15 0)
(3 1.13406e-15 0)
(3 1.54729e-15 0)
(3 1.46755e-15 0)
(3 4.25014e-16 0)
(3 -4.08458e-16 0)
(3 -4.70876e-16 0)
(1.67284 1.19629 0)
(1.89312 0.98231 0)
(2.99226 0.0065993 0)
(3 2.31457e-15 0)
(3 3.52994e-15 0)
(3 3.87905e-15 0)
(3 3.19009e-15 0)
(3 2.39319e-15 0)
(3 1.46207e-15 0)
(3 8.89822e-16 0)
(3 1.33884e-15 0)
(3 2.62591e-15 0)
(3 2.45369e-15 0)
(3 1.92974e-15 0)
(3 1.7368e-15 0)
(3 2.2141e-15 0)
(3 2.02609e-15 0)
(3 1.2181e-15 0)
(3 7.1673e-16 0)
(3 3.94561e-16 0)
(1.68857 1.17533 0)
(2.03506 0.830775 0)
(3 4.1795e-16 0)
(3 1.08216e-15 0)
(3 2.37476e-15 0)
(3 2.61436e-15 0)
(3 2.50692e-15 0)
(3 1.72611e-15 0)
(3 5.11746e-16 0)
(3 4.59434e-16 0)
(3 7.71144e-16 0)
(3 1.88394e-15 0)
(3 2.42878e-15 0)
(3 2.40331e-15 0)
(3 2.30253e-15 0)
(3 2.37091e-15 0)
(3 2.44195e-15 0)
(3 2.08329e-15 0)
(3 1.85122e-15 0)
(3 1.42741e-15 0)
(1.77277 1.10652 0)
(2.23361 0.647504 0)
(3 1.13529e-16 0)
(3 -1.28126e-16 0)
(3 9.04089e-16 0)
(3 8.63577e-16 0)
(3 4.97068e-17 0)
(3 -8.29364e-16 0)
(3 -2.37504e-15 0)
(3 -1.32209e-15 0)
(3 3.36164e-16 0)
(3 1.02651e-15 0)
(3 7.06229e-16 0)
(3 1.40417e-15 0)
(3 1.7044e-15 0)
(3 1.73151e-15 0)
(3 2.57043e-15 0)
(3 2.83074e-15 0)
(3 2.88384e-15 0)
(3 2.8928e-15 0)
(1.84501 1.00472 0)
(2.47079 0.432048 0)
(3 -1.60844e-15 0)
(3 -6.51175e-16 0)
(3 -1.41972e-17 0)
(3 3.20159e-16 0)
(3 4.5703e-16 0)
(3 2.27068e-16 0)
(3 -8.16812e-16 0)
(3 -1.23371e-15 0)
(3 -3.91094e-16 0)
(3 2.00721e-16 0)
(3 8.06667e-16 0)
(3 1.8483e-15 0)
(3 2.71632e-15 0)
(3 2.94068e-15 0)
(3 2.8604e-15 0)
(3 2.99404e-15 0)
(3 3.11131e-15 0)
(3 2.79685e-15 0)
(1.92904 0.866394 0)
(2.71626 0.203305 0)
(3 -3.18556e-16 0)
(3 -1.7456e-17 0)
(3 9.23976e-16 0)
(3 1.70759e-15 0)
(3 1.60085e-15 0)
(3 8.75078e-16 0)
(3 3.07216e-16 0)
(3 -1.7996e-16 0)
(3 -4.97489e-16 0)
(3 4.58293e-16 0)
(3 1.74867e-15 0)
(3 2.88786e-15 0)
(3 3.39015e-15 0)
(3 3.56682e-15 0)
(3 3.93536e-15 0)
(3 4.02373e-15 0)
(3 4.07362e-15 0)
(3 3.9585e-15 0)
(2.08992 0.663072 0)
(2.99134 3.38e-06 0)
(3 -1.28263e-15 0)
(3 3.03812e-16 0)
(3 1.78332e-15 0)
(3 2.16134e-15 0)
(3 2.10172e-15 0)
(3 1.63187e-15 0)
(3 1.62031e-15 0)
(3 1.9336e-15 0)
(3 1.73253e-15 0)
(3 1.29698e-15 0)
(3 3.69602e-16 0)
(3 -6.68448e-16 0)
(3 -1.27937e-15 0)
(3 -1.25871e-15 0)
(3 -1.08016e-15 0)
(3 -7.31779e-16 0)
(3 5.52702e-16 0)
(3 2.3739e-15 0)
(1.99164 0.373183 0)
(2.99987 -1.06198e-05 0)
(3 -6.74155e-16 0)
(3 2.73139e-16 0)
(3 1.33145e-15 0)
(3 1.86799e-15 0)
(3 1.62766e-15 0)
(3 1.10194e-15 0)
(3 5.41983e-16 0)
(3 -3.58644e-18 0)
(3 -6.84285e-16 0)
(3 -8.55889e-16 0)
(3 -7.19487e-16 0)
(3 -6.81403e-16 0)
(3 -6.34807e-16 0)
(3 -5.67202e-16 0)
(3 -6.58107e-16 0)
(3 -7.76706e-16 0)
(3 -6.20124e-16 0)
(3 -1.76009e-16 0)
(1.99234 -0.372812 0)
(2.99988 6.41764e-06 0)
(3 1.64689e-15 0)
(3 2.06884e-15 0)
(3 2.02899e-15 0)
(3 1.8625e-15 0)
(3 1.85699e-15 0)
(3 1.59151e-15 0)
(3 1.43717e-15 0)
(3 1.35203e-15 0)
(3 1.19385e-15 0)
(3 9.76135e-16 0)
(3 8.50547e-16 0)
(3 1.01027e-15 0)
(3 1.1785e-15 0)
(3 1.22002e-15 0)
(3 1.35933e-15 0)
(3 1.52695e-15 0)
(3 1.63792e-15 0)
(3 1.54413e-15 0)
(2.09394 -0.664636 0)
(2.99078 -1.15323e-05 0)
(3 1.89803e-17 0)
(3 2.97107e-16 0)
(3 3.758e-16 0)
(3 1.68259e-16 0)
(3 5.29775e-16 0)
(3 8.2939e-16 0)
(3 1.18692e-15 0)
(3 1.31716e-15 0)
(3 9.5098e-16 0)
(3 8.97624e-16 0)
(3 9.11507e-16 0)
(3 1.39948e-15 0)
(3 1.84148e-15 0)
(3 2.22663e-15 0)
(3 2.58842e-15 0)
(3 2.71922e-15 0)
(3 2.75019e-15 0)
(3 2.47084e-15 0)
(1.92591 -0.869379 0)
(2.70946 -0.208212 0)
(3 9.89558e-16 0)
(3 6.38424e-16 0)
(3 5.72815e-16 0)
(3 5.18368e-16 0)
(3 4.31275e-16 0)
(3 -7.58204e-17 0)
(3 -4.52048e-17 0)
(3 -2.50167e-16 0)
(3 -2.10856e-16 0)
(3 -2.24552e-16 0)
(3 -5.77035e-17 0)
(3 3.00611e-16 0)
(3 6.28831e-16 0)
(3 1.11126e-15 0)
(3 1.46826e-15 0)
(3 1.48478e-15 0)
(3 1.1805e-15 0)
(3 8.65524e-16 0)
(1.83689 -1.00246 0)
(2.46845 -0.43214 0)
(3 3.51459e-15 0)
(3 3.10208e-15 0)
(3 2.85027e-15 0)
(3 2.71428e-15 0)
(3 2.35421e-15 0)
(3 2.04829e-15 0)
(3 2.18736e-15 0)
(3 2.49218e-15 0)
(3 2.78919e-15 0)
(3 3.22717e-15 0)
(3 3.43742e-15 0)
(3 2.95135e-15 0)
(3 2.64772e-15 0)
(3 2.09661e-15 0)
(3 1.33035e-15 0)
(3 5.85062e-16 0)
(3 -1.34072e-16 0)
(3 -1.57045e-16 0)
(1.77767 -1.10694 0)
(2.23781 -0.646948 0)
(3 2.77894e-15 0)
(3 3.30615e-15 0)
(3 3.12448e-15 0)
(3 3.26755e-15 0)
(3 3.7265e-15 0)
(3 4.5724e-15 0)
(3 4.8901e-15 0)
(3 3.71131e-15 0)
(3 3.07024e-15 0)
(3 2.83489e-15 0)
(3 2.59489e-15 0)
(3 2.31644e-15 0)
(3 2.69018e-15 0)
(3 2.65967e-15 0)
(3 1.73969e-15 0)
(3 8.74282e-16 0)
(3 4.25081e-16 0)
(3 -4.8829e-16 0)
(1.69324 -1.17306 0)
(2.04097 -0.826565 0)
(3 3.18888e-15 0)
(3 2.9233e-15 0)
(3 1.50816e-15 0)
(3 1.50737e-15 0)
(3 2.28149e-15 0)
(3 2.72705e-15 0)
(3 2.43669e-15 0)
(3 2.27262e-15 0)
(3 1.64823e-15 0)
(3 1.14382e-15 0)
(3 5.66574e-16 0)
(3 9.22293e-16 0)
(3 8.99772e-16 0)
(3 4.92854e-16 0)
(3 -5.42568e-16 0)
(3 -1.36815e-15 0)
(3 -1.41507e-15 0)
(3 -1.59296e-15 0)
(1.67007 -1.19908 0)
(1.88698 -0.984332 0)
(2.98694 -0.0107431 0)
(3 2.04669e-15 0)
(3 1.35977e-15 0)
(3 9.52199e-16 0)
(3 1.66941e-15 0)
(3 1.83884e-15 0)
(3 1.25673e-15 0)
(3 1.08754e-15 0)
(3 7.76519e-16 0)
(3 2.5468e-16 0)
(3 -4.06365e-16 0)
(3 -7.93581e-16 0)
(3 -1.3114e-15 0)
(3 -2.25406e-15 0)
(3 -1.85873e-15 0)
(3 -1.3228e-15 0)
(3 -1.34066e-15 0)
(3 -8.83314e-17 0)
(1.65623 -1.23918 0)
(1.83239 -1.10262 0)
(2.87538 -0.0944432 0)
(3 1.79607e-13 0)
(3 8.62299e-16 0)
(3 7.95599e-16 0)
(3 1.48111e-15 0)
(3 1.80799e-15 0)
(3 1.40941e-15 0)
(3 1.14034e-15 0)
(3 9.57749e-16 0)
(3 2.20081e-16 0)
(3 -3.93557e-16 0)
(3 -8.17631e-16 0)
(3 -1.07847e-15 0)
(3 -2.74531e-16 0)
(3 1.26379e-15 0)
(3 2.76789e-15 0)
(3 2.79099e-15 0)
(3 3.45807e-15 0)
(1.63893 -1.25982 0)
(1.6259 -1.24988 0)
(2.6526 -0.289748 0)
(3 -4.60201e-13 0)
(3 9.20027e-15 0)
(3 1.85729e-15 0)
(3 1.67503e-15 0)
(3 1.93067e-15 0)
(3 8.68099e-16 0)
(3 1.24061e-15 0)
(3 1.30656e-15 0)
(3 1.00567e-15 0)
(3 4.68882e-16 0)
(3 1.57116e-16 0)
(3 4.7089e-16 0)
(3 1.12221e-15 0)
(3 2.2263e-15 0)
(3 2.40514e-15 0)
(3 2.88007e-15 0)
(3 2.90819e-15 0)
(1.62178 -1.27912 0)
(1.57245 -1.31458 0)
(2.41649 -0.538984 0)
(3 2.92479e-12 0)
(3 3.00398e-11 0)
(3 -4.95456e-14 0)
(3 1.86889e-15 0)
(3 1.41819e-15 0)
(3 1.58951e-15 0)
(3 1.41517e-15 0)
(3 8.50307e-16 0)
(3 7.36595e-16 0)
(3 4.56186e-16 0)
(3 4.35966e-16 0)
(3 7.7696e-16 0)
(3 1.3648e-15 0)
(3 2.05341e-15 0)
(3 1.8099e-15 0)
(3 3.30516e-15 0)
(3 4.20599e-15 0)
(1.6049 -1.29397 0)
(1.47958 -1.37445 0)
(2.18525 -0.807725 0)
(3.01073 0.00913424 0)
(3 -3.10403e-08 0)
(3 2.00194e-12 0)
(3 -1.39616e-14 0)
(3 2.10347e-15 0)
(3 1.08702e-15 0)
(3 1.01143e-15 0)
(3 9.0547e-16 0)
(3 8.32125e-16 0)
(3 8.21106e-16 0)
(3 3.67889e-16 0)
(3 2.12073e-16 0)
(3 5.57566e-16 0)
(3 2.4639e-15 0)
(3 3.76572e-15 0)
(3 5.22285e-15 0)
(3 6.00107e-15 0)
(1.5907 -1.30858 0)
(1.4666 -1.36667 0)
(1.90966 -1.05114 0)
(2.84373 -0.133174 0)
(3 1.99879e-08 0)
(3 -5.96965e-12 0)
(3 4.83988e-14 0)
(3 1.65208e-15 0)
(3 2.40734e-15 0)
(3 1.51507e-15 0)
(3 1.59518e-15 0)
(3 1.26209e-15 0)
(3 1.34069e-15 0)
(3 1.27124e-15 0)
(3 5.41389e-16 0)
(3 2.07232e-15 0)
(3 5.08379e-15 0)
(3 5.47024e-15 0)
(3 5.53379e-15 0)
(3 5.46717e-15 0)
(1.58917 -1.32298 0)
(1.49868 -1.33112 0)
(1.78171 -1.17821 0)
(2.44231 -0.53593 0)
(3.00001 2.03798e-05 0)
(3 1.25463e-12 0)
(3 -3.65073e-14 0)
(3 7.15289e-14 0)
(3 -1.54015e-14 0)
(3 3.06894e-15 0)
(3 2.49302e-15 0)
(3 2.17532e-15 0)
(3 2.465e-15 0)
(3 1.57538e-15 0)
(3 1.79772e-15 0)
(3 3.86587e-15 0)
(3 5.50922e-15 0)
(3 5.24514e-15 0)
(3 4.94127e-15 0)
(3 4.87415e-15 0)
(1.57921 -1.29618 0)
(1.5607 -1.29521 0)
(1.67599 -1.24174 0)
(2.17294 -0.837532 0)
(3.01812 0.019052 0)
(3 8.98401e-12 0)
(3 1.09098e-11 0)
(3 -2.22421e-11 0)
(3 3.26364e-12 0)
(3 1.20775e-15 0)
(3 1.75313e-15 0)
(3 3.13473e-15 0)
(3 2.59611e-15 0)
(3 1.28224e-15 0)
(3 1.07918e-15 0)
(3 4.31224e-15 0)
(3 5.99363e-15 0)
(3 5.19481e-15 0)
(3 5.08387e-15 0)
(3 4.95994e-15 0)
(1.58237 -1.27488 0)
(1.57846 -1.27043 0)
(1.63232 -1.26332 0)
(1.75417 -1.17859 0)
(2.67455 -0.283741 0)
(3 5.99428e-10 0)
(3 -1.43685e-08 0)
(3 1.29902e-08 0)
(3 -5.65445e-10 0)
(3 -3.1464e-12 0)
(3 9.70857e-14 0)
(3 1.965e-15 0)
(3 1.97098e-15 0)
(3 8.56592e-16 0)
(3 8.20067e-16 0)
(3 4.30782e-15 0)
(3 5.12415e-15 0)
(3 4.81824e-15 0)
(3 5.09957e-15 0)
(3 4.28915e-15 0)
(1.58501 -1.26342 0)
(1.59456 -1.25993 0)
(1.62483 -1.25222 0)
(1.73232 -1.20016 0)
(2.37914 -0.627668 0)
(3.01894 0.0173041 0)
(2.99976 -0.0001879 0)
(3 4.41967e-06 0)
(3 -8.57849e-08 0)
(3 9.24481e-10 0)
(3 -1.48621e-13 0)
(3 2.79394e-15 0)
(3 2.88894e-15 0)
(3 1.92115e-15 0)
(3 1.05915e-15 0)
(3 3.55104e-15 0)
(3 4.07856e-15 0)
(3 4.6291e-15 0)
(3 5.59642e-15 0)
(3 3.76188e-15 0)
(1.58636 -1.25285 0)
(1.60863 -1.25432 0)
(1.62439 -1.25239 0)
(1.64337 -1.26274 0)
(1.87368 -1.07319 0)
(2.75652 -0.206733 0)
(3.00517 0.0024522 0)
(2.9999 -9.34709e-05 0)
(3 9.11618e-07 0)
(3 -8.97853e-10 0)
(3 9.95408e-15 0)
(3 2.86347e-15 0)
(3 3.27834e-15 0)
(3 2.67126e-15 0)
(3 7.91597e-16 0)
(3 2.76474e-15 0)
(3 3.5996e-15 0)
(3 4.29897e-15 0)
(3 4.71212e-15 0)
(3 2.65853e-15 0)
(1.58793 -1.24923 0)
(1.60628 -1.2545 0)
(1.61525 -1.25922 0)
(1.60149 -1.2876 0)
(1.67307 -1.23668 0)
(2.19895 -0.799929 0)
(2.98857 -0.00532427 0)
(3.00053 0.00100634 0)
(3 -7.33132e-07 0)
(3 -6.07492e-11 0)
(3 2.31293e-14 0)
(3 3.65732e-15 0)
(3 3.11681e-15 0)
(3 3.45132e-15 0)
(3 1.35806e-15 0)
(3 1.59368e-15 0)
(3 2.9923e-15 0)
(3 3.3452e-15 0)
(3 3.47268e-15 0)
(3 1.82873e-15 0)
(1.58363 -1.25106 0)
(1.59409 -1.25899 0)
(1.59895 -1.27509 0)
(1.5998 -1.28409 0)
(1.65474 -1.26662 0)
(1.7146 -1.24111 0)
(2.26197 -0.755859 0)
(2.99485 -0.0186539 0)
(3 -5.2183e-08 0)
(3 3.01252e-11 0)
(3 9.19719e-15 0)
(3 3.31301e-15 0)
(3 5.38455e-15 0)
(3 1.70446e-15 0)
(3 1.46895e-15 0)
(3 7.31659e-16 0)
(3 2.17072e-15 0)
(3 2.41215e-15 0)
(3 2.20576e-15 0)
(3 1.90039e-15 0)
(1.57624 -1.25843 0)
(1.58197 -1.26586 0)
(1.58576 -1.273 0)
(1.59251 -1.2643 0)
(1.6063 -1.24577 0)
(1.60113 -1.26663 0)
(1.9209 -1.16938 0)
(2.98789 -0.373005 0)
(3.31151 0.565087 0)
(3 -6.11218e-11 0)
(3 7.28147e-11 0)
(3 -7.89556e-11 0)
(3 2.08558e-15 0)
(3 4.28589e-13 0)
(3 1.75673e-14 0)
(3 -1.62108e-14 0)
(3 1.23764e-14 0)
(3 2.19103e-15 0)
(3 2.53159e-15 0)
(3 3.97668e-15 0)
(1.16625 -0.763249 0)
(1.83214 -1.1466 0)
(1.83122 -1.15865 0)
(1.7337 -1.19378 0)
(1.70952 -1.18938 0)
(1.66764 -1.2401 0)
(1.66245 -1.21141 0)
(1.73201 -1.16585 0)
(1.76824 -1.22539 0)
(1.79651 -1.13567 0)
(2.26744 -0.737959 0)
(2.854 -0.210808 0)
(3.09733 0.0275894 0)
(3.02116 0.0125779 0)
(3.00428 0.00531536 0)
(3.00177 0.00291718 0)
(3.00006 0.000574941 0)
(2.99998 2.36626e-05 0)
(2.99999 -1.43967e-05 0)
(3 -5.92395e-06 0)
(1.00325 -0.0341072 0)
(1.91931 -0.782968 0)
(2.12217 -0.803801 0)
(1.98101 -0.987059 0)
(1.94796 -0.982317 0)
(1.88015 -1.06826 0)
(1.80008 -1.12865 0)
(1.7644 -1.14663 0)
(1.76055 -1.16361 0)
(1.73646 -1.20255 0)
(1.71198 -1.19632 0)
(1.85377 -1.07279 0)
(2.09343 -0.888502 0)
(2.50398 -0.579453 0)
(2.98945 -0.13557 0)
(3.07409 0.0296682 0)
(3.00813 0.00770385 0)
(3.00292 0.00385328 0)
(3.00123 0.00220479 0)
(3.00008 0.000485845 0)
(1.15337 0.0856991 0)
(1.88668 0.239194 0)
(2.22625 -0.350949 0)
(2.24573 -0.476568 0)
(2.19038 -0.652108 0)
(2.13432 -0.784472 0)
(2.04243 -0.907972 0)
(1.97924 -0.957508 0)
(1.91448 -1.03032 0)
(1.85588 -1.12092 0)
(1.78647 -1.15563 0)
(1.7874 -1.15031 0)
(1.80801 -1.13157 0)
(1.85274 -1.08781 0)
(2.0427 -0.950449 0)
(2.25789 -0.829912 0)
(2.66185 -0.506599 0)
(3.03596 -0.0931299 0)
(3.05552 0.0239275 0)
(3.00404 0.00468235 0)
(1.07463 0.463102 0)
(2.00996 0.256804 0)
(2.08138 0.976251 0)
(2.28891 -0.000206384 0)
(2.35634 -0.171613 0)
(2.34855 -0.340778 0)
(2.2985 -0.5358 0)
(2.20116 -0.715534 0)
(2.13979 -0.791861 0)
(2.08573 -0.913642 0)
(1.96913 -1.01348 0)
(1.90816 -1.06897 0)
(1.87795 -1.08727 0)
(1.86794 -1.092 0)
(1.8733 -1.05585 0)
(1.89775 -1.04778 0)
(1.96135 -1.0212 0)
(2.16398 -0.902731 0)
(2.38185 -0.791548 0)
(2.77839 -0.44166 0)
(0.893445 0.628038 0)
(1.46226 1.35464 0)
(2.30952 1.20412 0)
(2.2209 0.863546 0)
(2.32385 0.738806 0)
(2.4222 0.121027 0)
(2.43855 -0.183501 0)
(2.39112 -0.377659 0)
(2.32768 -0.49635 0)
(2.3014 -0.628348 0)
(2.19463 -0.776378 0)
(2.11787 -0.873326 0)
(2.06989 -0.917791 0)
(2.0242 -0.960333 0)
(1.99534 -0.959081 0)
(1.95875 -0.981922 0)
(1.95391 -1.01401 0)
(1.96884 -0.997622 0)
(1.99338 -0.997669 0)
(2.07026 -0.979925 0)
(0.821329 0.847488 0)
(1.32602 1.19536 0)
(2.43175 0.971232 0)
(2.28923 1.39859 0)
(2.42119 0.98583 0)
(2.41321 0.815935 0)
(2.45834 0.484288 0)
(2.4692 0.226518 0)
(2.44015 -0.00762775 0)
(2.45183 -0.151347 0)
(2.40124 -0.342895 0)
(2.3395 -0.498302 0)
(2.30131 -0.597831 0)
(2.23868 -0.702574 0)
(2.18082 -0.777254 0)
(2.12511 -0.827596 0)
(2.06327 -0.899986 0)
(2.04656 -0.918587 0)
(2.03663 -0.936756 0)
(2.06292 -0.951507 0)
(1.0056 0.96915 0)
(1.2974 1.11565 0)
(1.88416 1.24921 0)
(2.26968 1.89035 0)
(2.67457 0.956438 0)
(2.4467 1.22036 0)
(2.52283 0.830286 0)
(2.54126 0.521329 0)
(2.52996 0.378295 0)
(2.54072 0.164565 0)
(2.54755 -0.0371762 0)
(2.49098 -0.265979 0)
(2.47046 -0.404862 0)
(2.3968 -0.55844 0)
(2.33749 -0.649783 0)
(2.28675 -0.682547 0)
(2.23195 -0.722652 0)
(2.23216 -0.693604 0)
(2.19188 -0.735079 0)
(2.14428 -0.771618 0)
(1.13035 1.08573 0)
(1.34639 1.1521 0)
(1.80075 1.35298 0)
(1.85379 1.85392 0)
(2.31385 1.40452 0)
(2.5364 1.46446 0)
(2.71446 0.952713 0)
(2.72981 0.533383 0)
(2.71004 0.427414 0)
(2.66883 0.169702 0)
(2.65668 0.021657 0)
(2.60679 -0.14651 0)
(2.58624 -0.227192 0)
(2.54169 -0.32337 0)
(2.49718 -0.373626 0)
(2.45898 -0.379368 0)
(2.43207 -0.378199 0)
(2.39657 -0.428834 0)
(2.31491 -0.560823 0)
(2.30264 -0.554982 0)
(1.25142 1.265 0)
(1.42008 1.34425 0)
(1.75514 1.49998 0)
(1.81809 1.80104 0)
(1.91946 1.70476 0)
(2.16759 1.51911 0)
(2.35515 1.33702 0)
(2.53387 0.923674 0)
(2.64114 0.673075 0)
(2.65133 0.639561 0)
(2.65518 0.468648 0)
(2.65134 0.341401 0)
(2.6339 0.232282 0)
(2.63277 0.150051 0)
(2.58704 0.0140932 0)
(2.5811 -0.0411011 0)
(2.54857 -0.168917 0)
(2.49957 -0.309422 0)
(2.43193 -0.410001 0)
(2.44983 -0.35127 0)
(1.43697 1.48517 0)
(1.45647 1.60397 0)
(1.54424 1.76443 0)
(1.77818 1.78186 0)
(1.89883 1.78992 0)
(2.10099 1.5535 0)
(2.18775 1.57759 0)
(2.36263 1.33861 0)
(2.42177 1.20492 0)
(2.44288 1.14427 0)
(2.50863 0.944316 0)
(2.56831 0.778793 0)
(2.60202 0.578536 0)
(2.6761 0.449748 0)
(2.64718 0.194839 0)
(2.66452 0.0621609 0)
(2.62795 -0.142562 0)
(2.59065 -0.179238 0)
(2.53791 -0.195153 0)
(2.57837 -0.0730118 0)
(1.65234 1.68168 0)
(1.55418 1.86819 0)
(1.48769 2.0834 0)
(1.7395 1.96337 0)
(1.88628 1.94908 0)
(2.02222 1.6819 0)
(2.06148 1.69801 0)
(2.19751 1.49593 0)
(2.28067 1.39985 0)
(2.38506 1.29443 0)
(2.52013 1.07272 0)
(2.62777 0.87475 0)
(2.68064 0.61909 0)
(2.74765 0.458764 0)
(2.72447 0.223455 0)
(2.71475 0.161709 0)
(2.70195 0.0728929 0)
(2.67766 0.15668 0)
(2.65477 0.176464 0)
(2.6171 0.0548764 0)
(1.83174 1.72773 0)
(1.75537 1.96702 0)
(1.70751 2.27326 0)
(1.74327 2.20136 0)
(1.90096 2.01411 0)
(2.06186 1.74745 0)
(2.10969 1.74384 0)
(2.23914 1.58876 0)
(2.40511 1.49425 0)
(2.54731 1.23455 0)
(2.65939 1.04516 0)
(2.73936 0.832706 0)
(2.76203 0.742311 0)
(2.77667 0.649808 0)
(2.77606 0.578848 0)
(2.74872 0.546589 0)
(2.72247 0.48448 0)
(2.72939 0.524208 0)
(2.70587 0.404991 0)
(2.6698 0.190929 0)
(1.85326 1.69193 0)
(1.94782 1.887 0)
(1.83189 2.31868 0)
(1.85575 2.29242 0)
(2.01604 2.12513 0)
(2.16935 1.84896 0)
(2.28388 1.8171 0)
(2.43081 1.67796 0)
(2.57973 1.60165 0)
(2.69996 1.3582 0)
(2.71252 1.40815 0)
(2.75144 1.20957 0)
(2.70627 1.18435 0)
(2.69837 1.09615 0)
(2.69555 0.982283 0)
(2.69125 0.881335 0)
(2.70735 0.80833 0)
(2.76852 0.716996 0)
(2.76111 0.506996 0)
(2.74468 0.326666 0)
(1.71312 1.62499 0)
(2.04374 1.81527 0)
(1.97489 2.30152 0)
(2.04611 2.39268 0)
(2.23032 2.23492 0)
(2.27027 2.23579 0)
(2.36441 1.91686 0)
(2.38235 1.82601 0)
(2.48034 1.76923 0)
(2.53549 1.671 0)
(2.50404 1.67581 0)
(2.55062 1.52492 0)
(2.55738 1.39708 0)
(2.59834 1.30732 0)
(2.64279 1.17899 0)
(2.69263 1.04681 0)
(2.775 0.928657 0)
(2.82355 0.714361 0)