/*--------------------------------*- C++ -*----------------------------------*\
  =========                 |
  \\      /  F ield         | OpenFOAM: The Open Source CFD Toolbox
   \\    /   O peration     | Website:  https://openfoam.org
    \\  /    A nd           | Version:  7
     \\/     M anipulation  |
\*---------------------------------------------------------------------------*/
FoamFile
{
    version     2.0;
    format      ascii;
    class       volScalarField;
    location    "10";
    object      p;
}
// * * * * * * * * * * * * * * * * * * * * * * * * * * * * * * * * * * * * * //

dimensions      [1 -1 -2 0 0 0 0];

internalField   nonuniform List<scalar> 
3700
(
0.152492
0.25194
0.311922
0.36678
0.38775
0.386588
0.382662
0.391573
0.397962
0.423879
0.43897
0.456718
0.469847
0.473214
0.494213
0.501638
0.514934
0.517972
0.511
0.520169
0.0945553
0.112815
0.134694
0.138799
0.125504
0.112421
0.109669
0.112134
0.101016
0.10999
0.141789
0.176781
0.195891
0.192957
0.193737
0.199792
0.207673
0.20105
0.193998
0.194312
0.0739972
0.0824482
0.0826747
0.0736392
0.0584485
0.045791
0.0467423
0.0511432
0.0569656
0.0662857
0.0798314
0.0892537
0.0968235
0.101484
0.103315
0.105571
0.107488
0.109581
0.1148
0.130012
0.0627955
0.0734421
0.0757215
0.0674251
0.0504534
0.0456715
0.0468635
0.0504552
0.0554527
0.0658091
0.0819652
0.0956947
0.113544
0.130721
0.141049
0.153917
0.15406
0.151363
0.150831
0.165115
0.0557279
0.0649142
0.0621205
0.0526629
0.0498073
0.0580132
0.0627148
0.0616641
0.0643088
0.0760439
0.083076
0.0945181
0.115834
0.140412
0.160389
0.182143
0.196344
0.205244
0.205
0.212279
0.0492192
0.0570621
0.0541737
0.0495066
0.0592841
0.0707705
0.0800747
0.0868999
0.0980611
0.119563
0.112685
0.115661
0.122283
0.143807
0.170954
0.199616
0.229867
0.259191
0.283283
0.309718
0.0439923
0.0517184
0.0517685
0.0523117
0.061429
0.0762259
0.0851906
0.102997
0.130926
0.157166
0.16565
0.176152
0.178589
0.189869
0.199591
0.221015
0.256623
0.306224
0.349716
0.419074
0.0415025
0.0498938
0.0529023
0.0523333
0.0601328
0.0761648
0.0825162
0.10526
0.14875
0.181332
0.212742
0.236407
0.261357
0.286574
0.303062
0.323242
0.341091
0.379674
0.433752
0.546834
0.0423796
0.0506835
0.0518606
0.049847
0.0576727
0.0783289
0.0820545
0.10099
0.149803
0.194467
0.242846
0.281111
0.333996
0.376473
0.418135
0.457866
0.493589
0.532773
0.581659
0.726123
0.0475304
0.0486075
0.0475743
0.0527154
0.0727988
0.0978551
0.101288
0.124501
0.159327
0.204481
0.264991
0.321306
0.397068
0.460328
0.531081
0.604205
0.674952
0.738985
0.815795
0.951334
0.0504895
0.0438215
0.0456464
0.0688925
0.103273
0.126086
0.155585
0.210833
0.260083
0.311994
0.372268
0.437153
0.511051
0.584729
0.668067
0.774729
0.893423
0.999735
1.16671
1.12875
0.0489692
0.0400784
0.0495353
0.0820778
0.119535
0.142874
0.201307
0.29117
0.380556
0.487249
0.576855
0.668335
0.757053
0.841834
0.925094
1.03819
1.18947
1.33507
1.56126
1.51854
0.047169
0.0392111
0.0537555
0.0772164
0.114724
0.138143
0.226772
0.333168
0.466793
0.643379
0.782262
0.922997
1.05719
1.18473
1.32508
1.48688
1.6563
1.827
2.09154
2.08917
0.0385105
0.0348867
0.050627
0.0605817
0.0961522
0.142198
0.264224
0.414205
0.63097
0.866833
1.07982
1.27389
1.46329
1.6449
1.87412
2.11259
2.34551
2.58045
2.79982
2.99952
0.0213776
0.0265978
0.0485812
0.0622922
0.103865
0.299571
0.575774
0.861463
1.19598
1.48753
1.72604
1.93763
2.15462
2.38587
2.69193
2.98198
3.25707
3.49774
3.64809
3.78005
0.0105914
0.0252425
0.0403542
0.114743
0.330008
0.753972
1.13832
1.55896
2.01089
2.38553
2.64324
2.89071
3.15295
3.4477
3.78107
3.99589
4.10474
4.13175
4.03604
3.90582
0.00706005
0.0335235
0.102881
0.403798
0.936071
1.47907
1.99896
2.56452
3.15772
3.53448
3.75635
3.98571
4.19006
4.36571
4.47828
4.40627
4.19056
3.65735
2.79723
1.89004
0.0422385
0.17808
0.551733
1.20576
2.10724
2.88146
3.54251
4.22218
4.77404
4.83843
4.73639
4.73201
4.69255
4.53161
4.02732
3.07171
2.09577
1.33478
1.01898
0.992922
0.297691
0.839979
1.95275
3.20419
4.22411
4.84777
5.41484
5.89295
5.75567
5.30346
4.86372
4.31877
3.39846
2.32758
1.42574
1.02916
0.989338
0.994901
0.997308
0.999437
2.31505
3.65046
4.88913
5.7194
6.27081
6.43616
6.57204
6.23053
4.53866
3.20882
2.37349
1.57051
1.08515
0.987625
0.993155
0.996409
0.999176
0.999973
1.00002
1.00001
6.94803
6.90102
6.84005
6.93438
7.0721
6.78348
5.97932
2.22866
0.666064
1
1
1
1
1
1
1
1
1
1
1
6.90239
6.86428
6.74641
6.69758
6.87131
5.77876
2.64532
1.01888
1
1
1
1
1
1
1
1
1
1
1
1
6.80734
6.85556
6.80318
6.62589
6.24786
3.47572
1.06437
0.99869
1
1
1
1
1
1
1
1
1
1
1
1
6.65921
6.83086
6.83934
6.6593
4.71779
1.44102
0.992751
1.00014
0.999999
1
1
1
1
1
1
1
1
1
1
1
6.50801
6.76192
6.80391
6.18343
2.62771
0.976291
1.00036
0.999994
1
1
1
1
1
1
1
1
1
1
1
1
6.43513
6.71465
6.69808
4.90024
1.45959
1
1
1
1
1
1
1
1
1
1
1
1
1
1
1
6.40602
6.75219
6.6765
3.59483
0.989607
1
1
1
1
1
1
1
1
1
1
1
1
1
1
1
6.54004
6.73377
6.11118
2.00819
0.999977
1
1
1
1
1
1
1
1
1
1
1
1
1
1
1
6.9534
6.60305
4.85368
1.22386
1
1
1
1
1
1
1
1
1
1
1
1
1
1
1
1
7.27521
6.39869
3.45524
0.987528
1
1
1
1
1
1
1
1
1
1
1
1
1
1
1
1
7.46027
6.00702
2.27871
1
1
1
1
1
1
1
1
1
1
1
1
1
1
1
1
1
7.521
5.35451
1.59775
1
1
1
1
1
1
1
1
1
1
1
1
1
1
1
1
1
7.55417
4.73625
1.15722
1
1
1
1
1
1
1
1
1
1
1
1
1
1
1
1
1
7.3429
4.01434
1.0066
1
1
1
1
1
1
1
1
1
1
1
1
1
1
1
1
1
7.14595
3.2901
1
1
1
1
1
1
1
1
1
1
1
1
1
1
1
1
1
1
7.05658
2.49652
1
1
1
1
1
1
1
1
1
1
1
1
1
1
1
1
1
1
6.64131
1.84024
1
1
1
1
1
1
1
1
1
1
1
1
1
1
1
1
1
1
6.29626
1.35159
1
1
1
1
1
1
1
1
1
1
1
1
1
1
1
1
1
1
5.75714
1.00538
1
1
1
1
1
1
1
1
1
1
1
1
1
1
1
1
1
1
4.64254
1.00011
1
1
1
1
1
1
1
1
1
1
1
1
1
1
1
1
1
1
4.63585
1.0001
1
1
1
1
1
1
1
1
1
1
1
1
1
1
1
1
1
1
5.75838
1.00577
1
1
1
1
1
1
1
1
1
1
1
1
1
1
1
1
1
1
6.3086
1.36129
1
1
1
1
1
1
1
1
1
1
1
1
1
1
1
1
1
1
6.61886
1.8445
1
1
1
1
1
1
1
1
1
1
1
1
1
1
1
1
1
1
7.0527
2.48273
1
1
1
1
1
1
1
1
1
1
1
1
1
1
1
1
1
1
7.16176
3.27618
1
1
1
1
1
1
1
1
1
1
1
1
1
1
1
1
1
1
7.34075
4.02587
1.01194
1
1
1
1
1
1
1
1
1
1
1
1
1
1
1
1
1
7.54703
4.74608
1.16168
1
1
1
1
1
1
1
1
1
1
1
1
1
1
1
1
1
7.51608
5.35878
1.59904
1
1
1
1
1
1
1
1
1
1
1
1
1
1
1
1
1
7.45786
5.9915
2.28268
1
1
1
1
1
1
1
1
1
1
1
1
1
1
1
1
1
7.28372
6.41161
3.43988
0.98761
1
1
1
1
1
1
1
1
1
1
1
1
1
1
1
1
6.95636
6.59666
4.85292
1.22714
1
1
1
1
1
1
1
1
1
1
1
1
1
1
1
1
6.53287
6.70623
6.07684
2.00644
0.999975
1
1
1
1
1
1
1
1
1
1
1
1
1
1
1
6.41953
6.78902
6.71979
3.58588
0.981131
1
1
1
1
1
1
1
1
1
1
1
1
1
1
1
6.44959
6.72863
6.70437
4.91503
1.48186
1
1
1
1
1
1
1
1
1
1
1
1
1
1
1
6.51631
6.75009
6.78402
6.14319
2.62993
0.976459
1.00035
0.999994
1
1
1
1
1
1
1
1
1
1
1
1
6.65691
6.81422
6.82978
6.67016
4.71136
1.42399
0.993032
1.00013
0.999999
1
1
1
1
1
1
1
1
1
1
1
6.81315
6.85302
6.81828
6.65462
6.24047
3.46396
1.06045
0.998699
1
1
1
1
1
1
1
1
1
1
1
1
6.91598
6.86609
6.75247
6.71164
6.83766
5.77574
2.67204
1.0234
1
1
1
1
1
1
1
1
1
1
1
1
6.9405
6.89456
6.83689
6.93241
7.06925
6.78127
5.97931
2.2376
0.666736
1
1
1
1
1
1
1
1
1
1
1
2.31179
3.64358
4.87766
5.71501
6.27378
6.43747
6.57216
6.22663
4.5331
3.20527
2.37141
1.56866
1.08454
0.98752
0.993131
0.99643
0.999188
0.999973
1.00002
1.00001
0.30046
0.844333
1.94781
3.18868
4.22544
4.85378
5.41743
5.88988
5.75373
5.30498
4.86764
4.3225
3.40117
2.32982
1.4274
1.02963
0.989373
0.994915
0.997314
0.999438
0.040421
0.177432
0.55786
1.21503
2.10182
2.87231
3.53508
4.21561
4.77593
4.84477
4.74216
4.73157
4.68974
4.52727
4.0234
3.0692
2.0953
1.33488
1.01897
0.992938
0.00682737
0.0320043
0.0971988
0.40467
0.944941
1.48859
2.0026
2.56684
3.1617
3.53978
3.75793
3.9848
4.1888
4.36192
4.47677
4.40544
4.19051
3.65749
2.797
1.88917
0.0108532
0.0242537
0.0408122
0.113204
0.34588
0.760268
1.14655
1.56391
2.01401
2.38545
2.64286
2.89093
3.15322
3.4472
3.77929
3.99237
4.10338
4.13217
4.03681
3.90674
0.0230948
0.0266736
0.0504029
0.0591649
0.104293
0.290628
0.562757
0.849219
1.18771
1.48181
1.7217
1.93414
2.15249
2.38508
2.69076
2.9791
3.25469
3.49838
3.65099
3.78248
0.040339
0.0352261
0.0489986
0.0591176
0.0908286
0.14132
0.267561
0.421607
0.635846
0.872657
1.08529
1.27997
1.46908
1.64962
1.87559
2.11114
2.34252
2.58028
2.80275
3.00108
0.0469355
0.0408603
0.0535475
0.0749076
0.108883
0.145625
0.232507
0.340758
0.474834
0.649931
0.788342
0.92796
1.06007
1.1853
1.32224
1.48249
1.65358
1.82633
2.09371
2.0918
0.0462354
0.0418028
0.051742
0.0825848
0.115989
0.146779
0.203917
0.2903
0.380587
0.487031
0.576106
0.666159
0.753611
0.836975
0.919692
1.03514
1.19047
1.33734
1.56215
1.51772
0.0447722
0.0440984
0.0473352
0.069954
0.100907
0.124314
0.152373
0.202885
0.255578
0.306977
0.365846
0.430739
0.507182
0.583161
0.669699
0.778488
0.896294
1.00028
1.16442
1.12678
0.0413435
0.0474073
0.0487537
0.0540019
0.0708477
0.0897925
0.101621
0.123446
0.15833
0.201566
0.263045
0.320946
0.398914
0.463084
0.534084
0.606103
0.674905
0.736495
0.813545
0.950576
0.040479
0.0481308
0.0512351
0.0507799
0.0577681
0.0740708
0.0835729
0.103617
0.149231
0.193977
0.242669
0.281382
0.334128
0.376775
0.417599
0.45613
0.489916
0.529321
0.580142
0.726374
0.042863
0.047954
0.0489571
0.0490393
0.0598685
0.0748515
0.0844922
0.107217
0.147718
0.181404
0.212232
0.235425
0.258623
0.282966
0.298093
0.317873
0.337192
0.380157
0.436478
0.548835
0.0474678
0.049771
0.0481898
0.0495555
0.0600833
0.073645
0.0857266
0.104421
0.130098
0.15751
0.163189
0.173062
0.174592
0.184847
0.196519
0.221687
0.260289
0.309642
0.352396
0.420165
0.0578543
0.0548733
0.0506276
0.0496718
0.0567548
0.0664339
0.0771346
0.0873314
0.097773
0.118177
0.111561
0.114514
0.122471
0.146235
0.174281
0.202895
0.23224
0.260746
0.283624
0.308086
0.0636609
0.0656816
0.0620797
0.0515388
0.0481603
0.0529523
0.0584163
0.0625554
0.0667798
0.0770346
0.0852286
0.097713
0.119118
0.143534
0.162885
0.183567
0.1962
0.20399
0.202736
0.210352
0.0624546
0.0695675
0.0751971
0.0690977
0.0526864
0.0454512
0.0464643
0.0534175
0.059218
0.0697031
0.0851232
0.0988208
0.116372
0.132691
0.141799
0.152222
0.151683
0.149412
0.149181
0.165365
0.0657871
0.0744489
0.0814878
0.0779784
0.0669335
0.0493472
0.0467232
0.0545199
0.0609736
0.0698287
0.0823087
0.0906505
0.0969864
0.100715
0.101873
0.103228
0.104809
0.107619
0.115026
0.131166
0.0864687
0.102642
0.11909
0.130497
0.141208
0.129487
0.109079
0.116639
0.134458
0.146561
0.14794
0.147106
0.15781
0.176711
0.187379
0.178142
0.17361
0.181073
0.204356
0.209612
0.15687
0.242056
0.297465
0.34915
0.396858
0.393648
0.381571
0.389312
0.41587
0.444634
0.438877
0.435592
0.458526
0.474225
0.493709
0.491594
0.500099
0.51677
0.527945
0.526602
0.558862
0.642099
0.719856
0.798867
0.805284
0.839934
0.853237
0.886648
0.907464
0.907069
0.900528
0.914249
0.942758
0.965165
0.960614
0.946908
0.944057
0.950877
0.960759
0.958194
0.285397
0.413994
0.540489
0.679406
0.752254
0.821137
0.841299
0.875871
0.903707
0.91664
0.92045
0.926668
0.933911
0.947498
0.954972
0.958638
0.96076
0.964037
0.96161
0.955469
0.13969
0.15747
0.226449
0.337019
0.540576
0.694906
0.763633
0.839254
0.903579
0.931068
0.930206
0.929949
0.929451
0.935603
0.94735
0.964902
0.972004
0.972155
0.965502
0.956485
0.191482
0.213023
0.239977
0.243587
0.265688
0.347986
0.538135
0.715505
0.836835
0.903072
0.941904
0.932883
0.920639
0.919068
0.93365
0.962259
0.975173
0.974389
0.961981
0.957999
0.233975
0.25902
0.274003
0.297347
0.297996
0.288527
0.30716
0.388975
0.586169
0.794064
0.90238
0.920271
0.920899
0.910463
0.922954
0.957511
0.968208
0.96505
0.95301
0.958885
0.30515
0.316509
0.338917
0.35184
0.342868
0.333862
0.333009
0.326474
0.349586
0.488399
0.717035
0.887746
0.920056
0.920479
0.91807
0.942328
0.95845
0.951464
0.950232
0.961159
0.402093
0.390272
0.390201
0.40009
0.397738
0.384488
0.372778
0.362308
0.355262
0.367482
0.455024
0.667094
0.881196
0.928407
0.920621
0.931004
0.930032
0.925053
0.941714
0.965781
0.532794
0.483524
0.446441
0.446217
0.44867
0.438406
0.41692
0.398242
0.389561
0.380684
0.38461
0.441506
0.639685
0.878694
0.923098
0.932146
0.917917
0.921016
0.949279
0.968591
0.687381
0.605463
0.514867
0.486221
0.495727
0.494179
0.474824
0.449003
0.425244
0.413691
0.40221
0.405499
0.447479
0.634709
0.853467
0.935826
0.91275
0.926047
0.966926
0.968574
0.876859
0.762709
0.620293
0.552986
0.548157
0.550096
0.528524
0.497737
0.469866
0.437985
0.432854
0.424965
0.431067
0.464958
0.622645
0.861521
0.899258
0.940536
0.976809
0.96523
1.2548
0.99519
0.81299
0.647894
0.590053
0.597779
0.613168
0.597295
0.56113
0.51644
0.478521
0.469137
0.463274
0.465337
0.48418
0.574946
0.755956
0.895958
0.940583
0.952096
2.02026
1.48953
1.21844
1.00431
0.77255
0.709901
0.715807
0.685402
0.622426
0.582855
0.544533
0.535925
0.528659
0.511227
0.493772
0.496
0.535031
0.649611
0.789975
0.90735
2.50691
2.16734
1.70184
1.38314
1.11348
0.894007
0.81894
0.759342
0.699434
0.680931
0.656447
0.634681
0.611959
0.576695
0.542559
0.526019
0.532406
0.54244
0.575646
0.738776
2.3661
2.34904
2.23637
1.91348
1.58485
1.27381
1.06548
0.945731
0.884452
0.83439
0.765559
0.703652
0.661597
0.620211
0.582606
0.573049
0.563116
0.549438
0.542861
0.578703
1.68264
2.14232
2.22307
2.19122
2.0659
1.79901
1.47729
1.24533
1.07273
0.960588
0.864116
0.773463
0.754792
0.735148
0.69333
0.665515
0.646335
0.619023
0.571947
0.573991
1.10881
1.4375
1.84859
2.11289
2.11305
2.07703
1.92849
1.69593
1.42891
1.21723
1.09554
0.974564
0.907858
0.867425
0.804848
0.745594
0.698322
0.657655
0.628312
0.607479
1.00449
1.04484
1.20568
1.54795
1.85919
2.02125
2.01497
1.97178
1.83968
1.61367
1.40895
1.22791
1.05917
0.969277
0.892781
0.815709
0.77142
0.73634
0.728135
0.697787
1.00009
1.00114
1.01048
1.0778
1.268
1.57446
1.82043
1.93392
1.92849
1.88662
1.76589
1.59023
1.38552
1.21023
1.09697
0.992011
0.928718
0.885378
0.836878
0.759452
1
1.00001
1.00015
1.00246
1.01913
1.09997
1.28968
1.55967
1.76858
1.85512
1.84998
1.81647
1.71817
1.54824
1.37866
1.22631
1.09692
0.999236
0.926675
0.834977
1
1
1
1.00003
1.00033
1.00377
1.02545
1.10691
1.28627
1.51991
1.71084
1.78852
1.78376
1.75375
1.6741
1.53862
1.381
1.22582
1.12183
1.00018
1
1
1
1
1
1.00004
1.00054
1.00438
1.02741
1.10536
1.26562
1.47007
1.64436
1.72815
1.72458
1.70327
1.64454
1.5273
1.39381
1.19479
1
1
1
1
1
1
1
1.00005
1.00062
1.00476
1.02469
1.09707
1.23427
1.42116
1.57095
1.67021
1.6688
1.65588
1.61816
1.46574
1
1
1
1
1
1
1
1
1.00001
1.00006
1.00055
1.00469
1.02067
1.08243
1.19842
1.37297
1.504
1.60475
1.61602
1.593
1
1
1
1
1
1
1
1
1
1
1.00001
1.00006
1.00045
1.00376
1.0174
1.06367
1.16533
1.31531
1.44312
1.54824
1
1
1
1
1
1
1
1
1
1
1
1
1
1.00005
1.0004
1.00257
1.01417
1.05158
1.13696
1.38825
1.61837
2.46694
2.58313
2.08475
1.30965
1.03688
1.00187
1.00005
1
1
1
1
1
1
1
2.3453
2.81578
2.52749
1.54102
1.0483
1.00081
1
1
1
1
1
1
1
1
1
2.92917
2.87036
1.98291
1.15333
1.00527
1.00005
1
1
1
1
1
1
1
1
1
3.25297
2.56018
1.36554
1.01913
1.00018
1
1
1
1
1
1
1
1
1
1
3.32138
1.68458
1.0474
1.00052
1
1
1
1
1
1
1
1
1
1
1
2.06562
1.0735
1.0005
0.999999
1
1
1
1
1
1
1
1
1
1
1
1.1014
1.00054
0.999997
1
1
1
1
1
1
1
1
1
1
1
1
0.998147
0.999864
0.999996
1
1
1
1
1
1
1
1
1
1
1
1
0.999966
1
1
1
1
1
1
1
1
1
1
1
1
1
1
1
1
1
1
1
1
1
1
1
1
1
1
1
1
1
1
1
1
1
1
1
1
1
1
1
1
1
1
1
1
1
1
1
1
1
1
1
1
1
1
1
1
1
1
1
1
1
1
1
1
1
1
1
1
1
1
1
1
1
1
1
1
1
1
1
1
1
1
1
1
1
1
1
1
1
1
1
1
1
1
1
1
1
1
1
1
1
1
1
1
1
1
1
1
1
1
1
1
1
1
1
1
1
1
1
1
1
1
1
1
1
1
1
1
1
1
1
1
1
1
1
1
1
1
1
1
1
1
1
1
1
1
1
1
1
1
1
1
1
1
1
1
1
1
1
1
1
1
1
1
1
1
1
1
1
1
1
1
1
1
1
1
1
1
1
1
1
1
1
1
1
1
1
1
1
1
1
1
1
1
1
1
1
1
1
1
1
1
1
1
1
1
1
1
1
1
1
1
1
1
1
1
1
1
1
1
1
1
1
1
1
1
1
1
1
1
1
1
1
1
1
1
1
1
1
1
1
1
1
1
1
1
1
1
1
1
1
1
1
1
1
1
1
1
1
1
1
1
1
1
1
1
1
1
1
1
1
1
1
1
1
1
1
1
1
1
1
1
1
1
1
1
1
1
1
1
1
1
1
1
1
1
1
1
1
1
1
1
1
1
1
1
1
1
1
1
1
1
1
1
1
1
1
1
1
1
1
1
1
1
1
1
1
1
1
1
1
1
1
1
1
1
1
1
1
1
1
1
1
1
1
1
1
1
1
1
1
1
1
1
1
1
1
1
1
1
1
1
1
1
1
1
1
1
1
1
1
1
1
1
1
1
1
1
1
1
1
1
1
1
1
1
1
1
1
1
1
1
1
1
1
1
1
1
1
1
1
1
1
1
1
1
1
1
1
1
1
1
1
1
1
1
1
1
1
1
1
1
1
1
1
1
1
1
1
1
1
1
1
1
1
1
1
1
1
1
1
1
1
1
1
1
1
1
1
1
1
1
1
1
1
1
1
1
1
1
1
1
1
1
1
1
1
1
1
1
1
1
1
1
1
1
1
1
1
1
1
1
1
1
1
1
1
1
1
1
1
1
1
1
1
1
1
1
1
1
1
1
1
1
1
1
1
1
1
1
1
1
1
1
1
1
1
1
1
1
1
1
1
1
1
1
1
1
1
1
1
1
1
1
1
1
1
1
1
1
1
1
1
1
1
1
1
1
1
1
1
1
1
1
1
1
1
1
1
1
1
1
1
1
1
1
1
1
1
1
1
1
1
1
1
1
1
1
1
1
1
1
1
1
1
1
1
1
1
1
1
1
1
1
1
1
1
1
1
1
1
1
1
1
1
1
1
1
1
1
1
1
1
1
1
1
1
1
1
1
1
1
1
1
1
1
1
1
1
1
1
1
1
1
1
1
1
1
1
1
1
1
1
1
1
1
1
1
1
1
1
1
1
1
1
1
1
1
1
1
1
1
1
1
1
1
1
1
1
1
1
1
1
1
1
1
1
1
1
1
1
1
1
1
1
1
1
1
1
1
1
1
1
1
1
1
1
1
1
1
1
1
1
1
1
1
1
1
1
1
1
1
1
1
1
1
1
1
1
1
1
1
1
1
1
1
1
1
1
1
1
1
1
1
1
1
1
1
1
1
1
1
1
1
1
1
1
1
1
1
1
1
1
1
1
1
1
1
1
1
1
1
1
1
1
1
1
1
1
1
1
1
1
1
1
1
1
1
1
1
1
1
1
1
1
1
1
1
1
1
1
1
1
1
1
1
1
1
1
1
1
1
1
1
1
1
1
1
1
1
1
1
1
1
1
1
1
1
1
1
1
1
1
1
1
1
1
1
1
1
1
1
1
1
1
1
1
1
1
1
1
1
1
1
0.999966
1
1
1
1
1
1
1
1
1
1
1
1
1
1
0.998152
0.999864
0.999996
1
1
1
1
1
1
1
1
1
1
1
1
1.10115
1.00053
0.999997
1
1
1
1
1
1
1
1
1
1
1
1
2.06505
1.07332
1.00049
0.999999
1
1
1
1
1
1
1
1
1
1
1
3.32191
1.68393
1.04734
1.00052
1
1
1
1
1
1
1
1
1
1
1
3.25306
2.55963
1.36522
1.0191
1.00018
1
1
1
1
1
1
1
1
1
1
2.92963
2.87023
1.98272
1.15333
1.00528
1.00005
1
1
1
1
1
1
1
1
1
2.34481
2.81575
2.52766
1.54124
1.04834
1.00081
1
1
1
1
1
1
1
1
1
1.61866
2.46638
2.58324
2.08512
1.30979
1.03691
1.00187
1.00005
1
1
1
1
1
1
1
1.25338
2.02476
2.50715
2.36636
1.68389
1.10865
1.00449
1.00009
1
1
1
1
1
1
1
0.993376
1.47828
2.16775
2.34959
2.14098
1.43802
1.0449
1.00114
1.00001
1
1
1
1
1
1
0.82037
1.21843
1.70695
2.23428
2.22144
1.84725
1.20533
1.01049
1.00015
1
1
1
1
1
1
0.651592
1.00808
1.38221
1.91786
2.19126
2.11307
1.54727
1.07752
1.00244
1.00003
1
1
1
1
1
0.591719
0.773275
1.09206
1.58291
2.07029
2.11356
1.86009
1.26808
1.01909
1.00033
1
1
1
1
1
0.599875
0.731488
0.912757
1.2627
1.78799
2.07754
2.02175
1.57358
1.10027
1.00383
1.00005
1
1
1
1
0.608341
0.713929
0.829454
1.0796
1.48224
1.92889
2.01521
1.82227
1.28986
1.0252
1.00053
1
1
1
1
0.590215
0.67484
0.753676
0.945517
1.25377
1.69529
1.97185
1.93475
1.55998
1.10748
1.00443
1.00006
1
1
1
0.558832
0.616184
0.702562
0.883198
1.06984
1.42675
1.83888
1.92852
1.76729
1.28624
1.02749
1.00063
1.00001
1
1
0.521318
0.574544
0.677814
0.832046
0.958038
1.22488
1.61371
1.88513
1.85551
1.52084
1.10492
1.0047
1.00006
1
1
0.486531
0.541898
0.654377
0.762672
0.858511
1.0916
1.40675
1.76796
1.85073
1.70948
1.2653
1.02477
1.00055
1.00001
1
0.47475
0.537586
0.636176
0.704477
0.778487
0.973022
1.22251
1.59019
1.817
1.78801
1.47006
1.09681
1.00465
1.00006
1
0.469936
0.530098
0.614199
0.659562
0.748177
0.919498
1.06911
1.37806
1.71794
1.78366
1.64464
1.23403
1.02064
1.00045
1
0.470628
0.512446
0.5762
0.615709
0.716295
0.864881
0.97891
1.21474
1.54987
1.75434
1.72788
1.42081
1.08235
1.00375
1.00005
0.484018
0.490049
0.540922
0.589071
0.685136
0.793868
0.891624
1.10277
1.38297
1.67543
1.72438
1.57136
1.1983
1.01737
1.0004
0.568996
0.492882
0.525048
0.581421
0.670965
0.738354
0.813946
0.999359
1.22662
1.53996
1.70315
1.67048
1.37287
1.0637
1.00258
0.750433
0.531882
0.531867
0.569885
0.653356
0.694354
0.771441
0.93621
1.09456
1.38096
1.64457
1.66899
1.50425
1.16533
1.01416
0.888166
0.645179
0.540908
0.557741
0.622278
0.653716
0.734924
0.887944
0.997567
1.2242
1.52748
1.65596
1.60542
1.31553
1.05162
0.939479
0.788661
0.576231
0.548441
0.576714
0.623388
0.725011
0.834276
0.925468
1.12143
1.39386
1.6182
1.61606
1.44331
1.1371
0.952821
0.907182
0.742597
0.583849
0.579996
0.604415
0.694403
0.756243
0.833876
1.0009
1.19471
1.46558
1.59293
1.54835
1.38841
0.879367
0.76569
0.620932
0.547583
0.543853
0.554123
0.53893
0.506432
0.483502
0.448532
0.428876
0.425158
0.433519
0.467671
0.619138
0.839289
0.875467
0.932284
0.974128
0.963563
0.689848
0.607632
0.507534
0.478092
0.491365
0.496392
0.479688
0.455294
0.436331
0.417332
0.401196
0.406548
0.447367
0.632061
0.854867
0.93901
0.910714
0.923521
0.96587
0.967442
0.532638
0.485373
0.438666
0.438242
0.443477
0.435484
0.414714
0.399144
0.392123
0.383268
0.387954
0.439382
0.637879
0.855329
0.915799
0.948947
0.933803
0.930654
0.953091
0.968326
0.401536
0.388932
0.387094
0.397649
0.397648
0.384519
0.370701
0.362739
0.363039
0.372508
0.45685
0.664311
0.866741
0.925337
0.923004
0.945696
0.946442
0.936596
0.947048
0.967223
0.303651
0.316974
0.337295
0.349663
0.340386
0.330225
0.329566
0.325536
0.357584
0.494514
0.717299
0.883701
0.911067
0.924382
0.926612
0.950383
0.964405
0.958235
0.953478
0.964087
0.233693
0.259059
0.273115
0.298284
0.29907
0.287046
0.308521
0.398219
0.603369
0.798215
0.890881
0.919691
0.919605
0.919616
0.930026
0.952774
0.965275
0.96305
0.954392
0.960814
0.191609
0.211938
0.240564
0.245059
0.264058
0.339713
0.537824
0.726468
0.819077
0.884537
0.933337
0.932019
0.926207
0.927413
0.93685
0.953879
0.96472
0.968036
0.962133
0.960103
0.139478
0.157427
0.237135
0.347777
0.537476
0.683946
0.764517
0.846212
0.885691
0.909311
0.920156
0.928116
0.934709
0.938199
0.942693
0.954711
0.963801
0.968738
0.966784
0.958903
0.286845
0.415727
0.550696
0.690731
0.744064
0.811681
0.841423
0.879599
0.895398
0.904396
0.910857
0.923532
0.943969
0.955098
0.95225
0.95016
0.954245
0.961934
0.966895
0.96046
0.559764
0.643672
0.721237
0.80345
0.801649
0.82954
0.85228
0.882363
0.892399
0.893214
0.906347
0.923645
0.950448
0.966942
0.957014
0.940281
0.941522
0.955096
0.965269
0.960364
)
;

boundaryField
{
    inlet
    {
        type            fixedValue;
        value           uniform 1;
    }
    outlet
    {
        type            zeroGradient;
    }
    airfoil
    {
        type            zeroGradient;
    }
    top
    {
        type            symmetryPlane;
    }
    bottom
    {
        type            symmetryPlane;
    }
    defaultFaces
    {
        type            empty;
    }
}


// ************************************************************************* //
