/*--------------------------------*- C++ -*----------------------------------*\
  =========                 |
  \\      /  F ield         | OpenFOAM: The Open Source CFD Toolbox
   \\    /   O peration     | Website:  https://openfoam.org
    \\  /    A nd           | Version:  7
     \\/     M anipulation  |
\*---------------------------------------------------------------------------*/
FoamFile
{
    version     2.0;
    format      ascii;
    class       volScalarField;
    location    "10";
    object      rho;
}
// * * * * * * * * * * * * * * * * * * * * * * * * * * * * * * * * * * * * * //

dimensions      [1 -3 0 0 0 0 0];

internalField   nonuniform List<scalar> 
3700
(
0.212169
0.349947
0.432783
0.508527
0.537495
0.535818
0.530332
0.542689
0.551614
0.587439
0.60798
0.632109
0.650238
0.654968
0.684066
0.6944
0.712887
0.717224
0.707859
0.720753
0.131963
0.157313
0.187619
0.193293
0.174842
0.156558
0.152684
0.156193
0.140968
0.153478
0.19759
0.245986
0.272521
0.268546
0.269732
0.278131
0.289073
0.279957
0.270417
0.271009
0.103374
0.11516
0.115521
0.102998
0.0818526
0.0641944
0.0655274
0.0716837
0.0798267
0.09284
0.111748
0.124918
0.135503
0.142026
0.144605
0.147776
0.150472
0.153404
0.160694
0.181951
0.0878117
0.102659
0.105874
0.0943583
0.0707053
0.0640397
0.0657107
0.0707347
0.0777253
0.0921927
0.114759
0.133934
0.158871
0.182862
0.197303
0.215293
0.215516
0.211805
0.211107
0.231043
0.0780083
0.0908368
0.0869624
0.0737791
0.0698152
0.0813086
0.0878914
0.0864392
0.0901375
0.106532
0.116339
0.132317
0.162087
0.196406
0.224309
0.254691
0.274526
0.286972
0.286673
0.29687
0.0689464
0.0799021
0.0758741
0.0693631
0.083007
0.0990537
0.112069
0.121646
0.137274
0.16734
0.157754
0.161904
0.17113
0.201177
0.239085
0.279105
0.321323
0.362236
0.39587
0.432735
0.0616513
0.0724398
0.0725065
0.073232
0.0859352
0.106602
0.119153
0.144038
0.183056
0.219731
0.231619
0.246319
0.249749
0.265511
0.279104
0.309027
0.358707
0.427857
0.488504
0.585169
0.0581696
0.069879
0.0740504
0.0732331
0.0841025
0.106495
0.115403
0.147161
0.207857
0.253357
0.297215
0.330285
0.36511
0.400309
0.423337
0.451524
0.476464
0.530292
0.605655
0.763144
0.0593775
0.0709493
0.0725794
0.0697667
0.0806844
0.109535
0.114767
0.141206
0.209326
0.271647
0.339149
0.392555
0.466294
0.52554
0.583624
0.639031
0.688859
0.743482
0.811615
1.01272
0.0665326
0.0680434
0.066616
0.0737989
0.101857
0.136856
0.141677
0.174072
0.22266
0.285643
0.370044
0.448587
0.55418
0.64235
0.74091
0.842756
0.941305
1.03049
1.13738
1.3259
0.070639
0.0613781
0.0639516
0.096436
0.144441
0.176301
0.217471
0.294513
0.363203
0.435512
0.519534
0.609961
0.712957
0.815619
0.931666
1.0801
1.24522
1.39311
1.6252
1.57249
0.0685169
0.0561658
0.0694048
0.114849
0.167142
0.199704
0.281188
0.406415
0.530939
0.67948
0.804283
0.931654
1.0552
1.17326
1.28915
1.44649
1.65679
1.85912
2.17323
2.11391
0.0660016
0.0549621
0.0753159
0.108049
0.160427
0.193104
0.316641
0.464882
0.650914
0.89662
1.08993
1.28577
1.4725
1.64992
1.84499
2.06977
2.30501
2.54203
2.90922
2.90588
0.053895
0.0489192
0.0709505
0.0848326
0.134509
0.198686
0.368724
0.577649
0.879276
1.20737
1.5036
1.77348
2.03679
2.28915
2.60737
2.93822
3.2612
3.58707
3.89149
4.16875
0.0299438
0.0373252
0.0680914
0.0872086
0.145143
0.417655
0.802024
1.19929
1.66421
2.06943
2.40093
2.69496
2.99636
3.31731
3.74176
4.14376
4.52498
4.85875
5.06784
5.25143
0.0148833
0.0354378
0.0565811
0.160372
0.459968
1.04935
1.58359
2.16789
2.79545
3.31563
3.67339
4.01672
4.3803
4.78877
5.25082
5.54853
5.69978
5.73768
5.6062
5.42781
0.00994611
0.047073
0.143838
0.562675
1.30221
2.05641
2.77827
3.56313
4.38621
4.90881
5.21627
5.53386
5.81663
6.0602
6.21652
6.11722
5.82067
5.0857
3.8959
2.63872
0.0593878
0.24896
0.768676
1.6769
2.92768
4.00164
4.91838
5.86069
6.62581
6.71466
6.57301
6.56686
6.51218
6.29032
5.59514
4.27387
2.9236
1.8668
1.4265
1.39013
0.416237
1.16987
2.71394
4.44847
5.8617
6.72602
7.51184
8.17489
7.98476
7.35805
6.74882
5.99581
4.72351
3.24338
1.99312
1.44068
1.38512
1.39289
1.39625
1.39922
3.21868
5.06823
6.78286
7.93183
8.69542
8.9254
9.11412
8.64273
6.30093
4.45821
3.3037
2.1935
1.51874
1.38274
1.39045
1.39499
1.39886
1.39997
1.40003
1.40002
9.63116
9.5662
9.48207
9.61293
9.80446
9.40758
8.29848
3.1067
0.933815
1.40001
1.40001
1.40001
1.40001
1.40001
1.40001
1.40001
1.40001
1.40001
1.40001
1.40001
9.56825
9.51562
9.3529
9.28612
9.52797
8.02058
3.685
1.42623
1.40001
1.40001
1.40001
1.40001
1.40001
1.40001
1.40001
1.40001
1.40001
1.40001
1.40001
1.40001
9.43698
9.50373
9.43164
9.18763
8.66727
4.83444
1.48938
1.39818
1.40001
1.40001
1.40001
1.40001
1.40001
1.40001
1.40001
1.40001
1.40001
1.40001
1.40001
1.40001
9.23211
9.46961
9.48181
9.23494
6.55345
2.01264
1.38991
1.40019
1.4
1.40001
1.40001
1.40001
1.40001
1.40001
1.40001
1.40001
1.40001
1.40001
1.40001
1.40001
9.02289
9.37417
9.43295
8.57807
3.65882
1.36692
1.40051
1.4
1.40001
1.40001
1.40001
1.40001
1.40001
1.40001
1.40001
1.40001
1.40001
1.40001
1.40001
1.40001
8.92198
9.30872
9.28646
6.80375
2.03788
1.40001
1.40001
1.40001
1.40001
1.40001
1.40001
1.40001
1.40001
1.40001
1.40001
1.40001
1.40001
1.40001
1.40001
1.40001
8.88162
9.36061
9.25675
4.99734
1.38541
1.40001
1.40001
1.40001
1.40001
1.40001
1.40001
1.40001
1.40001
1.40001
1.40001
1.40001
1.40001
1.40001
1.40001
1.40001
9.06686
9.33557
8.47727
2.79867
1.4
1.40001
1.40001
1.40001
1.40001
1.40001
1.40001
1.40001
1.40001
1.40001
1.40001
1.40001
1.40001
1.40001
1.40001
1.40001
9.63835
9.15602
6.74005
1.71068
1.4
1.40001
1.40001
1.40001
1.40001
1.40001
1.40001
1.40001
1.40001
1.40001
1.40001
1.40001
1.40001
1.40001
1.40001
1.40001
10.0831
8.87461
4.80481
1.38259
1.40001
1.40001
1.40001
1.40001
1.40001
1.40001
1.40001
1.40001
1.40001
1.40001
1.40001
1.40001
1.40001
1.40001
1.40001
1.40001
10.3387
8.33458
3.17435
1.40001
1.40001
1.40001
1.40001
1.40001
1.40001
1.40001
1.40001
1.40001
1.40001
1.40001
1.40001
1.40001
1.40001
1.40001
1.40001
1.40001
10.4223
7.43333
2.22985
1.40001
1.40001
1.40001
1.40001
1.40001
1.40001
1.40001
1.40001
1.40001
1.40001
1.40001
1.40001
1.40001
1.40001
1.40001
1.40001
1.40001
10.4677
6.57851
1.61835
1.40001
1.40001
1.40001
1.40001
1.40001
1.40001
1.40001
1.40001
1.40001
1.40001
1.40001
1.40001
1.40001
1.40001
1.40001
1.40001
1.40001
10.175
5.57887
1.40916
1.40001
1.40001
1.40001
1.40001
1.40001
1.40001
1.40001
1.40001
1.40001
1.40001
1.40001
1.40001
1.40001
1.40001
1.40001
1.40001
1.40001
9.90421
4.57486
1.40001
1.40001
1.40001
1.40001
1.40001
1.40001
1.40001
1.40001
1.40001
1.40001
1.40001
1.40001
1.40001
1.40001
1.40001
1.40001
1.40001
1.40001
9.78269
3.47547
1.40001
1.40001
1.40001
1.40001
1.40001
1.40001
1.40001
1.40001
1.40001
1.40001
1.40001
1.40001
1.40001
1.40001
1.40001
1.40001
1.40001
1.40001
9.21089
2.56565
1.40001
1.40001
1.40001
1.40001
1.40001
1.40001
1.40001
1.40001
1.40001
1.40001
1.40001
1.40001
1.40001
1.40001
1.40001
1.40001
1.40001
1.40001
8.73553
1.88793
1.40001
1.40001
1.40001
1.40001
1.40001
1.40001
1.40001
1.40001
1.40001
1.40001
1.40001
1.40001
1.40001
1.40001
1.40001
1.40001
1.40001
1.40001
7.99064
1.40748
1.40001
1.40001
1.40001
1.40001
1.40001
1.40001
1.40001
1.40001
1.40001
1.40001
1.40001
1.40001
1.40001
1.40001
1.40001
1.40001
1.40001
1.40001
6.4473
1.40016
1.40001
1.40001
1.40001
1.40001
1.40001
1.40001
1.40001
1.40001
1.40001
1.40001
1.40001
1.40001
1.40001
1.40001
1.40001
1.40001
1.40001
1.40001
6.4381
1.40014
1.40001
1.40001
1.40001
1.40001
1.40001
1.40001
1.40001
1.40001
1.40001
1.40001
1.40001
1.40001
1.40001
1.40001
1.40001
1.40001
1.40001
1.40001
7.99236
1.40801
1.40001
1.40001
1.40001
1.40001
1.40001
1.40001
1.40001
1.40001
1.40001
1.40001
1.40001
1.40001
1.40001
1.40001
1.40001
1.40001
1.40001
1.40001
8.75236
1.90136
1.40001
1.40001
1.40001
1.40001
1.40001
1.40001
1.40001
1.40001
1.40001
1.40001
1.40001
1.40001
1.40001
1.40001
1.40001
1.40001
1.40001
1.40001
9.17972
2.57156
1.40001
1.40001
1.40001
1.40001
1.40001
1.40001
1.40001
1.40001
1.40001
1.40001
1.40001
1.40001
1.40001
1.40001
1.40001
1.40001
1.40001
1.40001
9.77746
3.45641
1.40001
1.40001
1.40001
1.40001
1.40001
1.40001
1.40001
1.40001
1.40001
1.40001
1.40001
1.40001
1.40001
1.40001
1.40001
1.40001
1.40001
1.40001
9.92628
4.55564
1.40001
1.40001
1.40001
1.40001
1.40001
1.40001
1.40001
1.40001
1.40001
1.40001
1.40001
1.40001
1.40001
1.40001
1.40001
1.40001
1.40001
1.40001
10.172
5.59475
1.41658
1.40001
1.40001
1.40001
1.40001
1.40001
1.40001
1.40001
1.40001
1.40001
1.40001
1.40001
1.40001
1.40001
1.40001
1.40001
1.40001
1.40001
10.4578
6.592
1.62454
1.40001
1.40001
1.40001
1.40001
1.40001
1.40001
1.40001
1.40001
1.40001
1.40001
1.40001
1.40001
1.40001
1.40001
1.40001
1.40001
1.40001
10.4153
7.43917
2.23163
1.40001
1.40001
1.40001
1.40001
1.40001
1.40001
1.40001
1.40001
1.40001
1.40001
1.40001
1.40001
1.40001
1.40001
1.40001
1.40001
1.40001
10.3353
8.31314
3.17987
1.40001
1.40001
1.40001
1.40001
1.40001
1.40001
1.40001
1.40001
1.40001
1.40001
1.40001
1.40001
1.40001
1.40001
1.40001
1.40001
1.40001
10.0949
8.8925
4.78354
1.38271
1.40001
1.40001
1.40001
1.40001
1.40001
1.40001
1.40001
1.40001
1.40001
1.40001
1.40001
1.40001
1.40001
1.40001
1.40001
1.40001
9.6425
9.14725
6.73903
1.71523
1.4
1.40001
1.40001
1.40001
1.40001
1.40001
1.40001
1.40001
1.40001
1.40001
1.40001
1.40001
1.40001
1.40001
1.40001
1.40001
9.05705
9.2977
8.42992
2.79624
1.39999
1.40001
1.40001
1.40001
1.40001
1.40001
1.40001
1.40001
1.40001
1.40001
1.40001
1.40001
1.40001
1.40001
1.40001
1.40001
8.90034
9.41148
9.3166
4.98514
1.37364
1.40001
1.40001
1.40001
1.40001
1.40001
1.40001
1.40001
1.40001
1.40001
1.40001
1.40001
1.40001
1.40001
1.40001
1.40001
8.94195
9.32799
9.29506
6.8241
2.06876
1.40001
1.40001
1.40001
1.40001
1.40001
1.40001
1.40001
1.40001
1.40001
1.40001
1.40001
1.40001
1.40001
1.40001
1.40001
9.0343
9.35773
9.40529
8.52218
3.66181
1.36715
1.4005
1.4
1.40001
1.40001
1.40001
1.40001
1.40001
1.40001
1.40001
1.40001
1.40001
1.40001
1.40001
1.40001
9.22887
9.44653
9.46857
9.25003
6.54472
1.989
1.3903
1.40019
1.4
1.40001
1.40001
1.40001
1.40001
1.40001
1.40001
1.40001
1.40001
1.40001
1.40001
1.40001
9.445
9.50024
9.45255
9.22746
8.65738
4.81838
1.48394
1.3982
1.40001
1.40001
1.40001
1.40001
1.40001
1.40001
1.40001
1.40001
1.40001
1.40001
1.40001
1.40001
9.58712
9.51818
9.36132
9.30564
9.4815
8.01629
3.72195
1.43251
1.40001
1.40001
1.40001
1.40001
1.40001
1.40001
1.40001
1.40001
1.40001
1.40001
1.40001
1.40001
9.62081
9.55735
9.47777
9.61023
9.80047
9.40437
8.29832
3.11907
0.934767
1.40001
1.40001
1.40001
1.40001
1.40001
1.40001
1.40001
1.40001
1.40001
1.40001
1.40001
3.21418
5.05871
6.76701
7.92578
8.69948
8.92713
9.1142
8.63728
6.29329
4.45335
3.30084
2.19095
1.51789
1.38259
1.39042
1.39502
1.39887
1.39997
1.40003
1.40002
0.420112
1.17592
2.7071
4.42703
5.86353
6.73429
7.51532
8.17062
7.98209
7.3602
6.75427
6.00097
4.72723
3.24644
1.99542
1.44134
1.38517
1.39291
1.39626
1.39922
0.056836
0.248058
0.777199
1.68976
2.92017
3.98897
4.90807
5.85159
6.62846
6.72349
6.58104
6.56624
6.50828
6.28426
5.58968
4.27039
2.92295
1.86694
1.42648
1.39015
0.00961798
0.0449306
0.135905
0.563893
1.31452
2.06962
2.78332
3.56632
4.39172
4.91617
5.21848
5.53261
5.81487
6.05493
6.21441
6.11607
5.82063
5.0859
3.8956
2.63751
0.0152475
0.0340411
0.0572197
0.158209
0.482048
1.05813
1.59501
2.17476
2.79979
3.31557
3.6729
4.01704
4.38068
4.78805
5.24835
5.54366
5.69792
5.73828
5.60726
5.42908
0.0323365
0.0374172
0.0706268
0.082835
0.145729
0.405191
0.783924
1.1823
1.65277
2.06153
2.39495
2.69014
2.99341
3.3162
3.74013
4.13977
4.52169
4.85964
5.07186
5.25479
0.0564459
0.0493782
0.0686669
0.0827934
0.127078
0.19748
0.373407
0.587973
0.886074
1.21547
1.5112
1.78191
2.0448
2.29566
2.60938
2.9362
3.25708
3.58684
3.89556
4.17091
0.065676
0.057262
0.0750185
0.104829
0.152272
0.203526
0.324641
0.475448
0.662097
0.905731
1.09838
1.29266
1.47648
1.65069
1.84104
2.06368
2.30126
2.54112
2.91221
2.90952
0.0647125
0.0585738
0.0724824
0.115554
0.162193
0.205157
0.284828
0.4052
0.530979
0.679171
0.803233
0.928615
1.05041
1.1665
1.28165
1.44227
1.65818
1.86226
2.17445
2.11277
0.0626809
0.0617615
0.066302
0.0979148
0.14114
0.173822
0.212995
0.283431
0.356914
0.428508
0.510579
0.601026
0.707573
0.81344
0.933936
1.08533
1.24921
1.39386
1.62201
1.56974
0.0579191
0.0663718
0.0682552
0.0755965
0.0991323
0.1256
0.142141
0.172603
0.221262
0.281566
0.367322
0.448082
0.556748
0.646186
0.745088
0.845397
0.941235
1.02701
1.13424
1.32484
0.0567452
0.067396
0.0717087
0.0710693
0.0808197
0.103596
0.116887
0.144876
0.208525
0.270962
0.338902
0.392935
0.466477
0.52596
0.582875
0.63661
0.683736
0.73867
0.809502
1.01307
0.060097
0.067184
0.0685415
0.0686317
0.0837443
0.104675
0.118162
0.149896
0.20642
0.253461
0.296508
0.328918
0.361298
0.395278
0.416409
0.444038
0.471027
0.530955
0.609442
0.76593
0.0665398
0.0697376
0.0675132
0.0693824
0.0840719
0.103017
0.119906
0.146028
0.181904
0.220212
0.228184
0.242002
0.244164
0.258495
0.274808
0.309952
0.363805
0.432612
0.492235
0.586688
0.0810506
0.0768712
0.0709295
0.0695991
0.0794893
0.0930148
0.107977
0.122252
0.136873
0.165397
0.15617
0.160285
0.171376
0.204556
0.243718
0.283672
0.324624
0.364404
0.396345
0.430461
0.0891438
0.0919609
0.0869259
0.0722119
0.0675142
0.0742342
0.0818841
0.0876755
0.093579
0.107901
0.119334
0.136771
0.166663
0.200756
0.227785
0.256672
0.274324
0.285223
0.28352
0.294187
0.0874233
0.097342
0.105193
0.0966928
0.0738191
0.0637285
0.0651472
0.0748691
0.0829804
0.0976263
0.119159
0.138294
0.162814
0.185606
0.198345
0.212926
0.212203
0.20909
0.208806
0.231388
0.092014
0.104089
0.113917
0.10905
0.093689
0.0691629
0.0654991
0.0763969
0.0854166
0.0977782
0.115207
0.126869
0.135731
0.140953
0.142593
0.144507
0.146731
0.150663
0.161009
0.183562
0.120773
0.143256
0.166116
0.181952
0.196673
0.180301
0.151967
0.162531
0.187204
0.204024
0.206137
0.205138
0.21997
0.246062
0.260849
0.248107
0.242009
0.252409
0.284747
0.292139
0.218316
0.336296
0.412977
0.484431
0.550201
0.545698
0.529025
0.539767
0.576402
0.615923
0.607991
0.603489
0.634997
0.656485
0.683451
0.680643
0.692636
0.715817
0.731335
0.729535
0.774337
0.889807
0.997785
1.10748
1.11665
1.16493
1.18371
1.23021
1.2592
1.25882
1.24992
1.26904
1.30869
1.33986
1.33368
1.3148
1.31095
1.32048
1.33425
1.33078
0.397291
0.575906
0.75152
0.944316
1.04501
1.14036
1.16843
1.21651
1.25512
1.27299
1.27823
1.28688
1.29702
1.31599
1.32647
1.33158
1.3345
1.33906
1.33574
1.32729
0.195514
0.22034
0.316531
0.470529
0.753441
0.967689
1.06292
1.16786
1.25701
1.29483
1.29336
1.29296
1.29227
1.30086
1.3172
1.34148
1.35118
1.3513
1.34205
1.32952
0.267859
0.297969
0.335637
0.340692
0.371476
0.48609
0.750657
0.997378
1.16592
1.25756
1.31116
1.2986
1.28156
1.27937
1.29957
1.33918
1.35692
1.35572
1.33842
1.33278
0.32716
0.362149
0.3831
0.415702
0.416648
0.403424
0.429363
0.543327
0.817818
1.10682
1.25721
1.28196
1.28284
1.26834
1.28565
1.33356
1.34828
1.34383
1.32704
1.33509
0.426429
0.442348
0.473635
0.49167
0.479167
0.4666
0.465424
0.456336
0.488551
0.681861
0.999922
1.23716
1.28208
1.28268
1.27932
1.313
1.33534
1.32561
1.32387
1.33898
0.561551
0.545187
0.545118
0.558908
0.555631
0.537154
0.520828
0.506267
0.496511
0.51356
0.635506
0.93061
1.22826
1.29391
1.28311
1.29756
1.2962
1.28928
1.31242
1.34583
0.743626
0.675088
0.623465
0.623154
0.626572
0.612273
0.582337
0.556338
0.544309
0.532016
0.537499
0.616782
0.892641
1.22498
1.28677
1.29937
1.2796
1.28391
1.32318
1.35
0.958803
0.844815
0.718711
0.678846
0.692104
0.689972
0.663027
0.62707
0.594029
0.578017
0.562097
0.566689
0.625208
0.885878
1.1902
1.3047
1.27261
1.2911
1.3479
1.35018
1.22229
1.06351
0.865402
0.771776
0.76513
0.767877
0.737855
0.694981
0.656208
0.611888
0.604817
0.593881
0.602395
0.649689
0.869269
1.20159
1.25405
1.3114
1.36184
1.34576
1.74743
1.38681
1.13354
0.903929
0.823556
0.834346
0.855797
0.83372
0.783406
0.721243
0.668499
0.655487
0.647366
0.65031
0.676623
0.803081
1.05503
1.24976
1.31192
1.32792
2.81104
2.07411
1.69754
1.39985
1.07756
0.990541
0.998842
0.956589
0.86894
0.813882
0.760565
0.748656
0.738608
0.714394
0.690143
0.693325
0.747757
0.907405
1.10291
1.26626
3.48846
3.0166
2.36992
1.92706
1.55214
1.24695
1.14265
1.05978
0.976372
0.950642
0.916635
0.886425
0.854862
0.8058
0.758302
0.735323
0.744313
0.758424
0.804759
1.03203
3.29646
3.27078
3.11409
2.6652
2.20831
1.77585
1.48611
1.31957
1.23432
1.16469
1.06893
0.982799
0.924284
0.866658
0.814301
0.801087
0.78734
0.768354
0.759263
0.809333
2.34983
2.988
3.09848
3.053
2.87862
2.50733
2.05982
1.73714
1.49698
1.34092
1.20663
1.08041
1.05446
1.02715
0.968933
0.930263
0.903622
0.865629
0.799997
0.803005
1.55167
2.00959
2.58148
2.94816
2.94685
2.89582
2.689
2.3653
1.99367
1.699
1.52957
1.36111
1.26825
1.21197
1.12482
1.0423
0.976462
0.919799
0.878906
0.849949
1.40627
1.46257
1.68685
2.16379
2.59685
2.82158
2.8117
2.7509
2.56684
2.25208
1.96698
1.71481
1.47973
1.35449
1.24789
1.14048
1.07877
1.02988
1.01849
0.976242
1.40013
1.4016
1.41462
1.50856
1.77383
2.20096
2.54331
2.70077
2.69236
2.63364
2.46532
2.22052
1.9353
1.69102
1.53317
1.38685
1.29861
1.23821
1.1706
1.06264
1.40001
1.40002
1.40021
1.40344
1.4267
1.5395
1.8041
2.18049
2.4714
2.59158
2.58378
2.53686
2.39979
2.1629
1.92654
1.71414
1.53373
1.3975
1.29631
1.16839
1.40001
1.40001
1.40001
1.40004
1.40047
1.40527
1.43553
1.54919
1.79937
2.12515
2.39111
2.49913
2.49204
2.45014
2.33905
2.15014
1.9304
1.71401
1.56899
1.39929
1.40001
1.40001
1.40001
1.40001
1.40001
1.40007
1.40075
1.40612
1.43825
1.54702
1.77059
2.0557
2.29855
2.41519
2.40993
2.38019
2.29828
2.1348
1.94869
1.67108
1.40001
1.40001
1.40001
1.40001
1.40001
1.40001
1.40001
1.40008
1.40088
1.40664
1.43447
1.53546
1.72686
1.98751
2.19628
2.33457
2.3324
2.31437
2.26176
2.04919
1.40001
1.40001
1.40001
1.40001
1.40001
1.40001
1.40001
1.40001
1.40001
1.40009
1.40077
1.40655
1.42885
1.51502
1.67684
1.9203
2.10295
2.2434
2.25894
2.22683
1.40001
1.40001
1.40001
1.40001
1.40001
1.40001
1.40001
1.40001
1.40001
1.40001
1.40001
1.40009
1.40064
1.40525
1.42429
1.48885
1.63069
1.83988
2.01811
2.16457
1.40001
1.40001
1.40001
1.40001
1.40001
1.40001
1.40001
1.40001
1.40001
1.40001
1.40001
1.40001
1.40001
1.40007
1.40056
1.4036
1.41977
1.47198
1.5911
1.94152
2.25227
3.43129
3.59449
2.90659
1.83092
1.45138
1.40261
1.40007
1.40001
1.40001
1.40001
1.40001
1.40001
1.40001
1.40001
3.2615
3.91612
3.52026
2.15275
1.46731
1.40114
1.40001
1.4
1.40001
1.40001
1.40001
1.40001
1.40001
1.40001
1.40001
4.0722
3.99312
2.76574
1.61347
1.40735
1.40008
1.40001
1.40001
1.40001
1.40001
1.40001
1.40001
1.40001
1.40001
1.40001
4.52169
3.56576
1.90857
1.42665
1.40025
1.40001
1.40001
1.40001
1.40001
1.40001
1.40001
1.40001
1.40001
1.40001
1.40001
4.61985
2.35171
1.466
1.40073
1.40001
1.40001
1.40001
1.40001
1.40001
1.40001
1.40001
1.40001
1.40001
1.40001
1.40001
2.88058
1.50233
1.4007
1.4
1.4
1.40001
1.40001
1.40001
1.40001
1.40001
1.40001
1.40001
1.40001
1.40001
1.40001
1.54132
1.40075
1.4
1.4
1.40001
1.40001
1.40001
1.40001
1.40001
1.40001
1.40001
1.40001
1.40001
1.40001
1.40001
1.39742
1.39982
1.4
1.40001
1.40001
1.40001
1.40001
1.40001
1.40001
1.40001
1.40001
1.40001
1.40001
1.40001
1.40001
1.39996
1.40001
1.40001
1.40001
1.40001
1.40001
1.40001
1.40001
1.40001
1.40001
1.40001
1.40001
1.40001
1.40001
1.40001
1.40001
1.40001
1.40001
1.40001
1.40001
1.40001
1.40001
1.40001
1.40001
1.40001
1.40001
1.40001
1.40001
1.40001
1.40001
1.40001
1.40001
1.40001
1.40001
1.40001
1.40001
1.40001
1.40001
1.40001
1.40001
1.40001
1.40001
1.40001
1.40001
1.40001
1.40001
1.40001
1.40001
1.40001
1.40001
1.40001
1.40001
1.40001
1.40001
1.40001
1.40001
1.40001
1.40001
1.40001
1.40001
1.40001
1.40001
1.40001
1.40001
1.40001
1.40001
1.40001
1.40001
1.40001
1.40001
1.40001
1.40001
1.40001
1.40001
1.40001
1.40001
1.40001
1.40001
1.40001
1.40001
1.40001
1.40001
1.40001
1.40001
1.40001
1.40001
1.40001
1.40001
1.40001
1.40001
1.40001
1.40001
1.40001
1.40001
1.40001
1.40001
1.40001
1.40001
1.40001
1.40001
1.40001
1.40001
1.40001
1.40001
1.40001
1.40001
1.40001
1.40001
1.40001
1.40001
1.40001
1.40001
1.40001
1.40001
1.40001
1.40001
1.40001
1.40001
1.40001
1.40001
1.40001
1.40001
1.40001
1.40001
1.40001
1.40001
1.40001
1.40001
1.40001
1.40001
1.40001
1.40001
1.40001
1.40001
1.40001
1.40001
1.40001
1.40001
1.40001
1.40001
1.40001
1.40001
1.40001
1.40001
1.40001
1.40001
1.40001
1.40001
1.40001
1.40001
1.40001
1.40001
1.40001
1.40001
1.40001
1.40001
1.40001
1.40001
1.40001
1.40001
1.40001
1.40001
1.40001
1.40001
1.40001
1.40001
1.40001
1.40001
1.40001
1.40001
1.40001
1.40001
1.40001
1.40001
1.40001
1.40001
1.40001
1.40001
1.40001
1.40001
1.40001
1.40001
1.40001
1.40001
1.40001
1.40001
1.40001
1.40001
1.40001
1.40001
1.40001
1.40001
1.40001
1.40001
1.40001
1.40001
1.40001
1.40001
1.40001
1.40001
1.40001
1.40001
1.40001
1.40001
1.40001
1.40001
1.40001
1.40001
1.40001
1.40001
1.40001
1.40001
1.40001
1.40001
1.40001
1.40001
1.40001
1.40001
1.40001
1.40001
1.40001
1.40001
1.40001
1.40001
1.40001
1.40001
1.40001
1.40001
1.40001
1.40001
1.40001
1.40001
1.40001
1.40001
1.40001
1.40001
1.40001
1.40001
1.40001
1.40001
1.40001
1.40001
1.40001
1.40001
1.40001
1.40001
1.40001
1.40001
1.40001
1.40001
1.40001
1.40001
1.40001
1.40001
1.40001
1.40001
1.40001
1.40001
1.40001
1.40001
1.40001
1.40001
1.40001
1.40001
1.40001
1.40001
1.40001
1.40001
1.40001
1.40001
1.40001
1.40001
1.40001
1.40001
1.40001
1.40001
1.40001
1.40001
1.40001
1.40001
1.40001
1.40001
1.40001
1.40001
1.40001
1.40001
1.40001
1.40001
1.40001
1.40001
1.40001
1.40001
1.40001
1.40001
1.40001
1.40001
1.40001
1.40001
1.40001
1.40001
1.40001
1.40001
1.40001
1.40001
1.40001
1.40001
1.40001
1.40001
1.40001
1.40001
1.40001
1.40001
1.40001
1.40001
1.40001
1.40001
1.40001
1.40001
1.40001
1.40001
1.40001
1.40001
1.40001
1.40001
1.40001
1.40001
1.40001
1.40001
1.40001
1.40001
1.40001
1.40001
1.40001
1.40001
1.40001
1.40001
1.40001
1.40001
1.40001
1.40001
1.40001
1.40001
1.40001
1.40001
1.40001
1.40001
1.40001
1.40001
1.40001
1.40001
1.40001
1.40001
1.40001
1.40001
1.40001
1.40001
1.40001
1.40001
1.40001
1.40001
1.40001
1.40001
1.40001
1.40001
1.40001
1.40001
1.40001
1.40001
1.40001
1.40001
1.40001
1.40001
1.40001
1.40001
1.40001
1.40001
1.40001
1.40001
1.40001
1.40001
1.40001
1.40001
1.40001
1.40001
1.40001
1.40001
1.40001
1.40001
1.40001
1.40001
1.40001
1.40001
1.40001
1.40001
1.40001
1.40001
1.40001
1.40001
1.40001
1.40001
1.40001
1.40001
1.40001
1.40001
1.40001
1.40001
1.40001
1.40001
1.40001
1.40001
1.40001
1.40001
1.40001
1.40001
1.40001
1.40001
1.40001
1.40001
1.40001
1.40001
1.40001
1.40001
1.40001
1.40001
1.40001
1.40001
1.40001
1.40001
1.40001
1.40001
1.40001
1.40001
1.40001
1.40001
1.40001
1.40001
1.40001
1.40001
1.40001
1.40001
1.40001
1.40001
1.40001
1.40001
1.40001
1.40001
1.40001
1.40001
1.40001
1.40001
1.40001
1.40001
1.40001
1.40001
1.40001
1.40001
1.40001
1.40001
1.40001
1.40001
1.40001
1.40001
1.40001
1.40001
1.40001
1.40001
1.40001
1.40001
1.40001
1.40001
1.40001
1.40001
1.40001
1.40001
1.40001
1.40001
1.40001
1.40001
1.40001
1.40001
1.40001
1.40001
1.40001
1.40001
1.40001
1.40001
1.40001
1.40001
1.40001
1.40001
1.40001
1.40001
1.40001
1.40001
1.40001
1.40001
1.40001
1.40001
1.40001
1.40001
1.40001
1.40001
1.40001
1.40001
1.40001
1.40001
1.40001
1.40001
1.40001
1.40001
1.40001
1.40001
1.40001
1.40001
1.40001
1.40001
1.40001
1.40001
1.40001
1.40001
1.40001
1.40001
1.40001
1.40001
1.40001
1.40001
1.40001
1.40001
1.40001
1.40001
1.40001
1.40001
1.40001
1.40001
1.40001
1.40001
1.40001
1.40001
1.40001
1.40001
1.40001
1.40001
1.40001
1.40001
1.40001
1.40001
1.40001
1.40001
1.40001
1.40001
1.40001
1.40001
1.40001
1.40001
1.40001
1.40001
1.40001
1.40001
1.40001
1.40001
1.40001
1.40001
1.40001
1.40001
1.40001
1.40001
1.40001
1.40001
1.40001
1.40001
1.40001
1.40001
1.40001
1.40001
1.40001
1.40001
1.40001
1.40001
1.40001
1.40001
1.40001
1.40001
1.40001
1.40001
1.40001
1.40001
1.40001
1.40001
1.40001
1.40001
1.40001
1.40001
1.40001
1.40001
1.40001
1.40001
1.40001
1.40001
1.40001
1.40001
1.40001
1.40001
1.40001
1.40001
1.40001
1.40001
1.40001
1.40001
1.40001
1.40001
1.40001
1.40001
1.40001
1.40001
1.40001
1.40001
1.40001
1.40001
1.40001
1.40001
1.40001
1.40001
1.40001
1.40001
1.40001
1.40001
1.40001
1.40001
1.40001
1.40001
1.40001
1.40001
1.40001
1.40001
1.40001
1.40001
1.40001
1.40001
1.40001
1.40001
1.40001
1.40001
1.40001
1.40001
1.40001
1.40001
1.40001
1.40001
1.40001
1.40001
1.40001
1.40001
1.40001
1.40001
1.40001
1.40001
1.40001
1.40001
1.40001
1.40001
1.40001
1.40001
1.40001
1.40001
1.40001
1.40001
1.40001
1.40001
1.40001
1.40001
1.40001
1.40001
1.40001
1.40001
1.40001
1.40001
1.40001
1.40001
1.40001
1.40001
1.40001
1.40001
1.40001
1.40001
1.40001
1.40001
1.40001
1.40001
1.40001
1.40001
1.40001
1.40001
1.40001
1.40001
1.40001
1.40001
1.40001
1.40001
1.40001
1.40001
1.40001
1.40001
1.40001
1.40001
1.40001
1.40001
1.40001
1.40001
1.40001
1.40001
1.40001
1.40001
1.40001
1.40001
1.40001
1.40001
1.40001
1.40001
1.40001
1.40001
1.40001
1.40001
1.40001
1.40001
1.40001
1.40001
1.40001
1.40001
1.40001
1.40001
1.40001
1.40001
1.40001
1.40001
1.40001
1.40001
1.40001
1.40001
1.40001
1.40001
1.40001
1.40001
1.40001
1.40001
1.40001
1.40001
1.40001
1.40001
1.40001
1.40001
1.40001
1.40001
1.40001
1.40001
1.40001
1.40001
1.40001
1.40001
1.40001
1.40001
1.40001
1.40001
1.40001
1.40001
1.40001
1.40001
1.40001
1.40001
1.40001
1.40001
1.40001
1.40001
1.40001
1.40001
1.40001
1.40001
1.40001
1.40001
1.40001
1.40001
1.40001
1.40001
1.40001
1.40001
1.40001
1.40001
1.40001
1.40001
1.40001
1.40001
1.40001
1.40001
1.40001
1.40001
1.40001
1.40001
1.40001
1.40001
1.40001
1.40001
1.40001
1.40001
1.40001
1.40001
1.40001
1.40001
1.40001
1.40001
1.40001
1.40001
1.40001
1.40001
1.40001
1.40001
1.40001
1.40001
1.40001
1.40001
1.40001
1.40001
1.40001
1.40001
1.40001
1.40001
1.40001
1.40001
1.40001
1.40001
1.40001
1.40001
1.40001
1.40001
1.40001
1.40001
1.40001
1.40001
1.40001
1.40001
1.40001
1.40001
1.40001
1.40001
1.40001
1.40001
1.40001
1.39996
1.40001
1.40001
1.40001
1.40001
1.40001
1.40001
1.40001
1.40001
1.40001
1.40001
1.40001
1.40001
1.40001
1.40001
1.39743
1.39982
1.4
1.40001
1.40001
1.40001
1.40001
1.40001
1.40001
1.40001
1.40001
1.40001
1.40001
1.40001
1.40001
1.54097
1.40075
1.4
1.4
1.40001
1.40001
1.40001
1.40001
1.40001
1.40001
1.40001
1.40001
1.40001
1.40001
1.40001
2.87977
1.50208
1.40069
1.4
1.4
1.40001
1.40001
1.40001
1.40001
1.40001
1.40001
1.40001
1.40001
1.40001
1.40001
4.6206
2.35081
1.46592
1.40074
1.40001
1.40001
1.40001
1.40001
1.40001
1.40001
1.40001
1.40001
1.40001
1.40001
1.40001
4.52182
3.56501
1.90812
1.42661
1.40025
1.40001
1.40001
1.40001
1.40001
1.40001
1.40001
1.40001
1.40001
1.40001
1.40001
4.07282
3.99294
2.76547
1.61346
1.40736
1.40008
1.40001
1.40001
1.40001
1.40001
1.40001
1.40001
1.40001
1.40001
1.40001
3.26083
3.91609
3.52049
2.15305
1.46737
1.40114
1.40001
1.4
1.40001
1.40001
1.40001
1.40001
1.40001
1.40001
1.40001
2.25267
3.43053
3.59464
2.90711
1.83111
1.45143
1.40261
1.40007
1.40001
1.40001
1.40001
1.40001
1.40001
1.40001
1.40001
1.74547
2.8173
3.48879
3.29682
2.35156
1.55144
1.40626
1.40013
1.40001
1.40001
1.40001
1.40001
1.40001
1.40001
1.40001
1.3843
2.05848
3.01716
3.27155
2.98614
2.01031
1.46265
1.4016
1.40002
1.40001
1.40001
1.40001
1.40001
1.40001
1.40001
1.1438
1.69751
2.37701
3.11117
3.09623
2.5796
1.68636
1.41464
1.40021
1.40001
1.40001
1.40001
1.40001
1.40001
1.40001
0.909075
1.40512
1.92576
2.67128
3.05306
2.94841
2.16284
1.50816
1.40342
1.40004
1.40001
1.40001
1.40001
1.40001
1.40001
0.825866
1.07857
1.52235
2.20561
2.88471
2.94754
2.59809
1.77393
1.42664
1.40047
1.40001
1.40001
1.40001
1.40001
1.40001
0.837255
1.02057
1.27305
1.7604
2.492
2.89654
2.82227
2.19973
1.53992
1.40535
1.40007
1.40001
1.40001
1.40001
1.40001
0.849076
0.996237
1.15727
1.50576
2.06671
2.68956
2.81205
2.54587
1.80435
1.43517
1.40074
1.40001
1.40001
1.40001
1.40001
0.823878
0.941894
1.05188
1.31926
1.74889
2.3644
2.75099
2.70191
2.18093
1.54998
1.40619
1.40008
1.40001
1.40001
1.40001
0.780227
0.86026
0.980728
1.23257
1.49294
1.99065
2.56573
2.69242
2.46959
1.79933
1.43836
1.40088
1.40001
1.40001
1.40001
0.728053
0.802317
0.946303
1.16143
1.33737
1.70965
2.25212
2.63156
2.59212
2.12645
1.5464
1.40656
1.40009
1.40001
1.40001
0.67966
0.756901
0.913758
1.06492
1.19883
1.52408
1.9639
2.46821
2.58482
2.3892
1.77014
1.43457
1.40077
1.40001
1.40001
0.663306
0.75097
0.888509
0.983955
1.08741
1.35896
1.70729
2.22047
2.5376
2.49842
2.05569
1.53508
1.4065
1.40009
1.40001
0.656648
0.740615
0.857984
0.921446
1.04524
1.28446
1.49358
1.92491
2.39946
2.49189
2.29893
1.72652
1.4288
1.40064
1.40001
0.657672
0.716097
0.805112
0.860381
1.00086
1.20842
1.36792
1.69732
2.16518
2.45097
2.41483
1.98702
1.51491
1.40524
1.40007
0.676395
0.68494
0.75602
0.823324
0.957517
1.10952
1.24628
1.54125
1.93255
2.3409
2.40965
2.19684
1.67668
1.42424
1.40056
0.79479
0.688965
0.733961
0.812767
0.937867
1.03221
1.13802
1.3971
1.71456
2.15201
2.38003
2.33494
1.92017
1.4889
1.4036
1.04733
0.743355
0.743548
0.796787
0.913415
0.970927
1.0788
1.30906
1.53044
1.93034
2.29833
2.33267
2.1033
1.63069
1.41977
1.23894
0.901225
0.756269
0.779944
0.870172
0.914298
1.0279
1.24179
1.39518
1.71176
2.13505
2.31448
2.24433
1.84019
1.47203
1.31038
1.10108
0.805566
0.767048
0.806652
0.872035
1.01413
1.16698
1.29462
1.56844
1.94876
2.26181
2.25899
2.01836
1.59129
1.32892
1.26602
1.03736
0.816506
0.811391
0.845678
0.971524
1.05816
1.16686
1.40029
1.67097
2.04897
2.22673
2.16472
1.94174
1.22578
1.06766
0.866282
0.764255
0.75914
0.773471
0.752337
0.707102
0.675224
0.626592
0.59927
0.594143
0.605808
0.65346
0.864378
1.17069
1.22098
1.29993
1.35811
1.34343
0.962235
0.847829
0.708495
0.667527
0.686027
0.693045
0.669789
0.635831
0.609484
0.583095
0.560674
0.568143
0.625052
0.882211
1.19213
1.30912
1.26978
1.28757
1.34641
1.3486
0.743408
0.677657
0.612634
0.612046
0.619337
0.608195
0.579251
0.557593
0.54788
0.535615
0.542156
0.61382
0.890122
1.19254
1.27663
1.32272
1.30167
1.29729
1.32846
1.34962
0.560774
0.543315
0.540787
0.555504
0.555503
0.537193
0.517927
0.50687
0.507348
0.520565
0.638037
0.926735
1.20819
1.28964
1.28642
1.31799
1.31902
1.30532
1.31983
1.34783
0.424338
0.442991
0.471372
0.488635