/*--------------------------------*- C++ -*----------------------------------*\
  =========                 |
  \\      /  F ield         | OpenFOAM: The Open Source CFD Toolbox
   \\    /   O peration     | Website:  https://openfoam.org
    \\  /    A nd           | Version:  7
     \\/     M anipulation  |
\*---------------------------------------------------------------------------*/
FoamFile
{
    version     2.0;
    format      ascii;
    class       volScalarField;
    location    "10";
    object      T;
}
// * * * * * * * * * * * * * * * * * * * * * * * * * * * * * * * * * * * * * //

dimensions      [0 0 0 1 0 0 0];

internalField   nonuniform List<scalar> 
3700
(
100.622
100.792
100.903
100.977
100.997
101.009
101.018
101.016
101.003
101.02
101.082
101.155
101.161
101.15
101.145
101.137
101.125
101.107
101.066
101.039
100.315
100.4
100.507
100.531
100.494
100.531
100.559
100.509
100.322
100.331
100.463
100.613
100.634
100.594
100.557
100.568
100.578
100.541
100.437
100.379
100.215
100.233
100.194
100.095
99.9702
99.8649
99.8656
99.8842
99.9066
99.9572
100.014
100.03
100.037
100.037
100.025
100.017
100.008
100.006
100.017
100.036
100.117
100.156
100.129
100.039
99.9006
99.8449
99.8454
99.8628
99.8826
99.9353
99.9938
100.029
100.058
100.081
100.084
100.089
100.078
100.049
100.027
100.052
100.014
100.048
100.008
99.9312
99.8787
99.8895
99.8972
99.8739
99.8837
99.9339
99.9725
100.007
100.05
100.087
100.106
100.122
100.13
100.129
100.114
100.108
99.943
99.9814
99.9596
99.9227
99.9892
100.026
100.032
100.012
100.009
100.029
100.004
100.013
100.039
100.076
100.105
100.128
100.153
100.174
100.184
100.201
99.8997
99.9534
99.9581
100.006
100.076
100.108
100.096
100.11
100.131
100.138
100.126
100.12
100.11
100.115
100.116
100.128
100.158
100.2
100.225
100.263
99.8866
99.9608
100.018
100.046
100.1
100.127
100.104
100.138
100.189
100.201
100.21
100.208
100.217
100.224
100.225
100.225
100.224
100.237
100.264
100.318
99.9228
100.011
100.035
100.028
100.071
100.115
100.095
100.128
100.191
100.224
100.247
100.255
100.279
100.29
100.303
100.31
100.315
100.323
100.334
100.381
100.015
100.011
99.9824
100.004
100.061
100.103
100.089
100.132
100.179
100.221
100.255
100.277
100.31
100.329
100.352
100.372
100.386
100.398
100.417
100.451
100.066
99.9546
99.9275
100.014
100.099
100.125
100.16
100.222
100.252
100.294
100.316
100.337
100.353
100.368
100.39
100.419
100.448
100.468
100.504
100.494
100.059
99.9005
99.9205
100.053
100.124
100.16
100.229
100.301
100.347
100.393
100.412
100.431
100.443
100.453
100.464
100.483
100.512
100.538
100.577
100.57
100.053
99.8792
99.9231
100.05
100.117
100.154
100.266
100.334
100.399
100.459
100.481
100.5
100.514
100.528
100.549
100.573
100.6
100.621
100.651
100.653
100.037
99.8414
99.898
99.9789
100.078
100.198
100.323
100.388
100.465
100.514
100.542
100.563
100.58
100.6
100.629
100.661
100.69
100.713
100.726
100.734
99.95
99.764
99.8863
100.001
100.185
100.418
100.506
100.564
100.611
100.634
100.647
100.658
100.671
100.691
100.72
100.749
100.772
100.784
100.78
100.774
99.6285
99.723
99.8496
100.168
100.445
100.592
100.636
100.676
100.709
100.727
100.739
100.754
100.772
100.794
100.813
100.824
100.822
100.815
100.79
100.743
99.3766
99.7028
100.136
100.47
100.637
100.695
100.73
100.764
100.789
100.804
100.817
100.834
100.85
100.855
100.854
100.843
100.792
100.681
100.519
100.278
99.5727
100.142
100.488
100.666
100.768
100.81
100.837
100.86
100.873
100.881
100.882
100.883
100.882
100.858
100.771
100.621
100.359
100.102
100.006
99.9978
100.128
100.522
100.734
100.841
100.889
100.905
100.918
100.921
100.917
100.908
100.895
100.842
100.727
100.47
100.147
100.01
99.9966
99.9985
99.9992
99.9998
100.696
100.837
100.913
100.95
100.963
100.955
100.952
100.926
100.845
100.766
100.581
100.238
100.032
99.9958
99.9978
99.9989
99.9998
100
100
100
100.998
100.996
100.992
100.991
100.984
100.95
100.875
100.432
99.8584
100
100
100
100
100
100
100
100
100
100
100
100.994
100.992
100.985
100.975
100.964
100.869
100.501
100.015
100
100
100
100
100
100
100
100
100
100
100
100
100.989
100.99
100.984
100.965
100.92
100.653
100.05
99.9991
100
100
100
100
100
100
100
100
100
100
100
100
100.984
100.989
100.984
100.954
100.786
100.238
99.9962
100
100
100
100
100
100
100
100
100
100
100
100
100
100.979
100.987
100.981
100.918
100.546
99.9924
100
100
100
100
100
100
100
100
100
100
100
100
100
100
100.978
100.986
100.979
100.832
100.273
100
100
100
100
100
100
100
100
100
100
100
100
100
100
100
100.978
100.988
100.976
100.709
100.003
100
100
100
100
100
100
100
100
100
100
100
100
100
100
100
100.984
100.983
100.925
100.458
99.9978
100
100
100
100
100
100
100
100
100
100
100
100
100
100
100
101.001
100.964
100.818
100.16
100
100
100
100
100
100
100
100
100
100
100
100
100
100
100
100
101.014
100.942
100.677
99.9964
100
100
100
100
100
100
100
100
100
100
100
100
100
100
100
100
101.023
100.903
100.5
100
100
100
100
100
100
100
100
100
100
100
100
100
100
100
100
100
101.028
100.848
100.314
100
100
100
100
100
100
100
100
100
100
100
100
100
100
100
100
100
101.033
100.794
100.109
100
100
100
100
100
100
100
100
100
100
100
100
100
100
100
100
100
101.033
100.739
100.006
100
100
100
100
100
100
100
100
100
100
100
100
100
100
100
100
100
101.011
100.684
100
100
100
100
100
100
100
100
100
100
100
100
100
100
100
100
100
100
100.987
100.566
100
100
100
100
100
100
100
100
100
100
100
100
100
100
100
100
100
100
100.944
100.417
100
100
100
100
100
100
100
100
100
100
100
100
100
100
100
100
100
100
100.907
100.228
100
100
100
100
100
100
100
100
100
100
100
100
100
100
100
100
100
100
100.868
100.004
100
100
100
100
100
100
100
100
100
100
100
100
100
100
100
100
100
100
100.811
100
100
100
100
100
100
100
100
100
100
100
100
100
100
100
100
100
100
100
100.809
100
100
100
100
100
100
100
100
100
100
100
100
100
100
100
100
100
100
100
100.868
100.005
100
100
100
100
100
100
100
100
100
100
100
100
100
100
100
100
100
100
100.911
100.234
100
100
100
100
100
100
100
100
100
100
100
100
100
100
100
100
100
100
100.945
100.418
100
100
100
100
100
100
100
100
100
100
100
100
100
100
100
100
100
100
100.985
100.562
100
100
100
100
100
100
100
100
100
100
100
100
100
100
100
100
100
100
101.01
100.681
100
100
100
100
100
100
100
100
100
100
100
100
100
100
100
100
100
100
101.033
100.742
100.01
100
100
100
100
100
100
100
100
100
100
100
100
100
100
100
100
100
101.034
100.797
100.112
100
100
100
100
100
100
100
100
100
100
100
100
100
100
100
100
100
101.029
100.849
100.315
100
100
100
100
100
100
100
100
100
100
100
100
100
100
100
100
100
101.023
100.902
100.5
100
100
100
100
100
100
100
100
100
100
100
100
100
100
100
100
100
101.014
100.942
100.675
99.9964
100
100
100
100
100
100
100
100
100
100
100
100
100
100
100
100
101
100.963
100.817
100.161
100
100
100
100
100
100
100
100
100
100
100
100
100
100
100
100
100.983
100.979
100.922
100.457
99.9987
100
100
100
100
100
100
100
100
100
100
100
100
100
100
100
100.978
100.99
100.978
100.704
99.9964
100
100
100
100
100
100
100
100
100
100
100
100
100
100
100
100.979
100.988
100.98
100.835
100.283
100
100
100
100
100
100
100
100
100
100
100
100
100
100
100
100.98
100.988
100.982
100.919
100.549
99.9924
100
100
100
100
100
100
100
100
100
100
100
100
100
100
100.984
100.989
100.984
100.954
100.782
100.231
99.9963
100
100
100
100
100
100
100
100
100
100
100
100
100
100.989
100.99
100.985
100.965
100.916
100.647
100.047
99.9991
100
100
100
100
100
100
100
100
100
100
100
100
100.994
100.991
100.985
100.975
100.962
100.871
100.508
100.017
100
100
100
100
100
100
100
100
100
100
100
100
100.997
100.995
100.991
100.99
100.985
100.951
100.877
100.435
99.8573
100
100
100
100
100
100
100
100
100
100
100
100.695
100.837
100.912
100.95
100.964
100.956
100.953
100.927
100.843
100.765
100.58
100.237
100.031
99.9958
99.9978
99.9989
99.9998
100
100
100
100.127
100.523
100.733
100.839
100.889
100.906
100.92
100.921
100.917
100.908
100.895
100.842
100.728
100.472
100.148
100.01
99.9967
99.9985
99.9992
99.9998
99.5663
100.14
100.49
100.668
100.767
100.809
100.837
100.859
100.873
100.881
100.881
100.883
100.882
100.858
100.771
100.621
100.359
100.102
100.006
99.9978
99.3801
99.723
100.128
100.469
100.639
100.696
100.731
100.765
100.789
100.804
100.817
100.834
100.851
100.855
100.854
100.843
100.792
100.68
100.519
100.278
99.6532
99.7479
99.856
100.176
100.453
100.591
100.637
100.677
100.709
100.726
100.738
100.754
100.773
100.795
100.813
100.824
100.822
100.815
100.79
100.744
99.9887
99.802
99.9115
99.9953
100.193
100.417
100.502
100.559
100.607
100.631
100.645
100.657
100.671
100.691
100.721
100.749
100.772
100.784
100.78
100.775
100.051
99.8754
99.9
99.9657
100.065
100.187
100.316
100.388
100.464
100.514
100.543
100.565
100.583
100.601
100.63
100.661
100.69
100.713
100.727
100.734
100.052
99.8997
99.931
100.04
100.108
100.172
100.268
100.34
100.404
100.461
100.483
100.502
100.516
100.529
100.548
100.572
100.598
100.62
100.652
100.653
100.027
99.9152
99.9402
100.056
100.118
100.163
100.231
100.301
100.347
100.394
100.413
100.432
100.443
100.451
100.462
100.481
100.511
100.538
100.578
100.57
100.001
99.9619
99.951
100.022
100.092
100.125
100.154
100.215
100.251
100.294
100.315
100.335
100.351
100.367
100.39
100.42
100.449
100.469
100.505
100.494
99.9344
99.998
100
100.009
100.055
100.088
100.09
100.129
100.181
100.223
100.257
100.278
100.311
100.33
100.353
100.373
100.386
100.398
100.417
100.45
99.8689
99.9812
100.029
100.032
100.069
100.099
100.099
100.13
100.191
100.224
100.247
100.255
100.279
100.29
100.303
100.31
100.314
100.322
100.333
100.381
99.8526
99.9282
99.9981
100.034
100.086
100.112
100.108
100.139
100.187
100.2
100.209
100.206
100.215
100.222
100.222
100.222
100.221
100.239
100.267
100.319
99.8728
99.9169
99.9301
99.9936
100.054
100.084
100.093
100.111
100.129
100.138
100.123
100.118
100.109
100.113
100.117
100.132
100.165
100.206
100.228
100.263
99.9331
99.9372
99.9288
99.9163
99.9593
99.9924
100.011
100.01
100.007
100.031
100.01
100.022
100.049
100.085
100.113
100.135
100.158
100.176
100.184
100.2
99.9795
99.9931
99.9839
99.9206
99.8674
99.8643
99.8766
99.8886
99.907
99.9512
99.9884
100.021
100.061
100.096
100.112
100.126
100.13
100.128
100.11
100.104
100.015
100.054
100.079
100.046
99.9216
99.8484
99.8512
99.8873
99.9097
99.9574
100.012
100.04
100.066
100.087
100.088
100.087
100.072
100.042
100.023
100.053
100.096
100.134
100.146
100.11
100.019
99.8894
99.8681
99.9099
99.9377
99.982
100.022
100.033
100.037
100.035
100.021
100.009
100.001
100.003
100.017
100.039
100.235
100.309
100.368
100.409
100.518
100.544
100.49
100.47
100.554
100.569
100.476
100.396
100.438
100.542
100.568
100.521
100.432
100.433
100.475
100.452
100.597
100.769
100.842
100.904
100.982
100.991
100.979
100.977
101.009
101.066
101.059
101.051
101.093
101.132
101.133
101.115
101.084
101.071
101.065
101.057
101.043
101.027
101.004
100.987
100.963
100.942
100.915
100.902
100.894
100.88
100.866
100.86
100.854
100.849
100.838
100.827
100.819
100.814
100.811
100.804
100.57
100.64
100.687
100.726
100.78
100.809
100.804
100.799
100.803
100.81
100.814
100.813
100.807
100.799
100.791
100.79
100.792
100.791
100.788
100.781
100.027
100.054
100.158
100.276
100.447
100.536
100.58
100.608
100.637
100.67
100.69
100.694
100.693
100.691
100.691
100.7
100.713
100.719
100.719
100.72
100.081
100.089
100.099
100.097
100.132
100.224
100.364
100.434
100.485
100.536
100.573
100.573
100.572
100.573
100.58
100.596
100.613
100.622
100.624
100.632
100.124
100.133
100.132
100.141
100.132
100.128
100.154
100.228
100.345
100.44
100.488
100.501
100.501
100.498
100.505
100.522
100.535
100.539
100.541
100.551
100.183
100.173
100.18
100.185
100.177
100.173
100.17
100.16
100.178
100.279
100.393
100.46
100.469
100.467
100.467
100.477
100.486
100.486
100.488
100.496
100.246
100.219
100.214
100.218
100.217
100.211
100.204
100.191
100.173
100.179
100.241
100.357
100.441
100.453
100.449
100.451
100.451
100.45
100.456
100.466
100.308
100.274
100.249
100.249
100.25
100.245
100.232
100.216
100.198
100.177
100.178
100.215
100.327
100.424
100.433
100.434
100.429
100.43
100.44
100.447
100.369
100.336
100.293
100.275
100.277
100.273
100.261
100.245
100.221
100.2
100.178
100.178
100.202
100.307
100.392
100.418
100.412
100.416
100.431
100.431
100.435
100.403
100.348
100.312
100.3
100.294
100.282
100.267
100.245
100.211
100.195
100.181
100.183
100.193
100.28
100.378
100.392
100.408
100.418
100.414
100.532
100.466
100.41
100.346
100.306
100.305
100.309
100.299
100.278
100.246
100.214
100.199
100.188
100.179
100.182
100.23
100.314
100.367
100.374
100.378
100.616
100.542
100.488
100.442
100.373
100.336
100.33
100.311
100.283
100.26
100.235
100.219
100.205
100.186
100.165
100.155
100.172
100.226
100.277
100.319
100.608
100.586
100.534
100.485
100.434
100.374
100.339
100.312
100.291
100.28
100.261
100.24
100.22
100.196
100.169
100.151
100.142
100.131
100.143
100.219
100.488
100.547
100.541
100.514
100.475
100.422
100.374
100.338
100.317
100.297
100.267
100.236
100.212
100.189
100.166
100.148
100.13
100.112
100.098
100.106
100.25
100.377
100.446
100.482
100.475
100.45
100.408
100.364
100.324
100.291
100.26
100.226
100.213
100.201
100.179
100.157
100.138
100.116
100.091
100.073
100.043
100.145
100.254
100.336
100.388
100.415
100.405
100.381
100.342
100.302
100.274
100.241
100.218
100.2
100.175
100.148
100.122
100.1
100.083
100.062
100.002
100.015
100.066
100.155
100.232
100.29
100.329
100.349
100.34
100.314
100.283
100.249
100.211
100.185
100.161
100.133
100.113
100.097
100.089
100.068
100
100
100.003
100.025
100.078
100.15
100.208
100.249
100.28
100.29
100.281
100.261
100.229
100.196
100.17
100.142
100.123
100.107
100.088
100.056
100
100
100
100.001
100.006
100.03
100.081
100.14
100.187
100.216
100.24
100.245
100.236
100.214
100.186
100.157
100.128
100.103
100.08
100.05
100
100
100
100
100
100.001
100.008
100.032
100.078
100.128
100.171
100.192
100.21
100.209
100.201
100.183
100.156
100.125
100.1
100.069
100
100
100
100
100
100
100
100.001
100.008
100.032
100.073
100.117
100.155
100.175
100.186
100.184
100.178
100.161
100.136
100.097
100
100
100
100
100
100
100
100
100
100.001
100.008
100.029
100.065
100.107
100.14
100.16
100.169
100.167
100.162
100.139
100
100
100
100
100
100
100
100
100
100
100
100.001
100.006
100.025
100.057
100.097
100.126
100.146
100.155
100.152
100
100
100
100
100
100
100
100
100
100
100
100
100
100.001
100.005
100.019
100.048
100.085
100.113
100.137
100
100
100
100
100
100
100
100
100
100
100
100
100
100
100
100.001
100.004
100.016
100.041
100.105
100.597
100.654
100.609
100.415
100.142
100.017
100.001
100
100
100
100
100
100
100
100
100.672
100.663
100.518
100.217
100.022
100
100
100
100
100
100
100
100
100
100
100.704
100.636
100.374
100.074
100.002
100
100
100
100
100
100
100
100
100
100
100.718
100.519
100.167
100.009
100
100
100
100
100
100
100
100
100
100
100
100.651
100.285
100.025
100
100
100
100
100
100
100
100
100
100
100
100
100.392
100.038
100
100
100
100
100
100
100
100
100
100
100
100
100
100.042
100
100
100
100
100
100
100
100
100
100
100
100
100
100
99.9995
100
100
100
100
100
100
100
100
100
100
100
100
100
100
100
100
100
100
100
100
100
100
100
100
100
100
100
100
100
100
100
100
100
100
100
100
100
100
100
100
100
100
100
100
100
100
100
100
100
100
100
100
100
100
100
100
100
100
100
100
100
100
100
100
100
100
100
100
100
100
100
100
100
100
100
100
100
100
100
100
100
100
100
100
100
100
100
100
100
100
100
100
100
100
100
100
100
100
100
100
100
100
100
100
100
100
100
100
100
100
100
100
100
100
100
100
100
100
100
100
100
100
100
100
100
100
100
100
100
100
100
100
100
100
100
100
100
100
100
100
100
100
100
100
100
100
100
100
100
100
100
100
100
100
100
100
100
100
100
100
100
100
100
100
100
100
100
100
100
100
100
100
100
100
100
100
100
100
100
100
100
100
100
100
100
100
100
100
100
100
100
100
100
100
100
100
100
100
100
100
100
100
100
100
100
100
100
100
100
100
100
100
100
100
100
100
100
100
100
100
100
100
100
100
100
100
100
100
100
100
100
100
100
100
100
100
100
100
100
100
100
100
100
100
100
100
100
100
100
100
100
100
100
100
100
100
100
100
100
100
100
100
100
100
100
100
100
100
100
100
100
100
100
100
100
100
100
100
100
100
100
100
100
100
100
100
100
100
100
100
100
100
100
100
100
100
100
100
100
100
100
100
100
100
100
100
100
100
100
100
100
100
100
100
100
100
100
100
100
100
100
100
100
100
100
100
100
100
100
100
100
100
100
100
100
100
100
100
100
100
100
100
100
100
100
100
100
100
100
100
100
100
100
100
100
100
100
100
100
100
100
100
100
100
100
100
100
100
100
100
100
100
100
100
100
100
100
100
100
100
100
100
100
100
100
100
100
100
100
100
100
100
100
100
100
100
100
100
100
100
100
100
100
100
100
100
100
100
100
100
100
100
100
100
100
100
100
100
100
100
100
100
100
100
100
100
100
100
100
100
100
100
100
100
100
100
100
100
100
100
100
100
100
100
100
100
100
100
100
100
100
100
100
100
100
100
100
100
100
100
100
100
100
100
100
100
100
100
100
100
100
100
100
100
100
100
100
100
100
100
100
100
100
100
100
100
100
100
100
100
100
100
100
100
100
100
100
100
100
100
100
100
100
100
100
100
100
100
100
100
100
100
100
100
100
100
100
100
100
100
100
100
100
100
100
100
100
100
100
100
100
100
100
100
100
100
100
100
100
100
100
100
100
100
100
100
100
100
100
100
100
100
100
100
100
100
100
100
100
100
100
100
100
100
100
100
100
100
100
100
100
100
100
100
100
100
100
100
100
100
100
100
100
100
100
100
100
100
100
100
100
100
100
100
100
100
100
100
100
100
100
100
100
100
100
100
100
100
100
100
100
100
100
100
100
100
100
100
100
100
100
100
100
100
100
100
100
100
100
100
100
100
100
100
100
100
100
100
100
100
100
100
100
100
100
100
100
100
100
100
100
100
100
100
100
100
100
100
100
100
100
100
100
100
100
100
100
100
100
100
100
100
100
100
100
100
100
100
100
100
100
100
100
100
100
100
100
100
100
100
100
100
100
100
100
100
100
100
100
100
100
100
100
100
100
100
100
100
100
100
100
100
100
100
100
100
100
100
100
100
100
100
100
100
100
100
100
100
100
100
100
100
100
100
100
100
100
100
100
100
100
100
100
100
100
100
100
100
100
100
100
100
100
100
100
100
100
100
100
100
100
100
100
100
100
100
100
100
100
100
100
100
100
100
100
100
100
100
100
100
100
100
100
100
100
100
100
100
100
100
100
100
100
100
100
100
100
100
100
100
100
100
100
100
100
100
100
100
100
100
100
100
100
100
100
100
100
100
100
100
100
100
100
100
100
100
100
100
100
100
100
100
100
100
100
100
100
100
100
100
100
100
100
100
100
100
100
100
100
100
100
100
100
100
100
100
100
100
100
100
100
100
100
100
100
100
100
100
100
100
100
100
100
100
99.9995
100
100
100
100
100
100
100
100
100
100
100
100
100
100
100.042
100
100
100
100
100
100
100
100
100
100
100
100
100
100
100.392
100.038
100
100
100
100
100
100
100
100
100
100
100
100
100
100.651
100.285
100.025
100
100
100
100
100
100
100
100
100
100
100
100
100.718
100.519
100.167
100.009
100
100
100
100
100
100
100
100
100
100
100
100.704
100.636
100.374
100.074
100.002
100
100
100
100
100
100
100
100
100
100
100.672
100.663
100.518
100.218
100.022
100
100
100
100
100
100
100
100
100
100
100.597
100.653
100.609
100.415
100.142
100.017
100.001
100
100
100
100
100
100
100
100
100.531
100.617
100.608
100.488
100.25
100.043
100.002
100
100
100
100
100
100
100
100
100.464
100.54
100.587
100.547
100.377
100.146
100.015
100
100
100
100
100
100
100
100
100.413
100.489
100.535
100.541
100.446
100.254
100.065
100.003
100
100
100
100
100
100
100
100.347
100.442
100.485
100.514
100.482
100.336
100.154
100.024
100.001
100
100
100
100
100
100
100.308
100.373
100.429
100.475
100.475
100.388
100.232
100.078
100.006
100
100
100
100
100
100
100.307
100.344
100.378
100.42
100.449
100.415
100.29
100.15
100.03
100.001
100
100
100
100
100
100.307
100.328
100.343
100.377
100.408
100.405
100.329
100.209
100.081
100.008
100
100
100
100
100
100.294
100.306
100.311
100.339
100.366
100.381
100.349
100.25
100.14
100.032
100.001
100
100
100
100
100.274
100.279
100.292
100.318
100.324
100.342
100.34
100.279
100.187
100.078
100.009
100
100
100
100
100.247
100.255
100.279
100.296
100.291
100.303
100.314
100.29
100.216
100.128
100.031
100.001
100
100
100
100.218
100.233
100.26
100.265
100.258
100.273
100.283
100.281
100.241
100.17
100.073
100.008
100
100
100
100.203
100.22
100.241
100.235
100.227
100.241
100.248
100.261
100.244
100.192
100.117
100.029
100.001
100
100
100.192
100.206
100.221
100.211
100.212
100.221
100.213
100.228
100.236
100.21
100.155
100.065
100.006
100
100
100.184
100.186
100.195
100.188
100.195
100.2
100.187
100.196
100.215
100.209
100.175
100.107
100.025
100.001
100
100.182
100.165
100.168
100.167
100.175
100.172
100.16
100.17
100.187
100.201
100.186
100.14
100.057
100.005
100
100.227
100.156
100.151
100.151
100.159
100.144
100.132
100.144
100.158
100.183
100.184
100.16
100.097
100.02
100.001
100.313
100.173
100.144
100.132
100.141
100.121
100.114
100.125
100.128
100.156
100.178
100.169
100.126
100.048
100.004
100.363
100.225
100.133
100.115
100.117
100.099
100.098
100.108
100.102
100.125
100.161
100.167
100.146
100.085
100.016
100.374
100.277
100.144
100.101
100.093
100.082
100.088
100.087
100.08
100.1
100.136
100.162
100.155
100.113
100.041
100.379
100.319
100.22
100.108
100.075
100.06
100.066
100.055
100.049
100.069
100.097
100.139
100.152
100.137
100.105
100.436
100.404
100.349
100.309
100.297
100.298
100.288
100.269
100.249
100.216
100.193
100.182
100.185
100.196
100.28
100.369
100.383
100.405
100.418
100.414
100.369
100.337
100.29
100.27
100.275
100.275
100.265
100.249
100.227
100.201
100.179
100.181
100.202
100.304
100.393
100.42
100.412
100.417
100.431
100.432
100.308
100.276
100.245
100.244
100.248
100.244
100.233
100.217
100.2
100.179
100.181
100.215
100.327
100.413
100.43
100.439
100.434
100.434
100.442
100.447
100.246
100.219
100.212
100.217
100.217
100.211
100.204
100.191
100.179
100.182
100.244
100.357
100.435
100.452
100.45
100.455
100.455
100.453
100.458
100.467
100.182
100.175
100.179
100.183
100.175
100.171
100.166
100.158
100.186
100.283
100.394
100.456
100.465
100.471
100.474
100.48
100.486
100.486
100.488
100.498
100.124
100.134
100.131
100.142
100.136
100.127
100.157
100.236
100.357
100.443
100.48
100.494
100.497
100.503
100.516
100.526
100.531
100.534
100.539
100.553
100.082
100.087
100.103
100.1
100.129
100.214
100.362
100.444
100.491
100.535
100.559
100.56
100.564
100.577
100.597
100.607
100.61
100.613
100.619
100.633
100.028
100.056
100.175
100.291
100.441
100.512
100.572
100.622
100.653
100.671
100.671
100.671
100.677
100.692
100.708
100.714
100.712
100.711
100.713
100.719
100.574
100.641
100.705
100.743
100.772
100.785
100.796
100.812
100.817
100.812
100.799
100.792
100.794
100.801
100.802
100.799
100.792
100.786
100.785
100.781
101.047
101.026
101.008
100.993
100.959
100.932
100.911
100.904
100.894
100.876
100.865
100.856
100.851
100.849
100.84
100.828
100.819
100.814
100.811
100.803
)
;

boundaryField
{
    inlet
    {
        type            fixedValue;
        value           uniform 100;
    }
    outlet
    {
        type            inletOutlet;
        inletValue      uniform 100;
        value           nonuniform List<scalar> 
50
(
100.378
100.319
100.219
100.106
100.073
100.062
100.068
100.056
100.05
100.069
100.097
100.139
100.152
100.137
100.105
100.804
100.781
100.72
100.632
100.551
100.496
100.466
100.447
100.431
100.414
100.414
100.432
100.447
100.467
100.498
100.553
100.633
100.719
100.781
100.803
100.379
100.319
100.22
100.108
100.075
100.06
100.066
100.055
100.049
100.069
100.097
100.139
100.152
100.137
100.105
)
;
    }
    airfoil
    {
        type            zeroGradient;
    }
    top
    {
        type            symmetryPlane;
    }
    bottom
    {
        type            symmetryPlane;
    }
    defaultFaces
    {
        type            empty;
    }
}


// ************************************************************************* //
