/*--------------------------------*- C++ -*----------------------------------*\
  =========                 |
  \\      /  F ield         | OpenFOAM: The Open Source CFD Toolbox
   \\    /   O peration     | Website:  https://openfoam.org
    \\  /    A nd           | Version:  7
     \\/     M anipulation  |
\*---------------------------------------------------------------------------*/
FoamFile
{
    version     2.0;
    format      ascii;
    class       volVectorField;
    location    "10";
    object      U;
}
// * * * * * * * * * * * * * * * * * * * * * * * * * * * * * * * * * * * * * //

dimensions      [0 1 -1 0 0 0 0];

internalField   nonuniform List<vector> 
3700
(
(1.34508 -0.254492 0)
(1.29118 -0.422453 0)
(1.284 -0.201796 0)
(1.38605 -0.184752 0)
(1.52956 -0.223455 0)
(1.51319 -0.213261 0)
(1.49891 -0.196367 0)
(1.50694 -0.226126 0)
(1.56736 -0.390099 0)
(1.5827 -0.415214 0)
(1.52791 -0.344945 0)
(1.53633 -0.161213 0)
(1.62221 -0.110183 0)
(1.68415 -0.171891 0)
(1.72167 -0.205401 0)
(1.70242 -0.181015 0)
(1.72576 -0.131152 0)
(1.77694 -0.14976 0)
(1.83591 -0.242293 0)
(1.886 -0.272634 0)
(1.77626 -1.20966 0)
(1.7176 -1.04168 0)
(1.75225 -0.905601 0)
(1.96195 -0.986246 0)
(2.10408 -1.28203 0)
(1.96698 -1.39098 0)
(1.80878 -1.36761 0)
(1.85595 -1.50583 0)
(1.939 -1.93197 0)
(1.91717 -1.88476 0)
(1.84163 -1.68604 0)
(1.83777 -1.26784 0)
(1.98021 -1.11017 0)
(2.11527 -1.13473 0)
(2.17269 -1.14299 0)
(2.19094 -1.09236 0)
(2.21804 -1.05036 0)
(2.25976 -1.08262 0)
(2.31362 -1.19754 0)
(2.33901 -1.29716 0)
(1.77255 -1.2406 0)
(1.88885 -1.16228 0)
(2.01766 -1.23034 0)
(2.18913 -1.40711 0)
(2.2431 -1.76961 0)
(2.10341 -2.09763 0)
(2.04244 -2.22197 0)
(2.06589 -2.2644 0)
(2.06502 -2.2682 0)
(2.1321 -2.15458 0)
(2.10483 -2.17504 0)
(2.17771 -1.99993 0)
(2.2524 -1.91817 0)
(2.34908 -1.85063 0)
(2.46925 -1.80143 0)
(2.60434 -1.72284 0)
(2.67064 -1.67433 0)
(2.68635 -1.63601 0)
(2.66101 -1.62071 0)
(2.60874 -1.60269 0)
(1.74337 -1.23405 0)
(1.82306 -1.2475 0)
(1.90961 -1.40017 0)
(1.96767 -1.66537 0)
(1.91763 -2.00575 0)
(1.90161 -2.24893 0)
(1.99294 -2.24363 0)
(2.07173 -2.22633 0)
(2.14537 -2.14589 0)
(2.2902 -2.00052 0)
(2.2493 -2.0747 0)
(2.30121 -1.95737 0)
(2.31537 -1.86361 0)
(2.3664 -1.76775 0)
(2.45484 -1.68209 0)
(2.60264 -1.53926 0)
(2.65881 -1.43479 0)
(2.75984 -1.31338 0)
(2.8256 -1.22053 0)
(2.80608 -1.25375 0)
(1.54825 -1.22724 0)
(1.60451 -1.33261 0)
(1.67155 -1.60181 0)
(1.70147 -1.90832 0)
(1.65867 -2.1948 0)
(1.61124 -2.29322 0)
(1.86492 -2.19637 0)
(2.06746 -1.9538 0)
(2.24384 -1.86356 0)
(2.38882 -1.83836 0)
(2.42357 -1.78951 0)
(2.49084 -1.70791 0)
(2.49514 -1.68028 0)
(2.47031 -1.67237 0)
(2.49892 -1.58353 0)
(2.55219 -1.50403 0)
(2.58727 -1.36554 0)
(2.6944 -1.2873 0)
(2.75141 -1.10005 0)
(2.85515 -0.895669 0)
(1.34072 -1.17686 0)
(1.42418 -1.39668 0)
(1.55218 -1.75463 0)
(1.56961 -2.03337 0)
(1.54071 -2.24399 0)
(1.68781 -2.25972 0)
(1.90143 -2.14532 0)
(2.04196 -1.91278 0)
(2.20271 -1.74476 0)
(2.37964 -1.71417 0)
(2.50942 -1.52688 0)
(2.62257 -1.44812 0)
(2.67704 -1.3399 0)
(2.64785 -1.3573 0)
(2.66246 -1.30132 0)
(2.64459 -1.31737 0)
(2.63557 -1.19524 0)
(2.65239 -1.16392 0)
(2.69657 -1.11892 0)
(2.76957 -0.883238 0)
(1.1627 -1.12381 0)
(1.30116 -1.48637 0)
(1.50406 -1.82623 0)
(1.54769 -2.15028 0)
(1.7073 -2.29135 0)
(1.83812 -2.29042 0)
(2.01727 -2.13357 0)
(2.10747 -1.89984 0)
(2.14268 -1.78851 0)
(2.29389 -1.7001 0)
(2.41482 -1.49308 0)
(2.5954 -1.43867 0)
(2.6611 -1.15643 0)
(2.74783 -1.06587 0)
(2.75926 -0.87627 0)
(2.7404 -0.862002 0)
(2.73737 -0.820291 0)
(2.72726 -0.798965 0)
(2.70927 -0.890313 0)
(2.71008 -0.730353 0)
(1.06099 -1.13801 0)
(1.24614 -1.60211 0)
(1.56271 -1.94715 0)
(1.81494 -2.21578 0)
(2.06731 -2.25286 0)
(2.17801 -2.23956 0)
(2.30388 -1.94831 0)
(2.34382 -1.81543 0)
(2.27744 -1.74462 0)
(2.32492 -1.67275 0)
(2.42463 -1.46578 0)
(2.5357 -1.37825 0)
(2.58229 -1.135 0)
(2.70323 -1.05034 0)
(2.72841 -0.798054 0)
(2.78579 -0.667976 0)
(2.7874 -0.515345 0)
(2.77972 -0.390495 0)
(2.72604 -0.508163 0)
(2.69667 -0.461898 0)
(1.01291 -1.24315 0)
(1.30943 -1.90751 0)
(1.77557 -2.15127 0)
(2.11501 -2.18887 0)
(2.44344 -2.11939 0)
(2.59661 -2.05324 0)
(2.55684 -1.69964 0)
(2.58266 -1.51949 0)
(2.56607 -1.51865 0)
(2.58925 -1.43934 0)
(2.58543 -1.34221 0)
(2.61971 -1.18567 0)
(2.61492 -1.01817 0)
(2.66528 -0.933545 0)
(2.67894 -0.743311 0)
(2.72831 -0.626823 0)
(2.7575 -0.466442 0)
(2.75656 -0.245864 0)
(2.72181 -0.186992 0)
(2.67138 -0.141119 0)
(1.08684 -1.47127 0)
(1.50488 -2.15348 0)
(1.9709 -2.34045 0)
(2.25812 -2.37317 0)
(2.39379 -2.06524 0)
(2.46777 -1.85853 0)
(2.62671 -1.49535 0)
(2.73775 -1.32917 0)
(2.80655 -1.20797 0)
(2.78594 -0.968822 0)
(2.77469 -0.955993 0)
(2.76264 -0.752324 0)
(2.73444 -0.692784 0)
(2.72838 -0.580028 0)
(2.7069 -0.481144 0)
(2.69094 -0.416252 0)
(2.69846 -0.358487 0)
(2.68981 -0.227542 0)
(2.65483 -0.0447279 0)
(2.61478 0.0490088 0)
(1.2644 -1.68521 0)
(1.70009 -2.3677 0)
(1.97285 -2.33073 0)
(1.95884 -2.15304 0)
(2.06682 -1.9404 0)
(2.18452 -1.70696 0)
(2.35535 -1.41443 0)
(2.44549 -1.31659 0)
(2.57632 -1.18954 0)
(2.63787 -0.804831 0)
(2.70546 -0.645943 0)
(2.70867 -0.399518 0)
(2.72874 -0.293104 0)
(2.70926 -0.137015 0)
(2.68774 -0.0527235 0)
(2.65932 -0.025182 0)
(2.63551 -0.0291085 0)
(2.62795 -0.0500173 0)
(2.55837 0.104994 0)
(2.57834 0.0972949 0)
(1.34993 -1.76833 0)
(1.75277 -2.37968 0)
(1.78863 -2.15576 0)
(1.83289 -1.99656 0)
(2.02074 -1.82499 0)
(2.18818 -1.5103 0)
(2.27113 -1.32697 0)
(2.34676 -1.20565 0)
(2.40922 -1.04847 0)
(2.47842 -0.841081 0)
(2.57049 -0.648098 0)
(2.60491 -0.399386 0)
(2.6465 -0.214718 0)
(2.63972 -0.0150652 0)
(2.58955 0.189967 0)
(2.56022 0.275097 0)
(2.5175 0.355215 0)
(2.51269 0.266561 0)
(2.45189 0.32826 0)
(2.47457 0.277632 0)
(1.3213 -1.7863 0)
(1.68133 -2.29704 0)
(1.738 -2.02108 0)
(1.96654 -1.68961 0)
(2.16547 -1.65369 0)
(2.30354 -1.05386 0)
(2.35526 -1.11658 0)
(2.45635 -0.969275 0)
(2.51279 -0.6255 0)
(2.53245 -0.543294 0)
(2.55718 -0.333667 0)
(2.55908 -0.165258 0)
(2.5594 -0.0245798 0)
(2.54552 0.10762 0)
(2.48726 0.28097 0)
(2.47348 0.361624 0)
(2.39523 0.515083 0)
(2.3478 0.561239 0)
(2.30333 0.591658 0)
(2.31931 0.532313 0)
(1.10235 -1.70635 0)
(1.69619 -2.05661 0)
(1.93551 -1.76557 0)
(2.07956 -1.10466 0)
(2.25105 -1.18036 0)
(2.38123 -0.644938 0)
(2.51302 -0.500349 0)
(2.59765 -0.259722 0)
(2.57034 -0.0278674 0)
(2.56114 0.067552 0)
(2.53015 0.218416 0)
(2.49102 0.335446 0)
(2.45396 0.415221 0)
(2.4112 0.481296 0)
(2.35494 0.540962 0)
(2.3264 0.559393 0)
(2.2689 0.623666 0)
(2.21627 0.698893 0)
(2.1596 0.780138 0)
(2.13135 0.799794 0)
(0.997466 -1.4725 0)
(1.73699 -1.86028 0)
(2.1816 -1.46683 0)
(2.1849 -0.799958 0)
(2.39918 -0.577591 0)
(2.52227 -0.380859 0)
(2.57082 -0.351278 0)
(2.52495 0.00889124 0)
(2.49623 0.0964029 0)
(2.46984 0.29134 0)
(2.41156 0.471804 0)
(2.33073 0.631079 0)
(2.27648 0.719911 0)
(2.20656 0.807051 0)
(2.15759 0.834214 0)
(2.1154 0.847943 0)
(2.07925 0.87889 0)
(2.07331 0.880398 0)
(2.04007 0.921192 0)
(2.05889 0.951343 0)
(1.40892 -1.10019 0)
(1.61737 -1.81926 0)
(2.2119 -0.956479 0)
(2.44379 -0.494228 0)
(2.49154 -0.024064 0)
(2.46331 -0.226942 0)
(2.44317 0.0254819 0)
(2.39436 0.22387 0)
(2.33601 0.374681 0)
(2.31386 0.524947 0)
(2.22063 0.691551 0)
(2.14392 0.815065 0)
(2.08853 0.888217 0)
(2.02704 0.957202 0)
(1.98223 0.978857 0)
(1.94653 1.00208 0)
(1.95209 1.02214 0)
(1.96897 0.997173 0)
(1.99615 0.99476 0)
(2.07297 0.97585 0)
(1.58677 -0.517147 0)
(2.11038 -0.995685 0)
(2.33655 0.325547 0)
(2.28823 -0.141449 0)
(2.33575 -0.0165931 0)
(2.37103 0.253219 0)
(2.27991 0.548236 0)
(2.20171 0.693795 0)
(2.13354 0.784225 0)
(2.07659 0.911643 0)
(1.96615 1.01339 0)
(1.91311 1.06178 0)
(1.88922 1.07389 0)
(1.87422 1.08259 0)
(1.87464 1.0545 0)
(1.89616 1.04863 0)
(1.95892 1.02335 0)
(2.16051 0.907469 0)
(2.38051 0.795422 0)
(2.7804 0.441351 0)
(1.1375 -0.0926322 0)
(1.84996 -0.258349 0)
(2.25626 0.0662085 0)
(2.21256 0.553582 0)
(2.20469 0.632508 0)
(2.13443 0.778615 0)
(2.05233 0.897561 0)
(1.96919 0.97548 0)
(1.91011 1.04051 0)
(1.84597 1.12833 0)
(1.78351 1.15931 0)
(1.78616 1.15371 0)
(1.80958 1.13227 0)
(1.85387 1.08696 0)
(2.0441 0.948365 0)
(2.26054 0.826952 0)
(2.66291 0.505408 0)
(3.03562 0.0933316 0)
(3.05532 -0.0235988 0)
(3.00403 -0.00465123 0)
(1.02247 0.0148377 0)
(1.91589 0.834595 0)
(2.08897 0.882761 0)
(1.99809 0.94847 0)
(1.95914 0.975991 0)
(1.8745 1.07876 0)
(1.79753 1.13691 0)
(1.76431 1.14711 0)
(1.75988 1.16361 0)
(1.73458 1.20293 0)
(1.70992 1.19695 0)
(1.8536 1.07343 0)
(2.09359 0.88995 0)
(2.50528 0.579294 0)
(2.98911 0.135764 0)
(3.07374 -0.0295704 0)
(3.00816 -0.00773021 0)
(3.00295 -0.00386991 0)
(3.00123 -0.00221176 0)
(3.00008 -0.000489073 0)
(1.15039 0.775634 0)
(1.82445 1.15137 0)
(1.84236 1.14175 0)
(1.7295 1.19524 0)
(1.71039 1.18898 0)
(1.66877 1.23898 0)
(1.66558 1.2111 0)
(1.73331 1.16502 0)
(1.76551 1.22533 0)
(1.79111 1.13596 0)
(2.26141 0.74144 0)
(2.85076 0.214011 0)
(3.09727 -0.0266077 0)
(3.02118 -0.0125726 0)
(3.00423 -0.00522455 0)
(3.00178 -0.00290817 0)
(3.00006 -0.000576997 0)
(2.99998 -2.42321e-05 0)
(2.99999 1.44324e-05 0)
(3 5.93091e-06 0)
(1.57505 1.25718 0)
(1.58114 1.26492 0)
(1.58423 1.27235 0)
(1.59181 1.26265 0)
(1.6094 1.24259 0)
(1.60504 1.26523 0)
(1.92319 1.16451 0)
(2.99188 0.362276 0)
(3.31321 -0.562232 0)
(3 6.22261e-11 0)
(3 -7.34713e-11 0)
(3 7.86746e-11 0)
(3 -1.02888e-15 0)
(3 -4.31017e-13 0)
(3 -1.65641e-14 0)
(3 1.66646e-14 0)
(3 -1.1887e-14 0)
(3 -9.96006e-16 0)
(3 3.71875e-16 0)
(3 -1.88403e-16 0)
(1.58115 1.25199 0)
(1.59173 1.26022 0)
(1.59492 1.27817 0)
(1.59418 1.28499 0)
(1.65927 1.26307 0)
(1.72509 1.24012 0)
(2.27956 0.746176 0)
(2.99775 0.0151883 0)
(3 5.48265e-08 0)
(3 -3.06522e-11 0)
(3 -9.92379e-15 0)
(3 -8.08154e-18 0)
(3 -3.6071e-15 0)
(3 1.51886e-16 0)
(3 -6.41965e-16 0)
(3 -1.25942e-15 0)
(3 -3.81518e-16 0)
(3 -3.03075e-16 0)
(3 -6.34767e-16 0)
(3 -1.23334e-15 0)
(1.58782 1.2509 0)
(1.60629 1.25457 0)
(1.61299 1.26274 0)
(1.59337 1.29239 0)
(1.67957 1.23615 0)
(2.18563 0.813567 0)
(2.98434 0.00971863 0)
(3.00053 -0.000990425 0)
(3 6.84734e-07 0)
(3 6.09873e-11 0)
(3 -4.32268e-14 0)
(3 -3.00549e-15 0)
(3 -1.78157e-15 0)
(3 -1.24513e-15 0)
(3 -3.52835e-16 0)
(3 -1.36289e-15 0)
(3 -1.07377e-15 0)
(3 -2.48955e-17 0)
(3 -2.44929e-16 0)
(3 -1.04883e-15 0)
(1.58747 1.25369 0)
(1.61097 1.25576 0)
(1.62652 1.25438 0)
(1.63908 1.26963 0)
(1.85292 1.08516 0)
(2.74507 0.214579 0)
(3.00543 -0.00273913 0)
(2.9999 9.42165e-05 0)
(3 -8.72846e-07 0)
(3 8.91324e-10 0)
(3 -1.20882e-14 0)
(3 -2.54004e-15 0)
(3 -1.76777e-15 0)
(3 -1.75276e-15 0)
(3 -8.55764e-17 0)
(3 -2.52028e-15 0)
(3 -1.09772e-15 0)
(3 -5.68461e-16 0)
(3 -4.66953e-16 0)
(3 -1.37682e-15 0)
(1.58645 1.26485 0)
(1.59795 1.26066 0)
(1.62576 1.2464 0)
(1.74524 1.19417 0)
(2.38502 0.625249 0)
(3.01908 -0.0176343 0)
(2.99976 0.000191532 0)
(3 -4.41193e-06 0)
(3 8.61751e-08 0)
(3 -9.18769e-10 0)
(3 1.7025e-13 0)
(3 -2.22019e-15 0)
(3 -2.00564e-15 0)
(3 -2.56981e-15 0)
(3 -1.23035e-15 0)
(3 -4.31056e-15 0)
(3 -2.83313e-15 0)
(3 -2.14884e-15 0)
(3 -9.61297e-16 0)
(3 -1.98989e-15 0)
(1.58318 1.27535 0)
(1.57906 1.26953 0)
(1.62896 1.26226 0)
(1.76663 1.16617 0)
(2.69188 0.268792 0)
(3 -5.89811e-10 0)
(3 1.43786e-08 0)
(3 -1.30151e-08 0)
(3 5.68453e-10 0)
(3 3.20382e-12 0)
(3 -9.82627e-14 0)
(3 -5.48609e-16 0)
(3 -1.75084e-15 0)
(3 -1.91324e-15 0)
(3 -1.80439e-15 0)
(3 -3.42714e-15 0)
(3 -3.69748e-15 0)
(3 -3.10364e-15 0)
(3 -2.10935e-15 0)
(3 -2.97343e-15 0)
(1.57942 1.29452 0)
(1.55601 1.29032 0)
(1.66803 1.2426 0)
(2.14441 0.849902 0)
(3.01036 -0.0104124 0)
(3 -5.17666e-12 0)
(3 -1.75119e-11 0)
(3 2.30304e-11 0)
(3 -3.25311e-12 0)
(3 9.0039e-15 0)
(3 -3.27963e-16 0)
(3 -1.29365e-15 0)
(3 -1.21758e-15 0)
(3 -1.87477e-15 0)
(3 -1.47865e-15 0)
(3 -1.75397e-15 0)
(3 -3.87885e-15 0)
(3 -4.49547e-15 0)
(3 -3.05115e-15 0)
(3 -3.63219e-15 0)
(1.58678 1.3214 0)
(1.50481 1.32803 0)
(1.79456 1.17946 0)
(2.45234 0.532445 0)
(3 -5.70265e-06 0)
(3 -1.59815e-12 0)
(3 1.68776e-13 0)
(3 -9.72245e-14 0)
(3 1.93489e-14 0)
(3 2.64616e-17 0)
(3 -1.05079e-15 0)
(3 -7.98052e-16 0)
(3 -6.71353e-16 0)
(3 -1.50627e-15 0)
(3 -1.66858e-15 0)
(3 -1.70898e-15 0)
(3 -3.17149e-15 0)
(3 -4.36364e-15 0)
(3 -3.79354e-15 0)
(3 -3.86793e-15 0)
(1.59066 1.30871 0)
(1.46557 1.36356 0)
(1.90948 1.0524 0)
(2.84385 0.135738 0)
(3 -2.30324e-08 0)
(3 -1.91108e-12 0)
(3 -5.95776e-14 0)
(3 2.02169e-15 0)
(3 5.66401e-16 0)
(3 -2.90709e-16 0)
(3 -1.09712e-15 0)
(3 -8.82124e-16 0)
(3 -5.18951e-16 0)
(3 -1.00145e-15 0)
(3 -9.38046e-16 0)
(3 -6.64273e-16 0)
(3 -1.24308e-15 0)
(3 -3.05871e-15 0)
(3 -4.22983e-15 0)
(3 -4.73903e-15 0)
(1.60505 1.29529 0)
(1.47933 1.37931 0)
(2.17211 0.816368 0)
(3.01094 -0.00931929 0)
(3 2.41511e-08 0)
(3 1.7495e-12 0)
(3 1.75616e-14 0)
(3 -8.61554e-17 0)
(3 -2.54161e-16 0)
(3 -3.84047e-16 0)
(3 -1.01296e-15 0)
(3 -1.14801e-15 0)
(3 -1.13423e-15 0)
(3 -8.16279e-16 0)
(3 -6.01244e-16 0)
(3 -3.309e-16 0)
(3 -3.1978e-16 0)
(3 -9.30303e-16 0)
(3 -2.0594e-15 0)
(3 -2.84313e-15 0)
(1.62224 1.28002 0)
(1.57682 1.31088 0)
(2.42073 0.533338 0)
(3 -1.94475e-12 0)
(3 -1.43713e-11 0)
(3 5.73811e-14 0)
(3 4.94963e-16 0)
(3 1.10811e-15 0)
(3 6.34317e-16 0)
(3 3.72286e-16 0)
(3 -1.29604e-16 0)
(3 -7.62751e-16 0)
(3 -1.43588e-15 0)
(3 -9.87302e-16 0)
(3 -7.47533e-16 0)
(3 -6.10723e-16 0)
(3 -2.9145e-16 0)
(3 -3.68593e-16 0)
(3 -6.27759e-16 0)
(3 -2.05655e-16 0)
(1.63941 1.26018 0)
(1.62494 1.24939 0)
(2.65184 0.288907 0)
(3 2.72189e-13 0)
(3 -4.68878e-14 0)
(3 -1.16371e-16 0)
(3 1.11534e-15 0)
(3 1.17336e-15 0)
(3 1.04456e-15 0)
(3 6.37475e-16 0)
(3 4.36287e-16 0)
(3 4.87188e-17 0)
(3 -6.75213e-16 0)
(3 -1.39033e-15 0)
(3 -1.14844e-15 0)
(3 -6.10563e-16 0)
(3 -7.04918e-16 0)
(3 -1.02351e-15 0)
(3 -1.86212e-15 0)
(3 -1.88214e-15 0)
(1.6572 1.23894 0)
(1.8318 1.10012 0)
(2.87855 0.0902963 0)
(3 -5.79179e-13 0)
(3 -4.1167e-16 0)
(3 -4.24817e-16 0)
(3 4.15475e-16 0)
(3 1.21678e-16 0)
(3 5.46976e-16 0)
(3 5.24518e-16 0)
(3 4.30221e-16 0)
(3 5.61877e-16 0)
(3 1.09645e-15 0)
(3 4.17794e-16 0)
(3 -2.20208e-16 0)
(3 1.4029e-16 0)
(3 3.71317e-16 0)
(3 -1.93445e-16 0)
(3 -5.864e-16 0)
(3 -1.07048e-15 0)
(1.67316 1.19587 0)
(1.89379 0.982033 0)
(2.99286 0.00610545 0)
(3 -3.24225e-15 0)
(3 -2.02904e-15 0)
(3 -7.62485e-16 0)
(3 8.05913e-16 0)
(3 7.22732e-16 0)
(3 5.4552e-16 0)
(3 6.28447e-17 0)
(3 -3.5261e-16 0)
(3 -1.39517e-16 0)
(3 5.51088e-16 0)
(3 7.32605e-16 0)
(3 1.27748e-16 0)
(3 3.7181e-16 0)
(3 8.83682e-16 0)
(3 4.18061e-16 0)
(3 2.67362e-17 0)
(3 -3.39475e-16 0)
(1.68783 1.17511 0)
(2.03519 0.830739 0)
(3 -5.89003e-15 0)
(3 -4.04697e-15 0)
(3 -1.76494e-15 0)
(3 -7.32792e-16 0)
(3 1.72721e-16 0)
(3 1.13602e-15 0)
(3 1.11124e-15 0)
(3 -5.59042e-17 0)
(3 -4.68255e-16 0)
(3 -5.3967e-16 0)
(3 -4.09244e-16 0)
(3 -6.60739e-16 0)
(3 -5.15376e-16 0)
(3 -9.77353e-17 0)
(3 3.14135e-16 0)
(3 5.69357e-16 0)
(3 1.21936e-16 0)
(3 -3.15229e-16 0)
(1.77144 1.10617 0)
(2.23226 0.647886 0)
(3 -7.44154e-15 0)
(3 -4.35602e-15 0)
(3 -1.97963e-15 0)
(3 -1.12366e-15 0)
(3 1.4268e-15 0)
(3 2.38777e-15 0)
(3 1.53541e-15 0)
(3 3.74905e-16 0)
(3 -2.89871e-16 0)
(3 -8.63879e-16 0)
(3 -1.21991e-15 0)
(3 -1.19536e-15 0)
(3 -1.06692e-15 0)
(3 -7.92987e-16 0)
(3 -6.50493e-16 0)
(3 -4.50215e-16 0)
(3 -2.80193e-16 0)
(3 -2.1064e-16 0)
(1.84667 1.0055 0)
(2.47078 0.432455 0)
(3 -6.56429e-15 0)
(3 -4.30829e-15 0)
(3 -2.00808e-15 0)
(3 -1.42378e-15 0)
(3 9.26362e-16 0)
(3 2.05671e-15 0)
(3 1.84471e-15 0)
(3 1.69434e-15 0)
(3 1.32292e-15 0)
(3 1.07345e-15 0)
(3 6.55925e-16 0)
(3 8.73506e-16 0)
(3 6.29054e-16 0)
(3 3.35883e-16 0)
(3 5.79312e-16 0)
(3 7.99702e-16 0)
(3 9.17789e-16 0)
(3 8.23596e-16 0)
(1.92954 0.865672 0)
(2.71751 0.202324 0)
(3 -4.85983e-15 0)
(3 -1.39728e-15 0)
(3 -6.92548e-17 0)
(3 6.64463e-16 0)
(3 1.51508e-15 0)
(3 2.19553e-15 0)
(3 2.44977e-15 0)
(3 2.92668e-15 0)
(3 2.79532e-15 0)
(3 2.48021e-15 0)
(3 2.12514e-15 0)
(3 1.35306e-15 0)
(3 6.27964e-16 0)
(3 6.39974e-16 0)
(3 4.4875e-16 0)
(3 1.54931e-16 0)
(3 3.20395e-16 0)
(3 6.97066e-16 0)
(2.08992 0.662956 0)
(2.99144 1.94097e-06 0)
(3 -4.15223e-15 0)
(3 -2.08998e-15 0)
(3 -6.73859e-16 0)
(3 1.49254e-16 0)
(3 9.85418e-16 0)
(3 1.33885e-15 0)
(3 1.13944e-15 0)
(3 1.09417e-15 0)
(3 1.55204e-15 0)
(3 1.68903e-15 0)
(3 1.88042e-15 0)
(3 2.25686e-15 0)
(3 2.60465e-15 0)
(3 2.61477e-15 0)
(3 2.379e-15 0)
(3 2.2046e-15 0)
(3 1.8838e-15 0)
(3 1.82483e-15 0)
(1.99156 0.373367 0)
(2.99986 -1.13635e-05 0)
(3 -3.81239e-15 0)
(3 -3.1557e-15 0)
(3 -1.77997e-15 0)
(3 -8.26503e-16 0)
(3 -3.90101e-16 0)
(3 4.44299e-16 0)
(3 8.51123e-16 0)
(3 8.30868e-16 0)
(3 8.82412e-16 0)
(3 6.74923e-16 0)
(3 6.8268e-16 0)
(3 6.29123e-16 0)
(3 6.60177e-16 0)
(3 8.17693e-16 0)
(3 8.50678e-16 0)
(3 9.74994e-16 0)
(3 9.92718e-16 0)
(3 1.01812e-15 0)
(1.99228 -0.372897 0)
(2.99988 6.81435e-06 0)
(3 -1.18815e-15 0)
(3 -3.5316e-16 0)
(3 -6.85976e-16 0)
(3 -7.55261e-16 0)
(3 -2.82815e-16 0)
(3 2.87244e-16 0)
(3 1.07153e-15 0)
(3 1.78282e-15 0)
(3 1.46727e-15 0)
(3 1.16003e-15 0)
(3 8.00793e-16 0)
(3 7.79484e-16 0)
(3 6.48479e-16 0)
(3 4.78667e-16 0)
(3 2.58321e-16 0)
(3 1.78381e-16 0)
(3 4.41423e-16 0)
(3 5.17708e-16 0)
(2.09394 -0.664925 0)
(2.99085 -6.49248e-06 0)
(3 3.32623e-15 0)
(3 2.12618e-15 0)
(3 1.33789e-15 0)
(3 5.52681e-16 0)
(3 3.77721e-16 0)
(3 3.81438e-16 0)
(3 2.15991e-16 0)
(3 -3.61701e-16 0)
(3 -5.10759e-16 0)
(3 -1.74117e-16 0)
(3 5.74593e-16 0)
(3 6.82679e-16 0)
(3 5.93492e-16 0)
(3 3.75924e-16 0)
(3 -1.823e-17 0)
(3 -1.62578e-16 0)
(3 -3.41517e-16 0)
(3 -8.04591e-16 0)
(1.92585 -0.868645 0)
(2.71031 -0.20745 0)
(3 4.28637e-15 0)
(3 4.19044e-15 0)
(3 3.98705e-15 0)
(3 3.26741e-15 0)
(3 2.56866e-15 0)
(3 1.49183e-15 0)
(3 4.37584e-16 0)
(3 4.48333e-17 0)
(3 -2.46059e-17 0)
(3 2.58522e-16 0)
(3 -8.97437e-17 0)
(3 -5.32879e-16 0)
(3 -1.10932e-15 0)
(3 -1.12446e-15 0)
(3 -1.07391e-15 0)
(3 -9.83475e-16 0)
(3 -1.32565e-15 0)
(3 -1.59036e-15 0)
(1.83847 -1.00273 0)
(2.46896 -0.432125 0)
(3 5.97631e-15 0)
(3 4.99602e-15 0)
(3 4.53237e-15 0)
(3 3.44561e-15 0)
(3 2.51173e-15 0)
(3 1.44822e-15 0)
(3 1.25529e-15 0)
(3 1.40836e-15 0)
(3 1.47595e-15 0)
(3 1.13678e-15 0)
(3 5.65682e-16 0)
(3 4.37211e-16 0)
(3 6.52323e-16 0)
(3 6.89698e-16 0)
(3 4.3947e-16 0)
(3 -2.91513e-17 0)
(3 -5.38994e-16 0)
(3 -9.01146e-16 0)
(1.77689 -1.10686 0)
(2.2369 -0.647227 0)
(3 6.88137e-15 0)
(3 5.96889e-15 0)
(3 4.69874e-15 0)
(3 3.61648e-15 0)
(3 2.77594e-15 0)
(3 2.57392e-15 0)
(3 2.80658e-15 0)
(3 2.34664e-15 0)
(3 1.72719e-15 0)
(3 1.26322e-15 0)
(3 9.89473e-16 0)
(3 6.49776e-16 0)
(3 2.46635e-16 0)
(3 -2.95599e-16 0)
(3 -7.28104e-16 0)
(3 -7.97813e-16 0)
(3 -1.06104e-15 0)
(3 -1.1185e-15 0)
(1.69247 -1.17311 0)
(2.04087 -0.826625 0)
(3 7.66816e-15 0)
(3 6.40176e-15 0)
(3 5.71011e-15 0)
(3 4.37182e-15 0)
(3 3.90084e-15 0)
(3 3.59878e-15 0)
(3 2.84869e-15 0)
(3 1.99566e-15 0)
(3 1.2344e-15 0)
(3 7.97311e-16 0)
(3 5.39559e-17 0)
(3 -3.9554e-16 0)
(3 -8.62736e-16 0)
(3 -7.8806e-16 0)
(3 -1.05976e-15 0)
(3 -9.09702e-16 0)
(3 -3.2675e-16 0)
(3 9.39677e-16 0)
(1.67019 -1.19866 0)
(1.88741 -0.984216 0)
(2.98745 -0.010353 0)
(3 6.66468e-15 0)
(3 5.76896e-15 0)
(3 4.37357e-15 0)
(3 3.63882e-15 0)
(3 3.0157e-15 0)
(3 2.22114e-15 0)
(3 1.43376e-15 0)
(3 9.59489e-16 0)
(3 6.99023e-16 0)
(3 1.48849e-16 0)
(3 -1.98204e-16 0)
(3 -1.28188e-16 0)
(3 9.57523e-17 0)
(3 1.15652e-16 0)
(3 1.08194e-15 0)
(3 2.49133e-15 0)
(3 3.26443e-15 0)
(1.65658 -1.23904 0)
(1.83229 -1.10227 0)
(2.87581 -0.0939623 0)
(3 2.47933e-13 0)
(3 4.3493e-15 0)
(3 3.96885e-15 0)
(3 3.66467e-15 0)
(3 3.095e-15 0)
(3 2.47927e-15 0)
(3 1.3196e-15 0)
(3 6.74725e-16 0)
(3 4.61113e-16 0)
(3 1.3484e-16 0)
(3 -6.27725e-17 0)
(3 1.64151e-16 0)
(3 3.94131e-16 0)
(3 1.04578e-15 0)
(3 2.54227e-15 0)
(3 3.40002e-15 0)
(3 3.03482e-15 0)
(1.63907 -1.26018 0)
(1.62623 -1.24956 0)
(2.65267 -0.289363 0)
(3 -4.87505e-13 0)
(3 1.42024e-14 0)
(3 4.38179e-15 0)
(3 3.82483e-15 0)
(3 3.66676e-15 0)
(3 2.27432e-15 0)
(3 1.53057e-15 0)
(3 1.08798e-15 0)
(3 1.13847e-15 0)
(3 1.05222e-15 0)
(3 9.44922e-16 0)
(3 1.22654e-15 0)
(3 1.56061e-15 0)
(3 2.6318e-15 0)
(3 2.83826e-15 0)
(3 2.40567e-15 0)
(3 1.41678e-15 0)
(1.6219 -1.27934 0)
(1.57322 -1.31397 0)
(2.41669 -0.538201 0)
(3 2.82629e-12 0)
(3 2.97727e-11 0)
(3 -4.7793e-14 0)
(3 4.22441e-15 0)
(3 2.88977e-15 0)
(3 2.49872e-15 0)
(3 1.76517e-15 0)
(3 1.31882e-15 0)
(3 1.38168e-15 0)
(3 1.64234e-15 0)
(3 1.96982e-15 0)
(3 1.93635e-15 0)
(3 2.30484e-15 0)
(3 3.0386e-15 0)
(3 2.52187e-15 0)
(3 1.17662e-15 0)
(3 4.86487e-16 0)
(1.60494 -1.29419 0)
(1.47935 -1.37512 0)
(2.18351 -0.808951 0)
(3.01078 0.00918941 0)
(3 -3.0458e-08 0)
(3 1.5827e-12 0)
(3 -1.51828e-14 0)
(3 3.7863e-15 0)
(3 2.87982e-15 0)
(3 2.23608e-15 0)
(3 2.09552e-15 0)
(3 2.25755e-15 0)
(3 2.84644e-15 0)
(3 2.229e-15 0)
(3 2.26895e-15 0)
(3 3.15272e-15 0)
(3 2.78277e-15 0)
(3 2.29316e-15 0)
(3 2.12659e-15 0)
(3 3.5716e-15 0)
(1.59055 -1.30877 0)
(1.46632 -1.36657 0)
(1.90853 -1.05225 0)
(2.84273 -0.134443 0)
(3 1.96172e-08 0)
(3 -1.75427e-12 0)
(3 3.20741e-14 0)
(3 2.65267e-15 0)
(3 3.53679e-15 0)
(3 3.37517e-15 0)
(3 2.98263e-15 0)
(3 3.14319e-15 0)
(3 2.93088e-15 0)
(3 2.68916e-15 0)
(3 2.65713e-15 0)
(3 2.90863e-15 0)
(3 3.03557e-15 0)
(3 2.32665e-15 0)
(3 4.02254e-15 0)
(3 4.35026e-15 0)
(1.58859 -1.32242 0)
(1.49913 -1.33056 0)
(1.78401 -1.17868 0)
(2.44487 -0.535452 0)
(3 2.90503e-05 0)
(3 3.98493e-11 0)
(3 -4.53957e-13 0)
(3 1.81926e-13 0)
(3 -1.7665e-14 0)
(3 4.0938e-15 0)
(3 3.75287e-15 0)
(3 3.33466e-15 0)
(3 3.0816e-15 0)
(3 3.0314e-15 0)
(3 2.53872e-15 0)
(3 2.79152e-15 0)
(3 2.5625e-15 0)
(3 3.17747e-15 0)
(3 5.00906e-15 0)
(3 5.17709e-15 0)
(1.57921 -1.29575 0)
(1.56045 -1.29439 0)
(1.67598 -1.24147 0)
(2.17024 -0.83866 0)
(3.01743 0.0183368 0)
(3 -3.73194e-11 0)
(3 4.57621e-11 0)
(3 -3.64843e-11 0)
(3 3.53804e-12 0)
(3 2.46705e-15 0)
(3 2.91376e-15 0)
(3 3.0612e-15 0)
(3 2.66758e-15 0)
(3 2.64588e-15 0)
(3 2.54695e-15 0)
(3 2.1289e-15 0)
(3 3.02769e-15 0)
(3 3.7822e-15 0)
(3 5.05982e-15 0)
(3 5.09962e-15 0)
(1.58257 -1.27492 0)
(1.57872 -1.26998 0)
(1.63148 -1.26322 0)
(1.75502 -1.17729 0)
(2.67638 -0.282006 0)
(3 5.76246e-10 0)
(3 -1.43746e-08 0)
(3 1.29987e-08 0)
(3 -5.65979e-10 0)
(3 -3.16569e-12 0)
(3 9.55177e-14 0)
(3 2.26801e-15 0)
(3 2.07441e-15 0)
(3 2.59952e-15 0)
(3 2.45723e-15 0)
(3 1.86907e-15 0)
(3 4.06154e-15 0)
(3 4.79292e-15 0)
(3 5.32096e-15 0)
(3 4.83203e-15 0)
(1.58538 -1.26377 0)
(1.59502 -1.25998 0)
(1.6248 -1.25136 0)
(1.73424 -1.1989 0)
(2.38192 -0.626368 0)
(3.01893 0.0174374 0)
(2.99976 -0.000188352 0)
(3 4.42503e-06 0)
(3 -8.59623e-08 0)
(3 9.2364e-10 0)
(3 -1.31692e-13 0)
(3 2.33399e-15 0)
(3 1.98464e-15 0)
(3 3.04001e-15 0)
(3 2.59267e-15 0)
(3 2.47457e-15 0)
(3 4.20685e-15 0)
(3 4.20474e-15 0)
(3 4.83219e-15 0)
(3 4.00699e-15 0)
(1.58668 -1.25316 0)
(1.60899 -1.25471 0)
(1.62461 -1.25265 0)
(1.64281 -1.26376 0)
(1.86813 -1.07671 0)
(2.75325 -0.209206 0)
(3.00523 0.002487 0)
(2.9999 -9.35018e-05 0)
(3 9.03827e-07 0)
(3 -8.96798e-10 0)
(3 5.73423e-15 0)
(3 2.94782e-15 0)
(3 2.88986e-15 0)
(3 3.64704e-15 0)
(3 2.82311e-15 0)
(3 2.24997e-15 0)
(3 3.36349e-15 0)
(3 3.37799e-15 0)
(3 3.72231e-15 0)
(3 2.52607e-15 0)
(1.58791 -1.24957 0)
(1.60614 -1.25452 0)
(1.6148 -1.25968 0)
(1.60041 -1.2882 0)
(1.6747 -1.23622 0)
(2.19953 -0.801023 0)
(2.98835 -0.0058089 0)
(3.00052 0.00098996 0)
(3 -7.23835e-07 0)
(3 -6.08338e-11 0)
(3 5.03002e-15 0)
(3 3.31218e-15 0)
(3 3.80817e-15 0)
(3 4.08185e-15 0)
(3 3.02086e-15 0)
(3 1.57359e-15 0)
(3 3.14975e-15 0)
(3 2.93243e-15 0)
(3 3.51757e-15 0)
(3 3.28469e-15 0)
(1.58291 -1.25105 0)
(1.59356 -1.25909 0)
(1.59822 -1.27562 0)
(1.59906 -1.28429 0)
(1.65602 -1.26655 0)
(1.71611 -1.24163 0)
(2.26404 -0.754931 0)
(2.99524 -0.0181858 0)
(3 -5.26124e-08 0)
(3 2.981e-11 0)
(3 5.04537e-15 0)
(3 3.59739e-15 0)
(3 3.44994e-15 0)
(3 3.37275e-15 0)
(3 2.35947e-15 0)
(3 3.13496e-15 0)
(3 1.4626e-15 0)
(3 2.62454e-15 0)
(3 3.49686e-15 0)
(3 3.12031e-15 0)
(1.57591 -1.25811 0)
(1.58176 -1.2656 0)
(1.58545 -1.27282 0)
(1.59237 -1.26399 0)
(1.60648 -1.24502 0)
(1.60107 -1.26646 0)
(1.92115 -1.1687 0)
(2.98878 -0.371164 0)
(3.31118 0.564202 0)
(3 -6.30348e-11 0)
(3 7.40928e-11 0)
(3 -7.85258e-11 0)
(3 9.24299e-16 0)
(3 4.32737e-13 0)
(3 1.54489e-14 0)
(3 -1.04114e-14 0)
(3 1.087e-14 0)
(3 2.56163e-15 0)
(3 3.95187e-15 0)
(3 5.19855e-15 0)
(1.15324 -0.773794 0)
(1.82688 -1.15026 0)
(1.84077 -1.14602 0)
(1.73148 -1.1956 0)
(1.70767 -1.19017 0)
(1.66674 -1.23953 0)
(1.66375 -1.21105 0)
(1.73337 -1.16529 0)
(1.76844 -1.22543 0)
(1.79588 -1.13509 0)
(2.2645 -0.738561 0)
(2.85276 -0.211615 0)
(3.09829 0.0277824 0)
(3.0214 0.0127317 0)
(3.00422 0.00526613 0)
(3.00175 0.00289454 0)
(3.00006 0.000569261 0)
(2.99998 2.35444e-05 0)
(2.99999 -1.43974e-05 0)
(3 -5.91974e-06 0)
(1.02297 -0.00877765 0)
(1.90937 -0.844855 0)
(2.101 -0.862253 0)
(1.98996 -0.966105 0)
(1.96053 -0.975731 0)
(1.86986 -1.07949 0)
(1.79515 -1.1356 0)
(1.76526 -1.14623 0)
(1.76169 -1.16316 0)
(1.73752 -1.2024 0)
(1.71256 -1.19644 0)
(1.85249 -1.07266 0)
(2.09028 -0.889692 0)
(2.50154 -0.580915 0)
(2.98752 -0.137417 0)
(3.07377 0.02922 0)
(3.00817 0.00771248 0)
(3.00294 0.00386064 0)
(3.00123 0.00220738 0)
(3.00008 0.000489859 0)
(1.15261 0.0855177 0)
(1.85639 0.273313 0)
(2.24708 -0.0826306 0)
(2.21729 -0.513809 0)
(2.20043 -0.637044 0)
(2.13142 -0.782232 0)
(2.05095 -0.897874 0)
(1.96731 -0.978381 0)
(1.91028 -1.04244 0)
(1.84641 -1.12938 0)
(1.78464 -1.15904 0)
(1.787 -1.15369 0)
(1.80849 -1.13269 0)
(1.85298 -1.0875 0)
(2.04433 -0.948463 0)
(2.26127 -0.826684 0)
(2.66297 -0.50522 0)
(3.03552 -0.0934978 0)
(3.05527 0.0235003 0)
(3.004 0.00463526 0)
(1.52716 0.495827 0)
(2.12139 0.997407 0)
(2.31932 -0.380174 0)
(2.28786 0.131637 0)
(2.32956 0.0185958 0)
(2.36737 -0.238952 0)
(2.27734 -0.540128 0)
(2.20371 -0.685932 0)
(2.13625 -0.779463 0)
(2.07982 -0.908338 0)
(1.96844 -1.01029 0)
(1.9139 -1.06015 0)
(1.88788 -1.07426 0)
(1.87327 -1.08296 0)
(1.87516 -1.05431 0)
(1.89706 -1.04827 0)
(1.95941 -1.02319 0)
(2.16053 -0.907779 0)
(2.3806 -0.79558 0)
(2.78082 -0.440878 0)
(1.19439 0.940454 0)
(1.6048 1.72107 0)
(2.2696 1.05087 0)
(2.46213 0.333818 0)
(2.48401 0.148873 0)
(2.47468 0.22759 0)
(2.44708 -0.0220629 0)
(2.39568 -0.225944 0)
(2.33923 -0.372465 0)
(2.31481 -0.526986 0)
(2.2217 -0.693747 0)
(2.14225 -0.818736 0)
(2.08478 -0.89309 0)
(2.02418 -0.960712 0)
(1.98187 -0.979647 0)
(1.94776 -1.00135 0)
(1.95237 -1.02186 0)
(1.96905 -0.997166 0)
(1.99612 -0.994986 0)
(2.07299 -0.976146 0)
(0.873708 1.36854 0)
(1.70711 1.77326 0)
(2.1163 1.47473 0)
(2.12303 0.737941 0)
(2.40865 0.512972 0)
(2.53799 0.340107 0)
(2.58352 0.321483 0)
(2.53367 -0.030293 0)
(2.50103 -0.116806 0)
(2.47093 -0.305407 0)
(2.41159 -0.480664 0)
(2.32792 -0.638467 0)
(2.27288 -0.724056 0)
(2.20528 -0.806724 0)
(2.15931 -0.829473 0)
(2.1184 -0.842608 0)
(2.08081 -0.875236 0)
(2.07301 -0.879724 0)
(2.03901 -0.922697 0)
(2.05881 -0.952241 0)
(1.05965 1.63419 0)
(1.61251 2.01876 0)
(1.84868 1.70686 0)
(1.96183 1.10634 0)
(2.0877 1.19899 0)
(2.34547 0.776446 0)
(2.52918 0.514209 0)
(2.61504 0.287518 0)
(2.57565 0.0378358 0)
(2.56419 -0.0522095 0)
(2.53111 -0.207001 0)
(2.4915 -0.323596 0)
(2.45349 -0.404482 0)
(2.41202 -0.470155 0)
(2.35642 -0.532129 0)
(2.32824 -0.555045 0)
(2.26701 -0.626417 0)
(2.21256 -0.705032 0)
(2.15891 -0.783001 0)
(2.13235 -0.800269 0)
(1.2323 1.73505 0)
(1.59754 2.32147 0)
(1.74817 2.01963 0)
(1.90044 1.67752 0)
(2.09 1.63309 0)
(2.28035 1.18687 0)
(2.36416 1.13045 0)
(2.45662 0.983128 0)
(2.51026 0.647834 0)
(2.52929 0.551621 0)
(2.55634 0.344714 0)
(2.5574 0.1705 0)
(2.55929 0.0260477 0)
(2.54642 -0.111274 0)
(2.48821 -0.288879 0)
(2.47187 -0.372594 0)
(2.39214 -0.525376 0)
(2.34698 -0.560957 0)
(2.3051 -0.588656 0)
(2.32174 -0.528682 0)
(1.26175 1.7344 0)
(1.64316 2.37519 0)
(1.77122 2.15338 0)
(1.83634 1.99852 0)
(1.99173 1.82993 0)
(2.15942 1.49581 0)
(2.2718 1.34529 0)
(2.36159 1.20109 0)
(2.42 1.04681 0)
(2.48891 0.836066 0)
(2.58254 0.640594 0)
(2.61277 0.382568 0)
(2.65182 0.195828 0)
(2.64137 -0.00336435 0)
(2.59118 -0.200591 0)
(2.55922 -0.279176 0)
(2.51796 -0.346972 0)
(2.51556 -0.255855 0)
(2.45283 -0.324361 0)
(2.47492 -0.277724 0)
(1.18727 1.65042 0)
(1.58886 2.34363 0)
(1.93207 2.36322 0)
(1.97548 2.12509 0)
(2.06909 1.93469 0)
(2.20169 1.66935 0)
(2.357 1.47919 0)
(2.48534 1.29579 0)
(2.60666 1.18586 0)
(2.65979 0.793433 0)
(2.72059 0.62847 0)
(2.71621 0.383735 0)
(2.73059 0.289486 0)
(2.71144 0.143396 0)
(2.6906 0.0675677 0)
(2.6605 0.0408591 0)
(2.6363 0.0456868 0)
(2.62768 0.05291 0)
(2.55868 -0.108765 0)
(2.57731 -0.103925 0)
(1.04042 1.43055 0)
(1.42646 2.17098 0)
(1.90637 2.353 0)
(2.2047 2.34434 0)
(2.41552 2.0332 0)
(2.48842 1.86359 0)
(2.65697 1.63158 0)
(2.77074 1.28888 0)
(2.80344 1.19819 0)
(2.78658 0.979212 0)
(2.77108 0.970761 0)
(2.7595 0.772371 0)
(2.72855 0.710966 0)
(2.72558 0.602788 0)
(2.70423 0.495027 0)
(2.69132 0.424361 0)
(2.70149 0.355618 0)
(2.6907 0.211917 0)
(2.65643 0.0329936 0)
(2.61469 -0.0520295 0)
(1.0101 1.24675 0)
(1.24903 1.92633 0)
(1.74868 2.19473 0)
(2.07745 2.24016 0)
(2.3411 2.06965 0)
(2.49797 2.08612 0)
(2.571 1.73575 0)
(2.59206 1.5123 0)
(2.55826 1.51188 0)
(2.56866 1.45632 0)
(2.57126 1.35111 0)
(2.61181 1.20022 0)
(2.61273 1.02604 0)
(2.67122 0.939056 0)
(2.68546 0.737988 0)
(2.73748 0.612569 0)
(2.76162 0.443178 0)
(2.76006 0.226657 0)
(2.71962 0.190332 0)
(2.67156 0.150785 0)
(1.05558 1.16217 0)
(1.23675 1.67664 0)
(1.49476 2.02488 0)
(1.75947 2.19201 0)
(1.96646 2.23056 0)
(2.08788 2.23378 0)
(2.27838 1.95027 0)
(2.31185 1.84189 0)
(2.27877 1.73443 0)
(2.31618 1.67347 0)
(2.4228 1.46584 0)
(2.54625 1.38005 0)
(2.59571 1.12877 0)
(2.72148 1.03567 0)
(2.74335 0.773645 0)
(2.79056 0.650187 0)
(2.7879 0.512373 0)
(2.77631 0.403408 0)
(2.72664 0.53219 0)
(2.69559 0.470835 0)
(1.20118 1.1589 0)
(1.31416 1.56908 0)
(1.41853 1.96803 0)
(1.52806 2.24542 0)
(1.67408 2.27709 0)
(1.80902 2.22132 0)
(2.0028 2.07725 0)
(2.07523 1.92861 0)
(2.15032 1.77884 0)
(2.30652 1.69074 0)
(2.42812 1.49066 0)
(2.61657 1.42477 0)
(2.68421 1.13775 0)
(2.75403 1.05496 0)
(2.76377 0.8932 0)
(2.74457 0.890085 0)