/*--------------------------------*- C++ -*----------------------------------*\
  =========                 |
  \\      /  F ield         | OpenFOAM: The Open Source CFD Toolbox
   \\    /   O peration     | Website:  https://openfoam.org
    \\  /    A nd           | Version:  7
     \\/     M anipulation  |
\*---------------------------------------------------------------------------*/
FoamFile
{
    version     2.0;
    format      ascii;
    class       volScalarField;
    location    "5.1";
    object      p;
}
// * * * * * * * * * * * * * * * * * * * * * * * * * * * * * * * * * * * * * //

dimensions      [1 -1 -2 0 0 0 0];

internalField   nonuniform List<scalar> 
3700
(
0.159627
0.247798
0.298449
0.351249
0.390396
0.401389
0.389662
0.391514
0.410165
0.426981
0.452264
0.46643
0.475248
0.481216
0.491769
0.494018
0.484966
0.490308
0.528227
0.533026
0.0929572
0.108164
0.1217
0.131344
0.139937
0.132365
0.109476
0.0947697
0.110636
0.142873
0.176077
0.198719
0.216739
0.229645
0.224434
0.204543
0.17837
0.168015
0.180176
0.199572
0.072105
0.0789757
0.0806022
0.0741567
0.059876
0.0493434
0.0513388
0.0568573
0.06503
0.0727245
0.0856535
0.0933672
0.0982309
0.100381
0.100161
0.100336
0.101612
0.104824
0.113863
0.131554
0.065023
0.0715296
0.074838
0.0671716
0.0494757
0.0481262
0.0503865
0.0556093
0.0635638
0.0736459
0.0881388
0.101081
0.119476
0.135935
0.143358
0.151149
0.148377
0.145835
0.145986
0.163865
0.0607878
0.0637156
0.0639791
0.054253
0.0467942
0.0499581
0.0582197
0.0613886
0.0679888
0.0778115
0.0873052
0.0996855
0.121523
0.14722
0.166365
0.186168
0.196078
0.200974
0.200115
0.208173
0.05199
0.0538492
0.0564753
0.0514603
0.053784
0.0626655
0.0743374
0.0842459
0.0961717
0.114515
0.109045
0.112829
0.122793
0.148294
0.177914
0.206639
0.235499
0.262121
0.284098
0.308543
0.041749
0.051029
0.0556838
0.0544628
0.0570583
0.0706622
0.084045
0.101784
0.129703
0.157749
0.159067
0.168739
0.169758
0.179783
0.194561
0.224124
0.264338
0.313426
0.355521
0.422299
0.0360337
0.0511299
0.0584979
0.0565336
0.0578705
0.0734967
0.0841716
0.105464
0.145629
0.18126
0.213004
0.235876
0.256589
0.279219
0.293199
0.312403
0.332794
0.379476
0.437523
0.550941
0.0340743
0.0527713
0.0593241
0.0566173
0.0576709
0.0768916
0.083532
0.102086
0.14485
0.193573
0.244826
0.284108
0.336517
0.378241
0.417512
0.454327
0.486555
0.525113
0.575916
0.725096
0.0362366
0.0508604
0.0553632
0.0584096
0.0717665
0.0962825
0.100657
0.121407
0.154539
0.197922
0.263377
0.323563
0.403304
0.467309
0.537355
0.609134
0.677755
0.737687
0.813274
0.948956
0.0443589
0.0441545
0.051775
0.0706357
0.0993521
0.128099
0.154392
0.201887
0.254382
0.302977
0.358201
0.424222
0.504484
0.583902
0.6727
0.782805
0.900356
1.0036
1.1657
1.12613
0.050081
0.0349335
0.0534199
0.0849367
0.117918
0.15759
0.213024
0.292389
0.382104
0.485462
0.573135
0.661412
0.747903
0.831945
0.916008
1.03274
1.18926
1.33808
1.56317
1.51892
0.0514004
0.0337463
0.0539164
0.0829677
0.114145
0.158068
0.245276
0.348828
0.481981
0.652832
0.790381
0.927815
1.05896
1.18397
1.32181
1.48333
1.65453
1.82686
2.09413
2.09113
0.0493613
0.0337175
0.0375702
0.0586483
0.0931609
0.148207
0.265311
0.421
0.63612
0.877918
1.09039
1.28329
1.47062
1.65056
1.87792
2.11614
2.34752
2.58374
2.80459
3.00047
0.0381236
0.0279153
0.029733
0.0518357
0.0985366
0.270398
0.530498
0.821192
1.16735
1.47446
1.7208
1.93488
2.15192
2.3829
2.68985
2.98005
3.25606
3.4995
3.65089
3.78106
0.0216709
0.0233589
0.0274479
0.0892519
0.320762
0.744961
1.14309
1.55674
2.00742
2.38145
2.64535
2.89844
3.16161
3.4535
3.78255
3.99353
4.10536
4.13293
4.03711
3.9058
0.0130647
0.023951
0.101527
0.400037
0.946664
1.49384
2.01312
2.58122
3.16939
3.53275
3.75294
3.9861
4.19583
4.37136
4.48272
4.41145
4.19775
3.66661
2.80376
1.89155
0.0193956
0.117913
0.51798
1.23111
2.13081
2.89336
3.53658
4.2015
4.7608
4.82835
4.72944
4.72857
4.68908
4.52728
4.02711
3.07842
2.10515
1.34027
1.02002
0.992936
0.313937
0.906566
2.03344
3.21691
4.21681
4.84874
5.41898
5.89053
5.74596
5.29068
4.85379
4.30809
3.38665
2.32037
1.42413
1.02918
0.989215
0.994845
0.99729
0.999434
2.31837
3.63641
4.87629
5.7097
6.29769
6.45239
6.56295
6.22878
4.53202
3.20758
2.37121
1.56569
1.08248
0.987655
0.992971
0.996311
0.999157
0.999973
1.00002
1.00001
6.95884
6.91272
6.84757
6.93518
7.07966
6.78291
5.97969
2.26169
0.654811
1
1
1
1
1
1
1
1
1
1
1
6.89114
6.86333
6.73922
6.67218
6.87954
5.81918
2.62579
1.01665
1
1
1
1
1
1
1
1
1
1
1
1
6.80236
6.85657
6.78872
6.58583
6.25928
3.45427
1.05965
0.998883
1
1
1
1
1
1
1
1
1
1
1
1
6.66261
6.84169
6.85291
6.62953
4.71445
1.47077
0.992529
1.00013
0.999999
1
1
1
1
1
1
1
1
1
1
1
6.50555
6.78394
6.82622
6.23686
2.63879
0.975852
1.00036
0.999994
1
1
1
1
1
1
1
1
1
1
1
1
6.41823
6.70793
6.70206
4.87881
1.43016
1
1
1
1
1
1
1
1
1
1
1
1
1
1
1
6.38761
6.70824
6.62719
3.60485
0.992391
1
1
1
1
1
1
1
1
1
1
1
1
1
1
1
6.52973
6.73612
6.13839
2.03014
0.999977
1
1
1
1
1
1
1
1
1
1
1
1
1
1
1
6.97804
6.6407
4.85809
1.21186
1
1
1
1
1
1
1
1
1
1
1
1
1
1
1
1
7.277
6.38766
3.45056
0.987598
1
1
1
1
1
1
1
1
1
1
1
1
1
1
1
1
7.45133
6.02086
2.26557
1
1
1
1
1
1
1
1
1
1
1
1
1
1
1
1
1
7.51117
5.34957
1.60274
1
1
1
1
1
1
1
1
1
1
1
1
1
1
1
1
1
7.55969
4.73418
1.16307
1
1
1
1
1
1
1
1
1
1
1
1
1
1
1
1
1
7.37013
4.00694
1.00145
1
1
1
1
1
1
1
1
1
1
1
1
1
1
1
1
1
7.14624
3.27875
1
1
1
1
1
1
1
1
1
1
1
1
1
1
1
1
1
1
7.0306
2.50968
1
1
1
1
1
1
1
1
1
1
1
1
1
1
1
1
1
1
6.66718
1.83467
1
1
1
1
1
1
1
1
1
1
1
1
1
1
1
1
1
1
6.27406
1.34123
1
1
1
1
1
1
1
1
1
1
1
1
1
1
1
1
1
1
5.76261
1.00498
1
1
1
1
1
1
1
1
1
1
1
1
1
1
1
1
1
1
4.64645
1.00015
1
1
1
1
1
1
1
1
1
1
1
1
1
1
1
1
1
1
4.64378
1.00014
1
1
1
1
1
1
1
1
1
1
1
1
1
1
1
1
1
1
5.76503
1.00513
1
1
1
1
1
1
1
1
1
1
1
1
1
1
1
1
1
1
6.2803
1.34485
1
1
1
1
1
1
1
1
1
1
1
1
1
1
1
1
1
1
6.6585
1.83744
1
1
1
1
1
1
1
1
1
1
1
1
1
1
1
1
1
1
7.04038
2.5069
1
1
1
1
1
1
1
1
1
1
1
1
1
1
1
1
1
1
7.13784
3.28832
1
1
1
1
1
1
1
1
1
1
1
1
1
1
1
1
1
1
7.36091
4.0037
1.00144
1
1
1
1
1
1
1
1
1
1
1
1
1
1
1
1
1
7.56104
4.73234
1.15971
1
1
1
1
1
1
1
1
1
1
1
1
1
1
1
1
1
7.51673
5.35062
1.60239
1
1
1
1
1
1
1
1
1
1
1
1
1
1
1
1
1
7.45393
6.0161
2.27153
1
1
1
1
1
1
1
1
1
1
1
1
1
1
1
1
1
7.27615
6.39448
3.45037
0.987562
1
1
1
1
1
1
1
1
1
1
1
1
1
1
1
1
6.96867
6.62384
4.85612
1.21893
1
1
1
1
1
1
1
1
1
1
1
1
1
1
1
1
6.53366
6.73896
6.13384
2.02561
0.999975
1
1
1
1
1
1
1
1
1
1
1
1
1
1
1
6.39297
6.72055
6.63863
3.60979
0.993976
1
1
1
1
1
1
1
1
1
1
1
1
1
1
1
6.42346
6.7085
6.69813
4.88888
1.4438
1
1
1
1
1
1
1
1
1
1
1
1
1
1
1
6.50517
6.77368
6.81855
6.21845
2.63246
0.97603
1.00036
0.999994
1
1
1
1
1
1
1
1
1
1
1
1
6.66147
6.83849
6.84867
6.64429
4.70977
1.4608
0.992613
1.00013
0.999999
1
1
1
1
1
1
1
1
1
1
1
6.80718
6.85678
6.79395
6.60081
6.2579
3.45755
1.05977
0.99885
1
1
1
1
1
1
1
1
1
1
1
1
6.89535
6.8646
6.7411
6.68013
6.87616
5.81014
2.63424
1.01784
1
1
1
1
1
1
1
1
1
1
1
1
6.9559
6.90981
6.84498
6.93583
7.07783
6.78083
5.97708
2.25465
0.657412
1
1
1
1
1
1
1
1
1
1
1
2.31575
3.64076
4.88146
5.71327
6.29044
6.44659
6.56424
6.22779
4.53129
3.20685
2.37168
1.56678
1.0831
0.987623
0.993031
0.996347
0.999165
0.999973
1.00002
1.00001
0.312812
0.886885
2.00609
3.21692
4.21805
4.84202
5.41567
5.89195
5.74898
5.29379
4.85572
4.3098
3.38832
2.32137
1.4243
1.02912
0.98925
0.994862
0.997295
0.999435
0.0232451
0.13718
0.530978
1.22008
2.12431
2.89539
3.53717
4.20173
4.75856
4.83184
4.73147
4.72805
4.68765
4.52567
4.02422
3.07496
2.10277
1.33916
1.01978
0.992931
0.010298
0.0236646
0.115088
0.415709
0.956475
1.48871
2.00645
2.57121
3.16004
3.5271
3.74843
3.98236
4.1919
4.36656
4.48082
4.41004
4.19672
3.66599
2.80397
1.89224
0.0158942
0.0195936
0.0265152
0.0994815
0.328364
0.755995
1.14963
1.56171
2.00783
2.37899
2.64101
2.89535
3.16031
3.45252
3.78156
3.99495
4.10804
4.13504
4.03909
3.90709
0.0285065
0.021236
0.0256834
0.0486802
0.0966804
0.290063
0.552952
0.842368
1.18532
1.488
1.7312
1.94274
2.15789
2.38627
2.68985
2.97899
3.25593
3.49908
3.6499
3.78029
0.0467971
0.029329
0.0310562
0.0541047
0.0931981
0.145667
0.263681
0.417057
0.635144
0.874687
1.08798
1.28047
1.46793
1.64707
1.87467
2.11248
2.34522
2.58184
2.80254
3.00172
0.055987
0.035233
0.0484113
0.076652
0.11383
0.148451
0.239071
0.339722
0.471882
0.645619
0.78555
0.926378
1.06009
1.18569
1.32481
1.48629
1.65507
1.82704
2.09357
2.09071
0.0550028
0.0364948
0.0501376
0.079165
0.116821
0.151651
0.208712
0.289748
0.37998
0.487949
0.577413
0.667623
0.755345
0.839804
0.921915
1.03402
1.18563
1.33333
1.56214
1.52019
0.0508026
0.0398794
0.0459155
0.0659082
0.0984598
0.12797
0.154584
0.206116
0.259816
0.312138
0.368128
0.430746
0.505306
0.581801
0.667113
0.775677
0.895616
1.00189
1.16758
1.12894
0.0438444
0.0471366
0.0478702
0.0522598
0.070517
0.0980103
0.100231
0.124304
0.158841
0.195921
0.255701
0.316036
0.39587
0.461231
0.532781
0.606741
0.677651
0.740768
0.81619
0.950286
0.0390657
0.0526092
0.0546929
0.0537421
0.0568227
0.0787329
0.0831985
0.0998624
0.14107
0.188872
0.23975
0.279698
0.334245
0.377133
0.41851
0.457213
0.49187
0.530016
0.577875
0.723828
0.0397496
0.0546882
0.0579938
0.0567664
0.0585905
0.0740151
0.0833916
0.10288
0.143591
0.180234
0.213668
0.237384
0.261443
0.285135
0.299769
0.319097
0.337258
0.377783
0.432793
0.547755
0.0435046
0.0542323
0.0575483
0.055645
0.0574804
0.0712566
0.0840194
0.101166
0.130721
0.159563
0.166512
0.176746
0.176425
0.185265
0.196052
0.220996
0.258068
0.30772
0.35135
0.420023
0.0541735
0.0556984
0.0559173
0.0500437
0.0539554
0.0642927
0.0762009
0.0866329
0.10026
0.121173
0.113577
0.116265
0.121896
0.143768
0.172493
0.201468
0.231121
0.259472
0.283886
0.310372
0.0641558
0.0641522
0.0621853
0.0511288
0.0464873
0.0527118
0.0595981
0.0621621
0.068509
0.0791425
0.0861757
0.0970647
0.117446
0.142593
0.162469
0.182323
0.195883
0.204091
0.20425
0.210859
0.0663401
0.0727048
0.0763861
0.0677715
0.0487129
0.0464419
0.0485358
0.0535792
0.0602381
0.0706443
0.0853214
0.0983517
0.116128
0.133191
0.14211
0.151052
0.150809
0.148839
0.148252
0.16273
0.069086
0.0774688
0.0825758
0.0763277
0.0619397
0.0488752
0.0491565
0.0545444
0.0615566
0.0700753
0.0832053
0.0919239
0.0979378
0.101209
0.101519
0.102148
0.103518
0.106224
0.113511
0.130097
0.0835321
0.0984446
0.12143
0.129006
0.118255
0.106745
0.117364
0.14052
0.145984
0.130033
0.132496
0.141268
0.15324
0.160788
0.16839
0.179323
0.19882
0.217438
0.225903
0.215734
0.148597
0.229252
0.289389
0.353957
0.373234
0.385592
0.386797
0.416625
0.435258
0.415751
0.415781
0.429978
0.449937
0.464603
0.488493
0.504471
0.511465
0.525558
0.536624
0.527724
0.562044
0.634365
0.713372
0.812436
0.813722
0.835103
0.848081
0.890541
0.912463
0.911004
0.907021
0.911663
0.929927
0.956796
0.968222
0.960757
0.950773
0.950152
0.957455
0.963714
0.285764
0.410449
0.549567
0.679526
0.750793
0.81087
0.84427
0.883355
0.912275
0.921994
0.924196
0.92716
0.926331
0.936927
0.948954
0.957973
0.964902
0.967592
0.968044
0.962994
0.139408
0.156793
0.239405
0.332965
0.512865
0.679691
0.764458
0.842963
0.89374
0.923159
0.927877
0.931169
0.927656
0.92434
0.929033
0.94855
0.966713
0.972156
0.972176
0.964658
0.190106
0.212239
0.23727
0.243803
0.257518
0.330492
0.529904
0.715706
0.824173
0.890466
0.935963
0.931412
0.925447
0.914232
0.916041
0.937359
0.964909
0.970327
0.967776
0.961586
0.231478
0.261681
0.269496
0.292906
0.302793
0.291171
0.308134
0.39343
0.583395
0.77595
0.896072
0.920683
0.931794
0.923392
0.914483
0.933732
0.96131
0.964028
0.95667
0.9576
0.303662
0.319177
0.334925
0.345677
0.342495
0.332893
0.333498
0.327917
0.351635
0.479082
0.70502
0.880657
0.926647
0.939626
0.927403
0.934287
0.943305
0.940958
0.944804
0.955706
0.400363
0.400129
0.383988
0.386151
0.392303
0.387957
0.378953
0.370208
0.356682
0.364724
0.449377
0.660761
0.873634
0.943649
0.938998
0.940197
0.933266
0.926786
0.936616
0.958654
0.533772
0.504784
0.443344
0.423329
0.429371
0.433805
0.424572
0.409126
0.396705
0.380184
0.382723
0.438731
0.630362
0.865295
0.939496
0.947813
0.930557
0.925955
0.945617
0.964096
0.690226
0.62003
0.531273
0.46784
0.474411
0.486827
0.480098
0.458063
0.433601
0.416133
0.397336
0.401595
0.442126
0.626443
0.849438
0.943847
0.923461
0.932102
0.96061
0.96556
0.873669
0.775349
0.646233
0.550476
0.531178
0.531167
0.527517
0.502947
0.477253
0.441684
0.43099
0.420993
0.42644
0.464547
0.628231
0.853401
0.894543
0.936986
0.970879
0.962273
1.23687
1.00019
0.829914
0.666885
0.585606
0.580723
0.603443
0.596647
0.567697
0.523872
0.48359
0.471814
0.461181
0.461406
0.481031
0.573787
0.748727
0.887715
0.937295
0.950648
2.02945
1.47526
1.19657
1.01468
0.81536
0.706328
0.70284
0.688483
0.636553
0.586544
0.55789
0.539968
0.524393
0.501728
0.478079
0.483493
0.525558
0.639929
0.787918
0.908574
2.51035
2.15895
1.70448
1.37454
1.13157
0.905891
0.787402
0.749246
0.710305
0.668957
0.664082
0.649969
0.62087
0.579599
0.536431
0.518275
0.524976
0.53595
0.575393
0.745056
2.36832
2.34895
2.23693
1.91056
1.5742
1.30364
1.05705
0.936432
0.890092
0.820366
0.762282
0.714228
0.672689
0.630735
0.594634
0.58057
0.571101
0.55477
0.546544
0.583412
1.67909
2.15003
2.2244
2.1924
2.05379
1.79652
1.48381
1.23985
1.08318
0.955461
0.864528
0.776414
0.740749
0.724037
0.696132
0.6724
0.654354
0.624498
0.575166
0.577767
1.10821
1.43844
1.85119
2.1128
2.11123
2.07388
1.93417
1.68734
1.43248
1.23097
1.09153
0.966878
0.900392
0.862601
0.804485
0.741098
0.69633
0.658816
0.626609
0.601848
1.00453
1.04412
1.20813
1.54945
1.86526
2.01909
2.01374
1.96907
1.83549
1.62678
1.39981
1.21974
1.06568
0.976032
0.899205
0.816892
0.769438
0.742676
0.731691
0.697048
1.00009
1.0011
1.01078
1.07908
1.26861
1.57064
1.8217
1.93643
1.93027
1.8896
1.76469
1.58674
1.38201
1.20758
1.10005
1.00529
0.93079
0.883887
0.836406
0.758844
1
1.00001
1.00015
1.00253
1.01849
1.10119
1.2908
1.55811
1.76669
1.85763
1.85163
1.81666
1.72066
1.54849
1.37845
1.23066
1.09772
0.996446
0.924635
0.833989
1
1
1
1.00003
1.00032
1.00395
1.02491
1.10774
1.28586
1.52272
1.70282
1.78857
1.78447
1.75563
1.67529
1.53956
1.3841
1.22847
1.12257
0.999176
1
1
1
1
1
1.00005
1.0005
1.00462
1.02656
1.10588
1.26401
1.47605
1.63842
1.72426
1.72211
1.70304
1.64466
1.52805
1.39441
1.19458
1
1
1
1
1
1
1
1.00006
1.00059
1.00477
1.02558
1.09401
1.23335
1.4234
1.5744
1.66691
1.66532
1.65274
1.61555
1.46233
1
1
1
1
1
1
1
1
1.00001
1.00006
1.0006
1.00416
1.02197
1.08061
1.19787
1.37054
1.50685
1.60955
1.61395
1.59025
1
1
1
1
1
1
1
1
1
1
1.00001
1.00005
1.00051
1.00346
1.01753
1.0639
1.1644
1.31319
1.44395
1.55033
1
1
1
1
1
1
1
1
1
1
1
1
1.00001
1.00005
1.0004
1.00256
1.01411
1.05117
1.13621
1.38889
1.61999
2.46431
2.58299
2.08541
1.31025
1.03698
1.00188
1.00005
1
1
1
1
1
1
1
2.34156
2.81373
2.52659
1.54058
1.04824
1.00081
1
1
1
1
1
1
1
1
1
2.92892
2.86762
1.9799
1.1528
1.00525
1.00005
1
1
1
1
1
1
1
1
1
3.25099
2.55749
1.36486
1.01914
1.00018
1
1
1
1
1
1
1
1
1
1
3.31988
1.68287
1.04717
1.00052
1
1
1
1
1
1
1
1
1
1
1
2.0638
1.07303
1.00048
0.999999
1
1
1
1
1
1
1
1
1
1
1
1.10131
1.00054
0.999997
1
1
1
1
1
1
1
1
1
1
1
1
0.998154
0.999865
0.999996
1
1
1
1
1
1
1
1
1
1
1
1
0.999966
1
1
1
1
1
1
1
1
1
1
1
1
1
1
1
1
1
1
1
1
1
1
1
1
1
1
1
1
1
1
1
1
1
1
1
1
1
1
1
1
1
1
1
1
1
1
1
1
1
1
1
1
1
1
1
1
1
1
1
1
1
1
1
1
1
1
1
1
1
1
1
1
1
1
1
1
1
1
1
1
1
1
1
1
1
1
1
1
1
1
1
1
1
1
1
1
1
1
1
1
1
1
1
1
1
1
1
1
1
1
1
1
1
1
1
1
1
1
1
1
1
1
1
1
1
1
1
1
1
1
1
1
1
1
1
1
1
1
1
1
1
1
1
1
1
1
1
1
1
1
1
1
1
1
1
1
1
1
1
1
1
1
1
1
1
1
1
1
1
1
1
1
1
1
1
1
1
1
1
1
1
1
1
1
1
1
1
1
1
1
1
1
1
1
1
1
1
1
1
1
1
1
1
1
1
1
1
1
1
1
1
1
1
1
1
1
1
1
1
1
1
1
1
1
1
1
1
1
1
1
1
1
1
1
1
1
1
1
1
1
1
1
1
1
1
1
1
1
1
1
1
1
1
1
1
1
1
1
1
1
1
1
1
1
1
1
1
1
1
1
1
1
1
1
1
1
1
1
1
1
1
1
1
1
1
1
1
1
1
1
1
1
1
1
1
1
1
1
1
1
1
1
1
1
1
1
1
1
1
1
1
1
1
1
1
1
1
1
1
1
1
1
1
1
1
1
1
1
1
1
1
1
1
1
1
1
1
1
1
1
1
1
1
1
1
1
1
1
1
1
1
1
1
1
1
1
1
1
1
1
1
1
1
1
1
1
1
1
1
1
1
1
1
1
1
1
1
1
1
1
1
1
1
1
1
1
1
1
1
1
1
1
1
1
1
1
1
1
1
1
1
1
1
1
1
1
1
1
1
1
1
1
1
1
1
1
1
1
1
1
1
1
1
1
1
1
1
1
1
1
1
1
1
1
1
1
1
1
1
1
1
1
1
1
1
1
1
1
1
1
1
1
1
1
1
1
1
1
1
1
1
1
1
1
1
1
1
1
1
1
1
1
1
1
1
1
1
1
1
1
1
1
1
1
1
1
1
1
1
1
1
1
1
1
1
1
1
1
1
1
1
1
1
1
1
1
1
1
1
1
1
1
1
1
1
1
1
1
1
1
1
1
1
1
1
1
1
1
1
1
1
1
1
1
1
1
1
1
1
1
1
1
1
1
1
1
1
1
1
1
1
1
1
1
1
1
1
1
1
1
1
1
1
1
1
1
1
1
1
1
1
1
1
1
1
1
1
1
1
1
1
1
1
1
1
1
1
1
1
1
1
1
1
1
1
1
1
1
1
1
1
1
1
1
1
1
1
1
1
1
1
1
1
1
1
1
1
1
1
1
1
1
1
1
1
1
1
1
1
1
1
1
1
1
1
1
1
1
1
1
1
1
1
1
1
1
1
1
1
1
1
1
1
1
1
1
1
1
1
1
1
1
1
1
1
1
1
1
1
1
1
1
1
1
1
1
1
1
1
1
1
1
1
1
1
1
1
1
1
1
1
1
1
1
1
1
1
1
1
1
1
1
1
1
1
1
1
1
1
1
1
1
1
1
1
1
1
1
1
1
1
1
1
1
1
1
1
1
1
1
1
1
1
1
1
1
1
1
1
1
1
1
1
1
1
1
1
1
1
1
1
1
1
1
1
1
1
1
1
1
1
1
1
1
1
1
1
1
1
1
1
1
1
1
1
1
1
1
1
1
1
1
1
1
1
1
1
1
1
1
1
1
1
1
1
1
1
1
1
1
1
1
1
1
1
1
1
1
1
1
1
1
1
1
1
1
1
1
1
1
1
1
1
1
1
1
1
1
1
1
1
1
1
1
1
1
1
1
1
1
1
1
1
1
0.999966
1
1
1
1
1
1
1
1
1
1
1
1
1
1
0.998153
0.999865
0.999996
1
1
1
1
1
1
1
1
1
1
1
1
1.10142
1.00054
0.999997
1
1
1
1
1
1
1
1
1
1
1
1
2.06398
1.07302
1.00048
0.999999
1
1
1
1
1
1
1
1
1
1
1
3.31945
1.68286
1.04723
1.00052
1
1
1
1
1
1
1
1
1
1
1
3.25123
2.55689
1.36447
1.0191
1.00018
1
1
1
1
1
1
1
1
1
1
2.92938
2.86826
1.97997
1.15263
1.00524
1.00005
1
1
1
1
1
1
1
1
1
2.34249
2.81428
2.52667
1.54048
1.04822
1.00081
1
1
1
1
1
1
1
1
1
1.62106
2.46496
2.58308
2.08504
1.31005
1.03694
1.00187
1.00005
1
1
1
1
1
1
1
1.23473
2.02961
2.51018
2.36879
1.67965
1.10845
1.00453
1.00009
1
1
1
1
1
1
1
0.992976
1.46568
2.16334
2.34867
2.14858
1.43802
1.0441
1.0011
1.00001
1
1
1
1
1
1
0.842265
1.19775
1.69361
2.23732
2.2247
1.85087
1.20794
1.01078
1.00015
1
1
1
1
1
1
0.68003
1.03298
1.37284
1.90963
2.19235
2.11253
1.54915
1.07906
1.00253
1.00003
1
1
1
1
1
0.581561
0.825025
1.13676
1.57235
2.05303
2.11116
1.86526
1.26866
1.01852
1.00032
1
1
1
1
1
0.573231
0.703163
0.907228
1.29158
1.80014
2.07378
2.01941
1.57099
1.10125
1.00396
1.00005
1
1
1
1
0.592713
0.695174
0.800969
1.05313
1.48135
1.93427
2.01379
1.822
1.29094
1.02492
1.0005
1
1
1
1
0.587666
0.674754
0.76124
0.955026
1.22811
1.68764
1.96885
1.93617
1.55809
1.10778
1.00463
1.00006
1
1
1
0.562258
0.622377
0.704331
0.901327
1.08387
1.42639
1.83433
1.92987
1.7664
1.28582
1.02657
1.00059
1.00001
1
1
0.530138
0.575645
0.651432
0.818264
0.963766
1.22596
1.62437
1.88929
1.85764
1.52277
1.10588
1.00477
1.00006
1
1
0.49793
0.552527
0.65044
0.757789
0.868425
1.09097
1.39985
1.76518
1.85189
1.7031
1.26405
1.02558
1.0006
1.00001
1
0.474183
0.546189
0.642169
0.706019
0.778045
0.974306
1.22271
1.58724
1.817
1.78898
1.47627
1.09402
1.00416
1.00005
1
0.464275
0.53386
0.618659
0.664403
0.742077
0.909615
1.06825
1.38254
1.72118
1.7849
1.63872
1.23344
1.02198
1.00051
1.00001
0.467674
0.511863
0.582771
0.627212
0.723141
0.865714
0.973674
1.20778
1.54969
1.75617
1.72467
1.42357
1.08063
1.00346
1.00005
0.483438
0.482441
0.547593
0.593902
0.694087
0.801123
0.894947
1.10205
1.37949
1.67589
1.72243
1.57463
1.19795
1.01753
1.00041
0.568126
0.488245
0.527813
0.580335
0.671597
0.737258
0.814266
1.00893
1.2311
1.53977
1.70322
1.66705
1.37061
1.06392
1.00256
0.746084
0.530285
0.533868
0.570828
0.654551
0.694572
0.768449
0.933423
1.09724
1.38424
1.64478
1.66543
1.50694
1.1644
1.0141
0.883653
0.642495
0.539445
0.556398
0.625615
0.658826
0.740122
0.883908
0.995266
1.22844
1.52814
1.65283
1.60963
1.31319
1.05115
0.937661
0.78694
0.573763
0.546951
0.577154
0.626566
0.729008
0.83526
0.923342
1.1222
1.39449
1.61561
1.61395
1.44391
1.13617
0.951416
0.907345
0.742126
0.583412
0.579041
0.601671
0.695048
0.758333
0.833487
0.998837
1.19463
1.46232
1.5902
1.55027
1.38884
0.87184
0.775684
0.647962
0.544203
0.524408
0.527391
0.529027
0.506734
0.485144
0.456501
0.431428
0.42264
0.42779
0.461175
0.625451
0.845287
0.877707
0.928275
0.969075
0.962929
0.688231
0.620928
0.528317
0.462921
0.469368
0.483205
0.482189
0.465354
0.443135
0.420641
0.402901
0.40551
0.44327
0.629309
0.854209
0.940778
0.912468
0.922962
0.959515
0.966924
0.534405
0.504864
0.440455
0.417677
0.424767
0.432974
0.428219
0.413118
0.400648
0.387032
0.388267
0.442424
0.631117
0.860707
0.909742
0.944971
0.934452
0.930698
0.947971
0.964672
0.405883
0.400289
0.376186
0.377937
0.390515
0.389091
0.380154
0.369574
0.359115
0.365348
0.447632
0.658368
0.872406
0.923278
0.924607
0.944102
0.950994
0.941171
0.946851
0.960403
0.306711
0.319649
0.331027
0.342083
0.344532
0.338978
0.337892
0.329594
0.350974
0.473582
0.694917
0.868841
0.918524
0.920006
0.925767
0.949859
0.966759
0.961824
0.95289
0.958293
0.232121
0.261572
0.268528
0.291706
0.304743
0.295326
0.312979
0.395285
0.58144
0.778773
0.89194
0.916415
0.922569
0.91693
0.927986
0.953538
0.969565
0.966684
0.957484
0.957039
0.190076
0.213679
0.236241
0.243191
0.263459
0.347742
0.542815
0.71541
0.825266
0.895863
0.934979
0.929732
0.925538
0.924989
0.935349
0.95223
0.963354
0.964387
0.961582
0.95766
0.139529
0.164768
0.233981
0.33135
0.531627
0.694099
0.757878
0.827291
0.890959
0.926598
0.931276
0.933477
0.93292
0.93791
0.946084
0.955008
0.959404
0.961072
0.959968
0.957185
0.29491
0.430404
0.545653
0.686294
0.76046
0.819147
0.834671
0.864883
0.902768
0.918928
0.925024
0.929998
0.935356
0.952449
0.961323
0.957063
0.949802
0.949329
0.952075
0.957986
0.564684
0.641376
0.713122
0.815734
0.814429
0.827749
0.845499
0.88075
0.917501
0.923866
0.922409
0.924749
0.93559
0.962733
0.96703
0.950461
0.93597
0.939288
0.955442
0.9641
)
;

boundaryField
{
    inlet
    {
        type            fixedValue;
        value           uniform 1;
    }
    outlet
    {
        type            zeroGradient;
    }
    airfoil
    {
        type            zeroGradient;
    }
    top
    {
        type            symmetryPlane;
    }
    bottom
    {
        type            symmetryPlane;
    }
    defaultFaces
    {
        type            empty;
    }
}


// ************************************************************************* //
