/*--------------------------------*- C++ -*----------------------------------*\
  =========                 |
  \\      /  F ield         | OpenFOAM: The Open Source CFD Toolbox
   \\    /   O peration     | Website:  https://openfoam.org
    \\  /    A nd           | Version:  7
     \\/     M anipulation  |
\*---------------------------------------------------------------------------*/
FoamFile
{
    version     2.0;
    format      ascii;
    class       volScalarField;
    location    "5.1";
    object      rho;
}
// * * * * * * * * * * * * * * * * * * * * * * * * * * * * * * * * * * * * * //

dimensions      [1 -3 0 0 0 0 0];

internalField   nonuniform List<scalar> 
3700
(
0.22218
0.344301
0.414326
0.48716
0.541036
0.556194
0.540065
0.542895
0.568723
0.591615
0.62611
0.645493
0.657688
0.665966
0.680621
0.683842
0.671659
0.679482
0.732034
0.738527
0.12984
0.150966
0.169756
0.183076
0.194799
0.184226
0.15254
0.132339
0.154389
0.198973
0.245006
0.276411
0.301358
0.319227
0.312031
0.284555
0.248513
0.234433
0.251364
0.278307
0.100819
0.110405
0.112694
0.103741
0.083851
0.0691635
0.0719553
0.0796669
0.0910838
0.101818
0.119876
0.130661
0.137468
0.140487
0.140206
0.140474
0.142272
0.146762
0.159385
0.184098
0.0909599
0.100044
0.104677
0.0940107
0.0693383
0.0674726
0.0706336
0.0779338
0.0890525
0.103128
0.123363
0.141444
0.167143
0.190133
0.200517
0.211426
0.207598
0.204108
0.204347
0.229291
0.0850603
0.0891585
0.0895514
0.0760035
0.0656057
0.0700416
0.0816075
0.0860357
0.0952575
0.10897
0.122223
0.139516
0.170012
0.205893
0.232633
0.260296
0.274149
0.281015
0.279869
0.291157
0.0727757
0.0753791
0.0790748
0.0720989
0.075348
0.0877597
0.104083
0.117954
0.134648
0.160285
0.152643
0.157911
0.17181
0.207422
0.24878
0.288884
0.329159
0.366313
0.397004
0.431103
0.0584616
0.0714335
0.0779565
0.0762486
0.0798592
0.0988564
0.11757
0.142363
0.181369
0.220558
0.222441
0.235969
0.237411
0.251421
0.272064
0.313339
0.369432
0.43787
0.496582
0.589656
0.0504599
0.0715428
0.0818427
0.0791105
0.0809666
0.102779
0.117718
0.147459
0.203514
0.253274
0.297593
0.329553
0.358466
0.390062
0.409594
0.43642
0.464901
0.529994
0.610885
0.768855
0.0477024
0.073806
0.0829807
0.0792273
0.0806918
0.107526
0.116823
0.142739
0.202415
0.270406
0.341919
0.396741
0.46981
0.528008
0.582763
0.634107
0.67906
0.732815
0.803622
1.01129
0.0507085
0.0711374
0.077472
0.0817632
0.100422
0.13465
0.140778
0.169732
0.215958
0.276483
0.367794
0.451738
0.562865
0.652068
0.749646
0.849623
0.945209
1.02867
1.13386
1.32259
0.062074
0.0618309
0.0725067
0.0988849
0.138979
0.179103
0.2158
0.28202
0.355222
0.422922
0.49994
0.591974
0.703833
0.814476
0.938108
1.09133
1.25486
1.39849
1.62378
1.56883
0.070125
0.0489937
0.0748283
0.118857
0.164895
0.220228
0.297518
0.408105
0.533084
0.676985
0.799105
0.922025
1.04248
1.15951
1.27654
1.43894
1.65652
1.8633
2.17587
2.11443
0.072012
0.0473581
0.075543
0.116095
0.159627
0.220881
0.342436
0.48668
0.672028
0.909747
1.10121
1.29247
1.47495
1.64886
1.84044
2.06484
2.30257
2.54187
2.91282
2.90861
0.0691989
0.0473471
0.0527184
0.0821426
0.130345
0.207115
0.370322
0.587143
0.886441
1.22273
1.51825
1.78652
2.04696
2.29699
2.61262
2.94311
3.26398
3.59164
3.89813
4.17009
0.0534971
0.0392339
0.041752
0.0726252
0.137727
0.377065
0.739073
1.14337
1.62447
2.05127
2.39367
2.69117
2.99266
3.31323
3.73887
4.14104
4.52355
4.86119
5.07173
5.25284
0.0304689
0.0328454
0.0385401
0.124818
0.44709
1.03679
1.59017
2.16478
2.7906
3.30994
3.6763
4.02745
4.39235
4.79682
5.25285
5.54522
5.70061
5.7393
5.6077
5.42783
0.0184053
0.0336469
0.141948
0.557495
1.31693
2.07689
2.79789
3.58625
4.40234
4.90634
5.21149
5.53437
5.82462
6.068
6.2226
6.12432
5.83054
5.09847
3.90497
2.64082
0.0272883
0.164935
0.721657
1.71201
2.96034
4.01813
4.91018
5.83208
6.60749
6.70069
6.56341
6.56211
6.50736
6.2843
5.5948
4.28309
2.93656
1.87444
1.42795
1.39015
0.439019
1.2625
2.82584
4.4661
5.85161
6.7274
7.51758
8.17151
7.97128
7.34036
6.73512
5.98112
4.70722
3.23339
1.99087
1.44071
1.38495
1.39281
1.39622
1.39922
3.22326
5.04871
6.76506
7.91835
8.73263
8.94786
9.10153
8.64029
6.29183
4.45664
3.30068
2.18685
1.51501
1.38278
1.39019
1.39486
1.39883
1.39997
1.40003
1.40002
9.64608
9.58234
9.49241
9.61398
9.81495
9.4072
8.29944
3.15263
0.918075
1.40001
1.40001
1.40001
1.40001
1.40001
1.40001
1.40001
1.40001
1.40001
1.40001
1.40001
9.5527
9.5143
9.34292
9.25088
9.53921
8.07636
3.65792
1.42312
1.40001
1.40001
1.40001
1.40001
1.40001
1.40001
1.40001
1.40001
1.40001
1.40001
1.40001
1.40001
9.43012
9.50514
9.41163
9.13211
8.68276
4.80458
1.48281
1.39845
1.40001
1.40001
1.40001
1.40001
1.40001
1.40001
1.40001
1.40001
1.40001
1.40001
1.40001
1.40001
9.23687
9.48464
9.50061
9.19374
6.54863
2.05397
1.3896
1.40019
1.4
1.40001
1.40001
1.40001
1.40001
1.40001
1.40001
1.40001
1.40001
1.40001
1.40001
1.40001
9.01955
9.4047
9.46395
8.65229
3.67426
1.3663
1.40051
1.4
1.40001
1.40001
1.40001
1.40001
1.40001
1.40001
1.40001
1.40001
1.40001
1.40001
1.40001
1.40001
8.89868
9.2995
9.29205
6.77428
1.99705
1.40001
1.40001
1.40001
1.40001
1.40001
1.40001
1.40001
1.40001
1.40001
1.40001
1.40001
1.40001
1.40001
1.40001
1.40001
8.85627
9.29993
9.18848
5.01097
1.38927
1.40001
1.40001
1.40001
1.40001
1.40001
1.40001
1.40001
1.40001
1.40001
1.40001
1.40001
1.40001
1.40001
1.40001
1.40001
9.05258
9.33871
8.51466
2.82905
1.4
1.40001
1.40001
1.40001
1.40001
1.40001
1.40001
1.40001
1.40001
1.40001
1.40001
1.40001
1.40001
1.40001
1.40001
1.40001
9.67244
9.2081
6.74617
1.69402
1.4
1.40001
1.40001
1.40001
1.40001
1.40001
1.40001
1.40001
1.40001
1.40001
1.40001
1.40001
1.40001
1.40001
1.40001
1.40001
10.0856
8.85945
4.79836
1.38269
1.40001
1.40001
1.40001
1.40001
1.40001
1.40001
1.40001
1.40001
1.40001
1.40001
1.40001
1.40001
1.40001
1.40001
1.40001
1.40001
10.3262
8.35369
3.15611
1.40001
1.40001
1.40001
1.40001
1.40001
1.40001
1.40001
1.40001
1.40001
1.40001
1.40001
1.40001
1.40001
1.40001
1.40001
1.40001
1.40001
10.4086
7.42639
2.23677
1.40001
1.40001
1.40001
1.40001
1.40001
1.40001
1.40001
1.40001
1.40001
1.40001
1.40001
1.40001
1.40001
1.40001
1.40001
1.40001
1.40001
10.4753
6.57559
1.62649
1.40001
1.40001
1.40001
1.40001
1.40001
1.40001
1.40001
1.40001
1.40001
1.40001
1.40001
1.40001
1.40001
1.40001
1.40001
1.40001
1.40001
10.2126
5.56875
1.40201
1.40001
1.40001
1.40001
1.40001
1.40001
1.40001
1.40001
1.40001
1.40001
1.40001
1.40001
1.40001
1.40001
1.40001
1.40001
1.40001
1.40001
9.90477
4.55924
1.40001
1.40001
1.40001
1.40001
1.40001
1.40001
1.40001
1.40001
1.40001
1.40001
1.40001
1.40001
1.40001
1.40001
1.40001
1.40001
1.40001
1.40001
9.74676
3.49365
1.40001
1.40001
1.40001
1.40001
1.40001
1.40001
1.40001
1.40001
1.40001
1.40001
1.40001
1.40001
1.40001
1.40001
1.40001
1.40001
1.40001
1.40001
9.24677
2.55792
1.40001
1.40001
1.40001
1.40001
1.40001
1.40001
1.40001
1.40001
1.40001
1.40001
1.40001
1.40001
1.40001
1.40001
1.40001
1.40001
1.40001
1.40001
8.705
1.87357
1.40001
1.40001
1.40001
1.40001
1.40001
1.40001
1.40001
1.40001
1.40001
1.40001
1.40001
1.40001
1.40001
1.40001
1.40001
1.40001
1.40001
1.40001
7.99806
1.40692
1.40001
1.40001
1.40001
1.40001
1.40001
1.40001
1.40001
1.40001
1.40001
1.40001
1.40001
1.40001
1.40001
1.40001
1.40001
1.40001
1.40001
1.40001
6.45262
1.40022
1.40001
1.40001
1.40001
1.40001
1.40001
1.40001
1.40001
1.40001
1.40001
1.40001
1.40001
1.40001
1.40001
1.40001
1.40001
1.40001
1.40001
1.40001
6.44896
1.4002
1.40001
1.40001
1.40001
1.40001
1.40001
1.40001
1.40001
1.40001
1.40001
1.40001
1.40001
1.40001
1.40001
1.40001
1.40001
1.40001
1.40001
1.40001
8.00145
1.40712
1.40001
1.40001
1.40001
1.40001
1.40001
1.40001
1.40001
1.40001
1.40001
1.40001
1.40001
1.40001
1.40001
1.40001
1.40001
1.40001
1.40001
1.40001
8.71357
1.87859
1.40001
1.40001
1.40001
1.40001
1.40001
1.40001
1.40001
1.40001
1.40001
1.40001
1.40001
1.40001
1.40001
1.40001
1.40001
1.40001
1.40001
1.40001
9.2347
2.56177
1.40001
1.40001
1.40001
1.40001
1.40001
1.40001
1.40001
1.40001
1.40001
1.40001
1.40001
1.40001
1.40001
1.40001
1.40001
1.40001
1.40001
1.40001
9.76021
3.48981
1.40001
1.40001
1.40001
1.40001
1.40001
1.40001
1.40001
1.40001
1.40001
1.40001
1.40001
1.40001
1.40001
1.40001
1.40001
1.40001
1.40001
1.40001
9.89308
4.57245
1.40001
1.40001
1.40001
1.40001
1.40001
1.40001
1.40001
1.40001
1.40001
1.40001
1.40001
1.40001
1.40001
1.40001
1.40001
1.40001
1.40001
1.40001
10.1999
5.56426
1.402
1.40001
1.40001
1.40001
1.40001
1.40001
1.40001
1.40001
1.40001
1.40001
1.40001
1.40001
1.40001
1.40001
1.40001
1.40001
1.40001
1.40001
10.4772
6.57311
1.62182
1.40001
1.40001
1.40001
1.40001
1.40001
1.40001
1.40001
1.40001
1.40001
1.40001
1.40001
1.40001
1.40001
1.40001
1.40001
1.40001
1.40001
10.4163
7.42787
2.23628
1.40001
1.40001
1.40001
1.40001
1.40001
1.40001
1.40001
1.40001
1.40001
1.40001
1.40001
1.40001
1.40001
1.40001
1.40001
1.40001
1.40001
10.3299
8.3471
3.16438
1.40001
1.40001
1.40001
1.40001
1.40001
1.40001
1.40001
1.40001
1.40001
1.40001
1.40001
1.40001
1.40001
1.40001
1.40001
1.40001
1.40001
10.0844
8.86886
4.7981
1.38264
1.40001
1.40001
1.40001
1.40001
1.40001
1.40001
1.40001
1.40001
1.40001
1.40001
1.40001
1.40001
1.40001
1.40001
1.40001
1.40001
9.65947
9.1848
6.74345
1.70383
1.4
1.40001
1.40001
1.40001
1.40001
1.40001
1.40001
1.40001
1.40001
1.40001
1.40001
1.40001
1.40001
1.40001
1.40001
1.40001
9.058
9.34265
8.50841
2.82279
1.4
1.40001
1.40001
1.40001
1.40001
1.40001
1.40001
1.40001
1.40001
1.40001
1.40001
1.40001
1.40001
1.40001
1.40001
1.40001
8.8636
9.31688
9.20424
5.01782
1.39148
1.40001
1.40001
1.40001
1.40001
1.40001
1.40001
1.40001
1.40001
1.40001
1.40001
1.40001
1.40001
1.40001
1.40001
1.40001
8.90586
9.30023
9.28654
6.78809
2.01597
1.40001
1.40001
1.40001
1.40001
1.40001
1.40001
1.40001
1.40001
1.40001
1.40001
1.40001
1.40001
1.40001
1.40001
1.40001
9.01898
9.39047
9.45329
8.62673
3.66547
1.36655
1.40051
1.4
1.40001
1.40001
1.40001
1.40001
1.40001
1.40001
1.40001
1.40001
1.40001
1.40001
1.40001
1.40001
9.23527
9.4802
9.49476
9.21424
6.54229
2.04013
1.38972
1.40019
1.4
1.40001
1.40001
1.40001
1.40001
1.40001
1.40001
1.40001
1.40001
1.40001
1.40001
1.40001
9.4368
9.50546
9.4189
9.15291
8.68099
4.8092
1.48297
1.39841
1.40001
1.40001
1.40001
1.40001
1.40001
1.40001
1.40001
1.40001
1.40001
1.40001
1.40001
1.40001
9.55857
9.5161
9.34556
9.26193
9.53455
8.06381
3.6696
1.42479
1.40001
1.40001
1.40001
1.40001
1.40001
1.40001
1.40001
1.40001
1.40001
1.40001
1.40001
1.40001
9.64205
9.57836
9.48887
9.61489
9.81238
9.40419
8.2957
3.14284
0.921713
1.40001
1.40001
1.40001
1.40001
1.40001
1.40001
1.40001
1.40001
1.40001
1.40001
1.40001
3.21964
5.05475
6.77223
7.9233
8.72258
8.9398
9.10329
8.63893
6.29083
4.45561
3.30132
2.18836
1.51588
1.38273
1.39028
1.39491
1.39884
1.39997
1.40003
1.40002
0.437431
1.23512
2.78792
4.46609
5.85332
6.71809
7.51299
8.17349
7.97549
7.3447
6.73781
5.98348
4.70951
3.23477
1.99111
1.44063
1.385
1.39283
1.39623
1.39922
0.0327132
0.191868
0.739783
1.69674
2.95132
4.02093
4.91099
5.83239
6.6044
6.70555
6.56624
6.56138
6.50538
6.28205
5.5908
4.27831
2.93327
1.8729
1.42761
1.39014
0.014507
0.0332291
0.160843
0.579252
1.33054
2.06977
2.78865
3.5724
4.38942
4.89855
5.20527
5.52921
5.81918
6.06134
6.21999
6.12239
5.82914
5.09763
3.90526
2.64178
0.0223575
0.0275525
0.0372092
0.139077
0.45765
1.05211
1.59924
2.17168
2.79119
3.30656
3.67029
4.02315
4.39051
4.79544
5.25147
5.54719
5.70435
5.74223
5.61043
5.4296
0.0400165
0.0298588
0.0360803
0.0682047
0.135128
0.404404
0.770264
1.17276
1.64941
2.07006
2.40809
2.70205
3.00091
3.31788
3.73888
4.1396
4.52339
4.86061
5.07035
5.25177
0.0655889
0.0411978
0.0435973
0.0757778
0.130376
0.203528
0.368
0.581627
0.885065
1.21824
1.5149
1.7826
2.04323
2.29216
2.60812
2.93805
3.26081
3.589
3.89527
4.17181
0.0783992
0.04944
0.0678399
0.107259
0.159179
0.207456
0.33377
0.47399
0.657965
0.899701
1.09448
1.29047
1.47653
1.65125
1.84461
2.06895
2.30331
2.5421
2.91202
2.90802
0.0769949
0.0511839
0.0702472
0.110787
0.16336
0.211936
0.2915
0.404418
0.530111
0.680428
0.805051
0.930662
1.05282
1.17043
1.28473
1.4407
1.65146
1.8567
2.17444
2.1162
0.0710987
0.0558854
0.0643343
0.0922875
0.137733
0.178927
0.21607
0.287918
0.3628
0.435678
0.513747
0.601033
0.704964
0.811552
0.930345
1.08142
1.24827
1.39611
1.6264
1.57274
0.0613693
0.0659874
0.0670444
0.0731847
0.0986925
0.137079
0.140199
0.173784
0.221973
0.273687
0.357091
0.441249
0.552516
0.643611
0.743282
0.84629
0.945059
1.03296
1.13792
1.32444
0.0547213
0.0736326
0.0765493
0.0752346
0.0795256
0.110113
0.11637
0.139643
0.197141
0.263845
0.334841
0.390593
0.466644
0.526463
0.584152
0.638124
0.686462
0.739638
0.806345
1.00952
0.0557027
0.0765539
0.081167
0.0794525
0.0819836
0.103514
0.11664
0.143859
0.200671
0.251836
0.298515
0.331652
0.365229
0.398307
0.418751
0.445747
0.471121
0.527644
0.604309
0.764425
0.0609632
0.0759416
0.0805692
0.077903
0.0804521
0.0996892
0.117536
0.141499
0.18278
0.223079
0.232822
0.247139
0.24672
0.259079
0.27416
0.308993
0.360708
0.429929
0.490775
0.58649
0.0758681
0.0779909
0.0783102
0.0701173
0.0755811
0.090025
0.106677
0.121279
0.14035
0.169579
0.158984
0.16273
0.170575
0.201115
0.241225
0.281679
0.32306
0.362621
0.39671
0.433654
0.0897864
0.0897887
0.0870591
0.0716392
0.065175
0.0738969
0.0835366
0.0871246
0.0959965
0.110846
0.120656
0.135865
0.164331
0.199444
0.227202
0.254933
0.273878
0.285362
0.285629
0.294896
0.0927931
0.101677
0.106833
0.0948475
0.0682727
0.0651146
0.0680453
0.0750958
0.0844051
0.0989395
0.119437
0.137639
0.162474
0.186305
0.198774
0.211288
0.210984
0.208291
0.20751
0.227711
0.0965647
0.108251
0.115401
0.106743
0.086724
0.0685057
0.068901
0.0764306
0.0862307
0.0981225
0.116459
0.128648
0.137059
0.141641
0.142095
0.142999
0.144929
0.148715
0.158889
0.182061
0.116638
0.137374
0.169248
0.17977
0.164906
0.148815
0.163363
0.195433
0.203118
0.181263
0.184871
0.19702
0.213587
0.224105
0.234668
0.249798
0.276763
0.302623
0.314472
0.300615
0.206785
0.318597
0.401683
0.490837
0.517529
0.534559
0.536052
0.577128
0.602951
0.576145
0.57627
0.595666
0.623089
0.643433
0.6765
0.698468
0.70813
0.727696
0.743112
0.731031
0.778705
0.879127
0.988761
1.12622
1.12839
1.15839
1.1767
1.23566
1.26618
1.26434
1.25897
1.26548
1.29088
1.32821
1.34414
1.33397
1.32024
1.31944
1.32963
1.33842
0.397776
0.571034
0.764003
0.944425
1.04318
1.12646
1.17271
1.22684
1.26694
1.28045
1.28353
1.28763
1.2865
1.30124
1.318
1.33062
1.34024
1.34398
1.34463
1.33772
0.195115
0.219391
0.334567
0.464886
0.715068
0.946799
1.06418
1.17295
1.24326
1.28387
1.29022
1.29472
1.28976
1.28514
1.29166
1.31872
1.34384
1.35131
1.35129
1.34086
0.265935
0.296875
0.331838
0.340989
0.360116
0.461761
0.739228
0.997612
1.14829
1.24008
1.30296
1.29658
1.28823
1.27259
1.27505
1.30456
1.34269
1.35009
1.34646
1.33778
0.32368
0.365859
0.376817
0.40951
0.423316
0.407103
0.430718
0.549516
0.813952
1.08168
1.24848
1.28255
1.29796
1.28628
1.27386
1.30052
1.33872
1.34241
1.33212
1.33331
0.424361
0.446062
0.468071
0.483086
0.478652
0.465254
0.466101
0.458335
0.491398
0.668902
0.983248
1.22732
1.29123
1.30927
1.29228
1.30182
1.3143
1.311
1.31631
1.33139
0.559145
0.558905
0.536472
0.539488
0.548058
0.54199
0.529427
0.51726
0.498479
0.509713
0.627651
0.921814
1.21775
1.31508
1.30862
1.3103
1.30067
1.29166
1.30531
1.33591
0.744991
0.70468
0.619154
0.591273
0.59969
0.605866
0.592994
0.571491
0.554244
0.53132
0.534877
0.61292
0.879671
1.20635
1.30952
1.32109
1.29712
1.29074
1.31806
1.34373
0.962767
0.865083
0.741544
0.653237
0.662416
0.679735
0.670371
0.63969
0.605657
0.581406
0.555302
0.561248
0.617752
0.874386
1.18458
1.31581
1.28746
1.29948
1.3391
1.34598
1.21787
1.0811
0.901496
0.768263
0.741485
0.741517
0.736456
0.702248
0.666489
0.617017
0.602209
0.588351
0.595952
0.649114
0.877056
1.19032
1.24748
1.30645
1.35359
1.34164
1.72257
1.39379
1.15709
0.930339
0.817332
0.810603
0.842263
0.832831
0.792556
0.731576
0.675546
0.659215
0.64445
0.644814
0.672234
0.801476
1.04497
1.23829
1.30734
1.3259
2.82381
2.05427
1.66712
1.41429
1.13712
0.985552
0.980806
0.960895
0.888628
0.819013
0.779163
0.754283
0.73266
0.701147
0.668241
0.675867
0.734551
0.893922
1.10005
1.26796
3.49324
3.00494
2.37358
1.91512
1.57732
1.26346
1.09874
1.04573
0.991537
0.933967
0.927272
0.907726
0.867282
0.809847
0.749745
0.724519
0.733936
0.74935
0.804398
1.04079
3.29953
3.27067
3.11487
2.66114
2.19351
1.81732
1.47436
1.30662
1.24218
1.14516
1.06437
0.997543
0.939754
0.881345
0.831077
0.811573
0.798479
0.775796
0.764401
0.8159
2.34487
2.99874
3.10032
3.05464
2.86176
2.50387
2.06887
1.7295
1.51153
1.33377
1.2072
1.08453
1.03491
1.01168
0.97285
0.939861
0.914804
0.873271
0.804492
0.808283
1.55084
2.0109
2.58509
2.948
2.94433
2.89144
2.69691
2.35335
1.99863
1.71814
1.52399
1.3504
1.25783
1.20525
1.12432
1.03603
0.973679
0.921416
0.87653
0.842089
1.40632
1.46156
1.69027
2.16586
2.6053
2.81859
2.80999
2.74714
2.561
2.27031
1.95424
1.70343
1.4888
1.36391
1.25685
1.14212
1.076
1.03872
1.02345
0.975209
1.40014
1.40153
1.41505
1.51034
1.77468
2.19564
2.5451
2.70424
2.69485
2.63777
2.46365
2.21567
1.93041
1.68733
1.53745
1.40536
1.3015
1.23613
1.16995
1.0618
1.40001
1.40002
1.40022
1.40354
1.42581
1.5412
1.80567
2.17832
2.46876
2.59507
2.58608
2.53713
2.40324
2.16325
1.92625
1.72021
1.53483
1.39361
1.29346
1.16701
1.40001
1.40001
1.40001
1.40004
1.40045
1.40552
1.43477
1.55034
1.79881
2.12908
2.37993
2.4992
2.49302
2.45276
2.34071
2.15146
1.93472
1.71771
1.57003
1.39789
1.40001
1.40001
1.40001
1.40001
1.40001
1.40007
1.40071
1.40646
1.43707
1.54775
1.76834
2.06404
2.29027
2.40979
2.40648
2.37988
2.29846
2.13585
1.94953
1.67079
1.40001
1.40001
1.40001
1.40001
1.40001
1.40001
1.40001
1.40009
1.40082
1.40666
1.43571
1.53119
1.72557
1.99063
2.20108
2.32997
2.32754
2.31
2.25813
2.04445
1.40001
1.40001
1.40001
1.40001
1.40001
1.40001
1.40001
1.40001
1.40001
1.40009
1.40084
1.40582
1.43067
1.51249
1.67608
1.91692
2.10693
2.25007
2.25604
2.22299
1.40001
1.40001
1.40001
1.40001
1.40001
1.40001
1.40001
1.40001
1.40001
1.40001
1.40001
1.40008
1.40072
1.40484
1.42447
1.48917
1.62939
1.83693
2.01926
2.16748
1.40001
1.40001
1.40001
1.40001
1.40001
1.40001
1.40001
1.40001
1.40001
1.40001
1.40001
1.40001
1.40001
1.40007
1.40057
1.40358
1.41969
1.4714
1.59005
1.94241
2.25453
3.42766
3.59429
2.9075
1.83176
1.45152
1.40262
1.40007
1.40001
1.40001
1.40001
1.40001
1.40001
1.40001
1.40001
3.25632
3.9133
3.519
2.15213
1.46721
1.40113
1.40001
1.4
1.40001
1.40001
1.40001
1.40001
1.40001
1.40001
1.40001
4.07186
3.98933
2.76156
1.61274
1.40733
1.40008
1.40001
1.40001
1.40001
1.40001
1.40001
1.40001
1.40001
1.40001
1.40001
4.51896
3.56204
1.90763
1.42667
1.40026
1.40001
1.40001
1.40001
1.40001
1.40001
1.40001
1.40001
1.40001
1.40001
1.40001
4.6178
2.34935
1.46569
1.40073
1.40001
1.40001
1.40001
1.40001
1.40001
1.40001
1.40001
1.40001
1.40001
1.40001
1.40001
2.87806
1.50169
1.40068
1.4
1.4
1.4
1.40001
1.40001
1.40001
1.40001
1.40001
1.40001
1.40001
1.40001
1.40001
1.54119
1.40075
1.4
1.4
1.40001
1.40001
1.40001
1.40001
1.40001
1.40001
1.40001
1.40001
1.40001
1.40001
1.40001
1.39743
1.39982
1.4
1.40001
1.40001
1.40001
1.40001
1.40001
1.40001
1.40001
1.40001
1.40001
1.40001
1.40001
1.40001
1.39996
1.40001
1.40001
1.40001
1.40001
1.40001
1.40001
1.40001
1.40001
1.40001
1.40001
1.40001
1.40001
1.40001
1.40001
1.40001
1.40001
1.40001
1.40001
1.40001
1.40001
1.40001
1.40001
1.40001
1.40001
1.40001
1.40001
1.40001
1.40001
1.40001
1.40001
1.40001
1.40001
1.40001
1.40001
1.40001
1.40001
1.40001
1.40001
1.40001
1.40001
1.40001
1.40001
1.40001
1.40001
1.40001
1.40001
1.40001
1.40001
1.40001
1.40001
1.40001
1.40001
1.40001
1.40001
1.40001
1.40001
1.40001
1.40001
1.40001
1.40001
1.40001
1.40001
1.40001
1.40001
1.40001
1.40001
1.40001
1.40001
1.40001
1.40001
1.40001
1.40001
1.40001
1.40001
1.40001
1.40001
1.40001
1.40001
1.40001
1.40001
1.40001
1.40001
1.40001
1.40001
1.40001
1.40001
1.40001
1.40001
1.40001
1.40001
1.40001
1.40001
1.40001
1.40001
1.40001
1.40001
1.40001
1.40001
1.40001
1.40001
1.40001
1.40001
1.40001
1.40001
1.40001
1.40001
1.40001
1.40001
1.40001
1.40001
1.40001
1.40001
1.40001
1.40001
1.40001
1.40001
1.40001
1.40001
1.40001
1.40001
1.40001
1.40001
1.40001
1.40001
1.40001
1.40001
1.40001
1.40001
1.40001
1.40001
1.40001
1.40001
1.40001
1.40001
1.40001
1.40001
1.40001
1.40001
1.40001
1.40001
1.40001
1.40001
1.40001
1.40001
1.40001
1.40001
1.40001
1.40001
1.40001
1.40001
1.40001
1.40001
1.40001
1.40001
1.40001
1.40001
1.40001
1.40001
1.40001
1.40001
1.40001
1.40001
1.40001
1.40001
1.40001
1.40001
1.40001
1.40001
1.40001
1.40001
1.40001
1.40001
1.40001
1.40001
1.40001
1.40001
1.40001
1.40001
1.40001
1.40001
1.40001
1.40001
1.40001
1.40001
1.40001
1.40001
1.40001
1.40001
1.40001
1.40001
1.40001
1.40001
1.40001
1.40001
1.40001
1.40001
1.40001
1.40001
1.40001
1.40001
1.40001
1.40001
1.40001
1.40001
1.40001
1.40001
1.40001
1.40001
1.40001
1.40001
1.40001
1.40001
1.40001
1.40001
1.40001
1.40001
1.40001
1.40001
1.40001
1.40001
1.40001
1.40001
1.40001
1.40001
1.40001
1.40001
1.40001
1.40001
1.40001
1.40001
1.40001
1.40001
1.40001
1.40001
1.40001
1.40001
1.40001
1.40001
1.40001
1.40001
1.40001
1.40001
1.40001
1.40001
1.40001
1.40001
1.40001
1.40001
1.40001
1.40001
1.40001
1.40001
1.40001
1.40001
1.40001
1.40001
1.40001
1.40001
1.40001
1.40001
1.40001
1.40001
1.40001
1.40001
1.40001
1.40001
1.40001
1.40001
1.40001
1.40001
1.40001
1.40001
1.40001
1.40001
1.40001
1.40001
1.40001
1.40001
1.40001
1.40001
1.40001
1.40001
1.40001
1.40001
1.40001
1.40001
1.40001
1.40001
1.40001
1.40001
1.40001
1.40001
1.40001
1.40001
1.40001
1.40001
1.40001
1.40001
1.40001
1.40001
1.40001
1.40001
1.40001
1.40001
1.40001
1.40001
1.40001
1.40001
1.40001
1.40001
1.40001
1.40001
1.40001
1.40001
1.40001
1.40001
1.40001
1.40001
1.40001
1.40001
1.40001
1.40001
1.40001
1.40001
1.40001
1.40001
1.40001
1.40001
1.40001
1.40001
1.40001
1.40001
1.40001
1.40001
1.40001
1.40001
1.40001
1.40001
1.40001
1.40001
1.40001
1.40001
1.40001
1.40001
1.40001
1.40001
1.40001
1.40001
1.40001
1.40001
1.40001
1.40001
1.40001
1.40001
1.40001
1.40001
1.40001
1.40001
1.40001
1.40001
1.40001
1.40001
1.40001
1.40001
1.40001
1.40001
1.40001
1.40001
1.40001
1.40001
1.40001
1.40001
1.40001
1.40001
1.40001
1.40001
1.40001
1.40001
1.40001
1.40001
1.40001
1.40001
1.40001
1.40001
1.40001
1.40001
1.40001
1.40001
1.40001
1.40001
1.40001
1.40001
1.40001
1.40001
1.40001
1.40001
1.40001
1.40001
1.40001
1.40001
1.40001
1.40001
1.40001
1.40001
1.40001
1.40001
1.40001
1.40001
1.40001
1.40001
1.40001
1.40001
1.40001
1.40001
1.40001
1.40001
1.40001
1.40001
1.40001
1.40001
1.40001
1.40001
1.40001
1.40001
1.40001
1.40001
1.40001
1.40001
1.40001
1.40001
1.40001
1.40001
1.40001
1.40001
1.40001
1.40001
1.40001
1.40001
1.40001
1.40001
1.40001
1.40001
1.40001
1.40001
1.40001
1.40001
1.40001
1.40001
1.40001
1.40001
1.40001
1.40001
1.40001
1.40001
1.40001
1.40001
1.40001
1.40001
1.40001
1.40001
1.40001
1.40001
1.40001
1.40001
1.40001
1.40001
1.40001
1.40001
1.40001
1.40001
1.40001
1.40001
1.40001
1.40001
1.40001
1.40001
1.40001
1.40001
1.40001
1.40001
1.40001
1.40001
1.40001
1.40001
1.40001
1.40001
1.40001
1.40001
1.40001
1.40001
1.40001
1.40001
1.40001
1.40001
1.40001
1.40001
1.40001
1.40001
1.40001
1.40001
1.40001
1.40001
1.40001
1.40001
1.40001
1.40001
1.40001
1.40001
1.40001
1.40001
1.40001
1.40001
1.40001
1.40001
1.40001
1.40001
1.40001
1.40001
1.40001
1.40001
1.40001
1.40001
1.40001
1.40001
1.40001
1.40001
1.40001
1.40001
1.40001
1.40001
1.40001
1.40001
1.40001
1.40001
1.40001
1.40001
1.40001
1.40001
1.40001
1.40001
1.40001
1.40001
1.40001
1.40001
1.40001
1.40001
1.40001
1.40001
1.40001
1.40001
1.40001
1.40001
1.40001
1.40001
1.40001
1.40001
1.40001
1.40001
1.40001
1.40001
1.40001
1.40001
1.40001
1.40001
1.40001
1.40001
1.40001
1.40001
1.40001
1.40001
1.40001
1.40001
1.40001
1.40001
1.40001
1.40001
1.40001
1.40001
1.40001
1.40001
1.40001
1.40001
1.40001
1.40001
1.40001
1.40001
1.40001
1.40001
1.40001
1.40001
1.40001
1.40001
1.40001
1.40001
1.40001
1.40001
1.40001
1.40001
1.40001
1.40001
1.40001
1.40001
1.40001
1.40001
1.40001
1.40001
1.40001
1.40001
1.40001
1.40001
1.40001
1.40001
1.40001
1.40001
1.40001
1.40001
1.40001
1.40001
1.40001
1.40001
1.40001
1.40001
1.40001
1.40001
1.40001
1.40001
1.40001
1.40001
1.40001
1.40001
1.40001
1.40001
1.40001
1.40001
1.40001
1.40001
1.40001
1.40001
1.40001
1.40001
1.40001
1.40001
1.40001
1.40001
1.40001
1.40001
1.40001
1.40001
1.40001
1.40001
1.40001
1.40001
1.40001
1.40001
1.40001
1.40001
1.40001
1.40001
1.40001
1.40001
1.40001
1.40001
1.40001
1.40001
1.40001
1.40001
1.40001
1.40001
1.40001
1.40001
1.40001
1.40001
1.40001
1.40001
1.40001
1.40001
1.40001
1.40001
1.40001
1.40001
1.40001
1.40001
1.40001
1.40001
1.40001
1.40001
1.40001
1.40001
1.40001
1.40001
1.40001
1.40001
1.40001
1.40001
1.40001
1.40001
1.40001
1.40001
1.40001
1.40001
1.40001
1.40001
1.40001
1.40001
1.40001
1.40001
1.40001
1.40001
1.40001
1.40001
1.40001
1.40001
1.40001
1.40001
1.40001
1.40001
1.40001
1.40001
1.40001
1.40001
1.40001
1.40001
1.40001
1.40001
1.40001
1.40001
1.40001
1.40001
1.40001
1.40001
1.40001
1.40001
1.40001
1.40001
1.40001
1.40001
1.40001
1.40001
1.40001
1.40001
1.40001
1.40001
1.40001
1.40001
1.40001
1.40001
1.40001
1.40001
1.40001
1.40001
1.40001
1.40001
1.40001
1.40001
1.40001
1.40001
1.40001
1.40001
1.40001
1.40001
1.40001
1.40001
1.40001
1.40001
1.40001
1.40001
1.40001
1.40001
1.40001
1.40001
1.40001
1.40001
1.40001
1.40001
1.40001
1.40001
1.40001
1.40001
1.40001
1.40001
1.40001
1.40001
1.40001
1.40001
1.40001
1.40001
1.40001
1.40001
1.40001
1.40001
1.40001
1.40001
1.40001
1.40001
1.40001
1.40001
1.40001
1.40001
1.40001
1.40001
1.40001
1.40001
1.40001
1.40001
1.40001
1.40001
1.40001
1.40001
1.40001
1.40001
1.40001
1.40001
1.40001
1.40001
1.40001
1.40001
1.40001
1.40001
1.40001
1.40001
1.40001
1.40001
1.40001
1.40001
1.40001
1.40001
1.40001
1.40001
1.40001
1.40001
1.40001
1.40001
1.40001
1.40001
1.40001
1.40001
1.40001
1.40001
1.40001
1.40001
1.40001
1.40001
1.40001
1.40001
1.39996
1.40001
1.40001
1.40001
1.40001
1.40001
1.40001
1.40001
1.40001
1.40001
1.40001
1.40001
1.40001
1.40001
1.40001
1.39743
1.39982
1.4
1.40001
1.40001
1.40001
1.40001
1.40001
1.40001
1.40001
1.40001
1.40001
1.40001
1.40001
1.40001
1.54134
1.40075
1.4
1.4
1.40001
1.40001
1.40001
1.40001
1.40001
1.40001
1.40001
1.40001
1.40001
1.40001
1.40001
2.8783
1.50166
1.40068
1.4
1.4
1.4
1.40001
1.40001
1.40001
1.40001
1.40001
1.40001
1.40001
1.40001
1.40001
4.6172
2.34933
1.46576
1.40074
1.40001
1.40001
1.40001
1.40001
1.40001
1.40001
1.40001
1.40001
1.40001
1.40001
1.40001
4.51929
3.56121
1.90708
1.42661
1.40026
1.40001
1.40001
1.40001
1.40001
1.40001
1.40001
1.40001
1.40001
1.40001
1.40001
4.07249
3.99022
2.76166
1.6125
1.4073
1.40008
1.40001
1.40001
1.40001
1.40001
1.40001
1.40001
1.40001
1.40001
1.40001
3.25762
3.91405
3.51912
2.15201
1.46719
1.40114
1.40001
1.4
1.40001
1.40001
1.40001
1.40001
1.40001
1.40001
1.40001
2.25602
3.42856
3.59442
2.90699
1.83147
1.45147
1.40262
1.40007
1.40001
1.40001
1.40001
1.40001
1.40001
1.40001
1.40001
1.71959
2.82402
3.49301
3.30019
2.34565
1.55117
1.40633
1.40014
1.40001
1.40001
1.40001
1.40001
1.40001
1.40001
1.40001
1.38376
2.04097
3.01104
3.27028
2.99671
2.01032
1.46153
1.40153
1.40002
1.40001
1.40001
1.40001
1.40001
1.40001
1.40001
1.17426
1.66879
2.35849
3.11541
3.10073
2.58465
1.69001
1.41504
1.40022
1.40001
1.40001
1.40001
1.40001
1.40001
1.40001
0.948614
1.43975
1.91278
2.65984
3.05458
2.94762
2.16545
1.51031
1.40354
1.40004
1.40001
1.40001
1.40001
1.40001
1.40001
0.811681
1.15055
1.58455
2.19095
2.86072
2.94422
2.60529
1.77474
1.42585
1.40045
1.40001
1.40001
1.40001
1.40001
1.40001
0.800175
0.981119
1.26532
1.80056
2.5089
2.8913
2.81902
2.19612
1.54128
1.40553
1.40007
1.40001
1.40001
1.40001
1.40001
0.827332
0.97013
1.11761
1.46891
2.06545
2.69705
2.81005
2.54551
1.80587
1.43478
1.40071
1.40001
1.40001
1.40001
1.40001
0.820342
0.941788
1.0624
1.3325
1.71318
2.35376
2.74683
2.70389
2.17829
1.55039
1.40646
1.40009
1.40001
1.40001
1.40001
0.785001
0.868897
0.983201
1.25781
1.5125
1.99016
2.55939
2.69428
2.46835
1.79874
1.43708
1.40082
1.40001
1.40001
1.40001
0.740323
0.803842
0.909543
1.14222
1.34534
1.71117
2.26697
2.63734
2.59509
2.12915
1.54775
1.40666
1.40009
1.40001
1.40001
0.695531
0.771703
0.908266
1.0581
1.21262
1.52322
1.95429
2.46433
2.58644
2.38032
1.76839
1.4357
1.40084
1.40001
1.40001
0.662509
0.762953
0.896855
0.9861
1.08679
1.36075
1.70757
2.21636
2.5376
2.49977
2.06435
1.53121
1.40581
1.40008
1.40001
0.648758
0.745852
0.864199
0.928201
1.03675
1.27069
1.49239
1.93115
2.40397
2.49361
2.29069
1.72569
1.43068
1.40072
1.40001
0.653537
0.715276
0.814268
0.876427
1.01042
1.20959
1.36062
1.68761
2.16491
2.45352
2.41035
1.99088
1.51252
1.40484
1.40007
0.675596
0.674329
0.765308
0.830055
0.969997
1.11964
1.25091
1.54025
1.92769
2.34154
2.40694
2.2014
1.67618
1.42447
1.40057
0.793591
0.682475
0.737807
0.811248
0.938743
1.03067
1.13846
1.41043
1.72082
2.15175
2.38013
2.33017
1.91702
1.4892
1.40358
1.04128
0.741118
0.746336
0.798101
0.915079
0.971227
1.07462
1.30517
1.53417
1.93491
2.29862
2.3277
2.10706
1.62939
1.41969
1.23264
0.897485
0.754228
0.778068
0.874828
0.921431
1.03515
1.23616
1.39196
1.71767
2.13597
2.31012
2.25019
1.83693
1.47139
1.30785
1.09869
0.802119
0.764965
0.807264
0.876472
1.01971
1.16835
1.29166
1.56951
1.94964
2.25821
2.25605
2.01921
1.59
1.32697
1.26626
1.0367
0.815899
0.810061
0.841844
0.972421
1.06108
1.16631
1.39742
1.67087
2.04443
2.22293
2.1674
1.94233
1.21532
1.08156
0.903889
0.759511
0.732052
0.736262
0.738569
0.707542
0.677501
0.637668
0.602819
0.590633
0.597826
0.644393
0.873174
1.17906
1.22408
1.29433
1.35108
1.34255
0.95999
0.866329
0.737419
0.646376
0.655386
0.674696
0.673295
0.64986
0.618943
0.58768
0.563055
0.566703
0.619346
0.878373
1.19122
1.31157
1.27219
1.28677
1.33757
1.34788
0.74587
0.704786
0.615124
0.583397
0.593274
0.604713
0.598087
0.577056
0.559731
0.540853
0.542601
0.618063
0.88072
1.20002
1.26821
1.31716
1.30254
1.29732
1.32132
1.34454
0.566836
0.559122
0.5256
0.528043
0.545565
0.543574
0.531108
0.516374
0.501868
0.510579
0.62522
0.918487
1.21605
1.28679
1.28865
1.31573
1.3253
1.31165
1.31953
1.33835
0.428608
0.446718
0.462634
0.478077