/*--------------------------------*- C++ -*----------------------------------*\
  =========                 |
  \\      /  F ield         | OpenFOAM: The Open Source CFD Toolbox
   \\    /   O peration     | Website:  https://openfoam.org
    \\  /    A nd           | Version:  7
     \\/     M anipulation  |
\*---------------------------------------------------------------------------*/
FoamFile
{
    version     2.0;
    format      ascii;
    class       volVectorField;
    location    "5.1";
    object      U;
}
// * * * * * * * * * * * * * * * * * * * * * * * * * * * * * * * * * * * * * //

dimensions      [0 1 -1 0 0 0 0];

internalField   nonuniform List<vector> 
3700
(
(1.3 -0.366784 0)
(1.32271 -0.460133 0)
(1.40593 -0.328567 0)
(1.44686 -0.321011 0)
(1.4626 -0.164607 0)
(1.53146 -0.16531 0)
(1.56325 -0.221237 0)
(1.58734 -0.401443 0)
(1.51184 -0.402175 0)
(1.43346 -0.267252 0)
(1.44896 -0.160737 0)
(1.50905 -0.149805 0)
(1.56356 -0.102369 0)
(1.61633 -0.0416344 0)
(1.68149 -0.0285867 0)
(1.73501 -0.074672 0)
(1.76003 -0.188758 0)
(1.82289 -0.316533 0)
(1.83017 -0.33351 0)
(1.84139 -0.26395 0)
(1.82373 -1.24514 0)
(1.79198 -1.08722 0)
(1.87344 -1.0963 0)
(1.97881 -1.25045 0)
(1.93519 -1.23525 0)
(1.90582 -1.28662 0)
(1.92988 -1.57565 0)
(1.89672 -1.93572 0)
(1.77134 -1.83774 0)
(1.68431 -1.44802 0)
(1.74301 -1.29365 0)
(1.83545 -1.13434 0)
(1.91484 -1.00961 0)
(2.00589 -0.888279 0)
(2.07128 -0.832486 0)
(2.20781 -0.889925 0)
(2.36212 -1.15502 0)
(2.36977 -1.35979 0)
(2.31359 -1.36518 0)
(2.26648 -1.28531 0)
(1.78113 -1.25197 0)
(1.91767 -1.1433 0)
(2.05345 -1.25052 0)
(2.17544 -1.50132 0)
(2.13867 -1.93916 0)
(2.02396 -2.19004 0)
(2.00713 -2.25616 0)
(2.01651 -2.21234 0)
(1.99643 -2.21261 0)
(2.07113 -2.07446 0)
(2.09987 -2.09859 0)
(2.1936 -1.96443 0)
(2.27777 -1.90824 0)
(2.37934 -1.85614 0)
(2.48758 -1.79898 0)
(2.60681 -1.72656 0)
(2.65381 -1.68362 0)
(2.66156 -1.64747 0)
(2.63237 -1.63336 0)
(2.58821 -1.60641 0)
(1.75901 -1.29296 0)
(1.86489 -1.24884 0)
(1.92004 -1.42645 0)
(1.94463 -1.75153 0)
(1.89682 -2.09108 0)
(1.96174 -2.2176 0)
(2.01348 -2.28323 0)
(2.08082 -2.14613 0)
(2.08486 -2.14858 0)
(2.23598 -1.97802 0)
(2.2058 -2.05737 0)
(2.29123 -1.92878 0)
(2.33064 -1.84176 0)
(2.39188 -1.7527 0)
(2.47933 -1.66582 0)
(2.62976 -1.54012 0)
(2.68002 -1.42208 0)
(2.78283 -1.28887 0)
(2.83739 -1.22498 0)
(2.79964 -1.28496 0)
(1.62076 -1.30309 0)
(1.67053 -1.39129 0)
(1.6786 -1.72394 0)
(1.6486 -2.06016 0)
(1.68671 -2.25103 0)
(1.82335 -2.23568 0)
(1.95125 -2.26777 0)
(2.14796 -1.96821 0)
(2.21119 -2.00043 0)
(2.37529 -1.85808 0)
(2.37803 -1.82189 0)
(2.45672 -1.72439 0)
(2.48586 -1.70212 0)
(2.47749 -1.67311 0)
(2.51172 -1.57764 0)
(2.57327 -1.49358 0)
(2.60226 -1.37113 0)
(2.70856 -1.28481 0)
(2.7753 -1.06876 0)
(2.86725 -0.883656 0)
(1.44275 -1.23291 0)
(1.47699 -1.43084 0)
(1.51633 -1.85434 0)
(1.50166 -2.16218 0)
(1.51331 -2.25455 0)
(1.77297 -2.17345 0)
(1.91207 -2.14574 0)
(2.10244 -1.85738 0)
(2.22984 -1.79311 0)
(2.44134 -1.75023 0)
(2.54789 -1.56626 0)
(2.61655 -1.49239 0)
(2.6431 -1.40692 0)
(2.63386 -1.41711 0)
(2.66378 -1.3325 0)
(2.65137 -1.33019 0)
(2.64337 -1.19802 0)
(2.663 -1.16577 0)
(2.7125 -1.11357 0)
(2.78828 -0.868074 0)
(1.30271 -1.12603 0)
(1.34261 -1.48151 0)
(1.43345 -1.93315 0)
(1.42571 -2.19837 0)
(1.66767 -2.22425 0)
(1.85518 -2.15407 0)
(1.96702 -2.10263 0)
(2.0978 -1.8726 0)
(2.17507 -1.77119 0)
(2.34928 -1.67506 0)
(2.46699 -1.47424 0)
(2.6381 -1.41043 0)
(2.70062 -1.13892 0)
(2.74852 -1.07335 0)
(2.76109 -0.919286 0)
(2.74988 -0.915544 0)
(2.74597 -0.864549 0)
(2.7309 -0.824409 0)
(2.71824 -0.906985 0)
(2.72115 -0.72661 0)
(1.23188 -1.09649 0)
(1.28865 -1.55482 0)
(1.46991 -1.99134 0)
(1.62544 -2.21752 0)
(1.95096 -2.16227 0)
(2.0767 -2.14561 0)
(2.20476 -1.9507 0)
(2.25241 -1.83006 0)
(2.27868 -1.73905 0)
(2.32864 -1.67546 0)
(2.43665 -1.45695 0)
(2.56171 -1.36805 0)
(2.60689 -1.11185 0)
(2.72969 -1.0184 0)
(2.7505 -0.758102 0)
(2.7903 -0.635588 0)
(2.78888 -0.51464 0)
(2.78148 -0.408175 0)
(2.73368 -0.543334 0)
(2.7002 -0.475112 0)
(1.23537 -1.16649 0)
(1.37101 -1.79949 0)
(1.70777 -2.12378 0)
(1.93478 -2.21584 0)
(2.33053 -1.98832 0)
(2.46432 -2.01514 0)
(2.44493 -1.65656 0)
(2.48872 -1.5293 0)
(2.54146 -1.51871 0)
(2.55041 -1.48335 0)
(2.56139 -1.36726 0)
(2.60523 -1.20665 0)
(2.60755 -1.02814 0)
(2.67085 -0.938146 0)
(2.68714 -0.736596 0)
(2.73882 -0.598147 0)
(2.762 -0.422137 0)
(2.7604 -0.212229 0)
(2.71918 -0.178632 0)
(2.67762 -0.15773 0)
(1.32822 -1.38812 0)
(1.55073 -2.04785 0)
(1.87788 -2.29818 0)
(2.13105 -2.32395 0)
(2.38483 -1.94451 0)
(2.45279 -1.85877 0)
(2.60254 -1.48062 0)
(2.72243 -1.27335 0)
(2.76578 -1.20572 0)
(2.77882 -0.995657 0)
(2.77015 -1.00127 0)
(2.7577 -0.785866 0)
(2.72119 -0.724085 0)
(2.71795 -0.617896 0)
(2.69744 -0.50866 0)
(2.68586 -0.432008 0)
(2.69898 -0.354436 0)
(2.68794 -0.203479 0)
(2.65451 -0.0196151 0)
(2.61398 0.0570407 0)
(1.53174 -1.72361 0)
(1.76449 -2.37838 0)
(1.86001 -2.31942 0)
(1.94254 -2.19157 0)
(2.10626 -1.863 0)
(2.1953 -1.71476 0)
(2.38405 -1.44578 0)
(2.5162 -1.23983 0)
(2.62875 -1.148 0)
(2.67372 -0.77056 0)
(2.72867 -0.605638 0)
(2.72251 -0.369703 0)
(2.73015 -0.281259 0)
(2.71146 -0.146293 0)
(2.69107 -0.0795223 0)
(2.65947 -0.0564152 0)
(2.63458 -0.0595551 0)
(2.6236 -0.0570745 0)
(2.55605 0.107636 0)
(2.5725 0.111511 0)
(1.60841 -1.90874 0)
(1.70608 -2.46128 0)
(1.742 -2.19522 0)
(1.80334 -1.99982 0)
(2.01374 -1.7493 0)
(2.13643 -1.53451 0)
(2.25674 -1.36433 0)
(2.35963 -1.17198 0)
(2.41861 -1.03506 0)
(2.49321 -0.823176 0)
(2.59291 -0.628588 0)
(2.62262 -0.368317 0)
(2.65439 -0.174012 0)
(2.6416 0.0228008 0)
(2.59212 0.212512 0)
(2.55985 0.283399 0)
(2.51862 0.346054 0)
(2.51515 0.253627 0)
(2.45164 0.321935 0)
(2.47567 0.271705 0)
(1.56447 -1.92513 0)
(1.58498 -2.28697 0)
(1.70842 -2.00476 0)
(1.82291 -1.78813 0)
(2.10273 -1.60045 0)
(2.27142 -1.2425 0)
(2.33416 -1.18507 0)
(2.42877 -0.984776 0)
(2.48685 -0.679209 0)
(2.51423 -0.56115 0)
(2.55235 -0.360588 0)
(2.55822 -0.179268 0)
(2.55973 -0.0251613 0)
(2.54743 0.117473 0)
(2.48945 0.298675 0)
(2.47242 0.382238 0)
(2.39175 0.532606 0)
(2.34566 0.56467 0)
(2.3045 0.589242 0)
(2.32112 0.529134 0)
(1.44145 -1.8441 0)
(1.55405 -2.06117 0)
(1.8225 -1.64105 0)
(1.96782 -1.27391 0)
(2.15966 -1.14967 0)
(2.34939 -0.798935 0)
(2.521 -0.527939 0)
(2.61067 -0.316837 0)
(2.56859 -0.0624003 0)
(2.55856 0.0270427 0)
(2.53019 0.185604 0)
(2.49505 0.3051 0)
(2.45642 0.393767 0)
(2.41391 0.465184 0)
(2.35835 0.529077 0)
(2.32952 0.554324 0)
(2.26718 0.627231 0)
(2.21146 0.707067 0)
(2.15858 0.784125 0)
(2.13283 0.800444 0)
(1.20026 -1.67591 0)
(1.62062 -1.77925 0)
(1.91387 -1.18814 0)
(2.03966 -1.0778 0)
(2.39326 -0.55426 0)
(2.5387 -0.309742 0)
(2.59626 -0.224278 0)
(2.54462 0.0747367 0)
(2.50302 0.148144 0)
(2.46919 0.31699 0)
(2.41081 0.483419 0)
(2.33131 0.635995 0)
(2.27652 0.722626 0)
(2.20715 0.808901 0)
(2.16052 0.831741 0)
(2.12038 0.84204 0)
(2.08162 0.874915 0)
(2.07313 0.879567 0)
(2.03895 0.923041 0)
(2.05935 0.952178 0)
(0.958604 -1.17729 0)
(1.42646 -1.30964 0)
(2.03868 -0.714675 0)
(2.51356 -0.343308 0)
(2.52173 -0.118221 0)
(2.47876 -0.1905 0)
(2.45594 0.00491687 0)
(2.40165 0.22636 0)
(2.34112 0.380543 0)
(2.31157 0.535525 0)
(2.21918 0.700816 0)
(2.14303 0.82168 0)
(2.0857 0.894795 0)
(2.02354 0.964055 0)
(1.9799 0.984463 0)
(1.94681 1.00424 0)
(1.95239 1.0232 0)
(1.96923 0.99772 0)
(1.99638 0.995415 0)
(2.07366 0.976321 0)
(0.972088 -0.475402 0)
(1.3895 -0.638445 0)
(2.20892 -0.0813924 0)
(2.32154 -0.0864223 0)
(2.35005 -0.00876743 0)
(2.37399 0.258887 0)
(2.27814 0.553061 0)
(2.20772 0.676001 0)
(2.13713 0.768175 0)
(2.07817 0.900851 0)
(1.96869 1.0068 0)
(1.91549 1.05711 0)
(1.88937 1.07146 0)
(1.87205 1.08229 0)
(1.8727 1.05657 0)
(1.89445 1.05081 0)
(1.95741 1.02584 0)
(2.1598 0.910311 0)
(2.38108 0.798008 0)
(2.78129 0.442538 0)
(1.04257 -0.0605847 0)
(1.94777 0.34945 0)
(2.26339 0.306015 0)
(2.22564 0.514389 0)
(2.20122 0.630253 0)
(2.14414 0.766418 0)
(2.05232 0.897501 0)
(1.96273 0.982557 0)
(1.9051 1.04289 0)
(1.84188 1.12948 0)
(1.78425 1.15813 0)
(1.78757 1.15109 0)
(1.81073 1.12915 0)
(1.85352 1.08444 0)
(2.04192 0.946897 0)
(2.2557 0.828258 0)
(2.65676 0.51094 0)
(3.03385 0.0969883 0)
(3.05579 -0.0232883 0)
(3.00405 -0.00466634 0)
(0.994868 0.0502382 0)
(1.92279 0.731739 0)
(2.104 0.781903 0)
(1.9966 0.925033 0)
(1.96966 0.967819 0)
(1.86868 1.0841 0)
(1.79238 1.14073 0)
(1.76278 1.14576 0)
(1.75875 1.16191 0)
(1.73309 1.20223 0)
(1.71111 1.195 0)
(1.85672 1.0705 0)
(2.09698 0.885817 0)
(2.5076 0.57463 0)
(2.98985 0.1332 0)
(3.07467 -0.0305057 0)
(3.00837 -0.00788819 0)
(3.003 -0.00391631 0)
(3.00124 -0.00222795 0)
(3.00008 -0.000490579 0)
(1.15758 0.772345 0)
(1.82941 1.14502 0)
(1.83143 1.15628 0)
(1.72926 1.19911 0)
(1.71036 1.19083 0)
(1.6671 1.23742 0)
(1.66328 1.21195 0)
(1.73236 1.16389 0)
(1.76291 1.2279 0)
(1.78975 1.13674 0)
(2.26483 0.740037 0)
(2.85485 0.21159 0)
(3.09713 -0.0269477 0)
(3.02081 -0.0123264 0)
(3.00444 -0.00536047 0)
(3.00184 -0.00298875 0)
(3.00005 -0.000580193 0)
(2.99998 -2.39822e-05 0)
(2.99999 1.45384e-05 0)
(3 5.9471e-06 0)
(1.57365 1.25597 0)
(1.57977 1.26368 0)
(1.58266 1.27153 0)
(1.59199 1.26227 0)
(1.61082 1.24093 0)
(1.60285 1.26495 0)
(1.9188 1.16871 0)
(2.99573 0.371282 0)
(3.32442 -0.588108 0)
(3 7.13441e-11 0)
(3 -8.08176e-11 0)
(3 8.76787e-11 0)
(3 -9.6619e-15 0)
(3 -5.86139e-13 0)
(3 -2.05064e-14 0)
(3 1.94538e-14 0)
(3 -9.21313e-15 0)
(3 1.36033e-15 0)
(3 1.03947e-17 0)
(3 -1.83583e-16 0)
(1.58008 1.2544 0)
(1.59044 1.26264 0)
(1.59205 1.28095 0)
(1.59086 1.28781 0)
(1.66511 1.26511 0)
(1.75813 1.22852 0)
(2.2895 0.744748 0)
(2.99941 0.0121763 0)
(3 3.89188e-08 0)
(3 4.19056e-11 0)
(3 3.2889e-13 0)
(3 -3.14584e-13 0)
(3 -4.54792e-16 0)
(3 -2.50876e-16 0)
(3 -3.54883e-16 0)
(3 1.1111e-15 0)
(3 2.04211e-15 0)
(3 1.62669e-15 0)
(3 5.83074e-16 0)
(3 1.36653e-15 0)
(1.58897 1.25289 0)
(1.60725 1.25576 0)
(1.6116 1.26719 0)
(1.5853 1.29913 0)
(1.68733 1.23029 0)
(2.17977 0.817336 0)
(2.98533 0.00918591 0)
(3.00039 -0.000786199 0)
(3 5.76325e-07 0)
(3 6.3793e-11 0)
(3 -3.2139e-13 0)
(3 -9.28266e-16 0)
(3 -1.32609e-15 0)
(3 -2.64029e-15 0)
(3 -8.58503e-16 0)
(3 1.49142e-15 0)
(3 2.38935e-15 0)
(3 -2.70059e-16 0)
(3 2.1062e-16 0)
(3 1.39047e-15 0)
(1.58841 1.25406 0)
(1.61295 1.25583 0)
(1.62884 1.25771 0)
(1.63179 1.27803 0)
(1.82713 1.09952 0)
(2.72531 0.230841 0)
(3.00571 -0.00267707 0)
(2.99991 8.72661e-05 0)
(3 -7.51058e-07 0)
(3 7.54519e-10 0)
(3 -4.31676e-12 0)
(3 2.21181e-14 0)
(3 -1.58278e-15 0)
(3 -2.68741e-15 0)
(3 -1.15968e-15 0)
(3 9.02295e-16 0)
(3 1.52224e-15 0)
(3 -6.53661e-16 0)
(3 8.52259e-17 0)
(3 1.42215e-15 0)
(1.58657 1.26471 0)
(1.60208 1.26119 0)
(1.63095 1.24368 0)
(1.74868 1.19221 0)
(2.39069 0.619775 0)
(3.01937 -0.018508 0)
(2.99975 0.000183521 0)
(3 -4.32593e-06 0)
(3 8.58069e-08 0)
(3 -8.37137e-10 0)
(3 4.28195e-12 0)
(3 -2.57529e-14 0)
(3 -4.02427e-15 0)
(3 -2.12599e-15 0)
(3 -8.30539e-16 0)
(3 -4.89778e-16 0)
(3 -5.05869e-16 0)
(3 -9.1158e-16 0)
(3 -4.65519e-16 0)
(3 1.15433e-15 0)
(1.58292 1.27566 0)
(1.5783 1.26992 0)
(1.63079 1.25604 0)
(1.78329 1.15066 0)
(2.70886 0.254038 0)
(3 -5.81036e-10 0)
(3 1.42025e-08 0)
(3 -1.28576e-08 0)
(3 5.61834e-10 0)
(3 4.04807e-12 0)
(3 -1.22049e-13 0)
(3 -1.24821e-15 0)
(3 -3.33794e-15 0)
(3 -1.93054e-15 0)
(3 -1.15303e-15 0)
(3 -1.00953e-15 0)
(3 -1.30253e-15 0)
(3 -1.9519e-15 0)
(3 -9.19349e-16 0)
(3 4.5521e-16 0)
(1.57982 1.29172 0)
(1.55053 1.28628 0)
(1.65576 1.24638 0)
(2.12826 0.85812 0)
(3.00783 -0.00644571 0)
(3 -2.15009e-12 0)
(3 -2.48743e-11 0)
(3 3.14051e-11 0)
(3 -3.75939e-12 0)
(3 -1.00158e-14 0)
(3 -2.9664e-15 0)
(3 -3.66921e-15 0)
(3 -2.14663e-15 0)
(3 -3.15701e-15 0)
(3 -1.99449e-15 0)
(3 -1.83259e-15 0)
(3 -1.64546e-15 0)
(3 -2.76159e-15 0)
(3 -2.45093e-15 0)
(3 -1.50864e-15 0)
(1.58494 1.32434 0)
(1.50858 1.32829 0)
(1.79059 1.18115 0)
(2.44013 0.539279 0)
(3 -5.25301e-06 0)
(3 1.41334e-11 0)
(3 4.66465e-13 0)
(3 -1.37581e-13 0)
(3 2.06606e-14 0)
(3 -2.08068e-15 0)
(3 -2.84443e-15 0)
(3 -2.9232e-15 0)
(3 -2.88425e-15 0)
(3 -3.97628e-15 0)
(3 -3.73399e-15 0)
(3 -2.44149e-15 0)
(3 -1.75023e-15 0)
(3 -2.40871e-15 0)
(3 -2.72172e-15 0)
(3 -2.03235e-15 0)
(1.59259 1.30863 0)
(1.46536 1.35798 0)
(1.92157 1.0454 0)
(2.85384 0.129762 0)
(3 -1.9178e-08 0)
(3 -1.56451e-11 0)
(3 -7.40588e-14 0)
(3 2.40924e-16 0)
(3 -9.46096e-16 0)
(3 -1.50368e-15 0)
(3 -2.46182e-15 0)
(3 -2.84645e-15 0)
(3 -2.64034e-15 0)
(3 -2.99061e-15 0)
(3 -3.2044e-15 0)
(3 -2.92526e-15 0)
(3 -2.27401e-15 0)
(3 -2.37188e-15 0)
(3 -3.31201e-15 0)
(3 -3.26558e-15 0)
(1.60652 1.29662 0)
(1.48263 1.38469 0)
(2.15784 0.823344 0)
(3.01103 -0.00920878 0)
(3 6.17773e-09 0)
(3 3.15194e-13 0)
(3 2.0237e-14 0)
(3 -2.72722e-16 0)
(3 -1.51202e-17 0)
(3 -3.67053e-16 0)
(3 -1.32324e-15 0)
(3 -1.92155e-15 0)
(3 -2.52476e-15 0)
(3 -2.38533e-15 0)
(3 -2.13492e-15 0)
(3 -2.52568e-15 0)
(3 -2.94958e-15 0)
(3 -3.8025e-15 0)
(3 -3.08832e-15 0)
(3 -3.98848e-15 0)
(1.62269 1.28215 0)
(1.58591 1.30833 0)
(2.43053 0.526974 0)
(3 -3.334e-13 0)
(3 -5.65834e-12 0)
(3 8.22205e-14 0)
(3 -1.44599e-15 0)
(3 -4.55442e-16 0)
(3 -2.63407e-16 0)
(3 4.13733e-17 0)
(3 -7.471e-16 0)
(3 -1.52561e-15 0)
(3 -1.79441e-15 0)
(3 -1.42732e-15 0)
(3 -1.02986e-15 0)
(3 -1.40625e-15 0)
(3 -1.89746e-15 0)
(3 -1.71759e-15 0)
(3 -1.48023e-15 0)
(3 -3.41521e-15 0)
(1.63865 1.2593 0)
(1.62424 1.25173 0)
(2.64922 0.293625 0)
(3 2.00238e-13 0)
(3 -2.23681e-15 0)
(3 -3.72054e-16 0)
(3 -5.30875e-17 0)
(3 -4.87681e-16 0)
(3 -1.03045e-16 0)
(3 6.18252e-17 0)
(3 -3.23675e-17 0)
(3 -1.08099e-15 0)
(3 -1.87719e-15 0)
(3 -1.67003e-15 0)
(3 -9.64553e-16 0)
(3 -7.79281e-16 0)
(3 -6.64368e-16 0)
(3 2.20133e-16 0)
(3 1.48602e-15 0)
(3 1.13573e-15 0)
(1.6551 1.24001 0)
(1.81615 1.10229 0)
(2.8745 0.0904473 0)
(3 -5.64908e-13 0)
(3 7.98237e-16 0)
(3 8.33129e-16 0)
(3 5.91702e-16 0)
(3 -3.93633e-16 0)
(3 -1.15543e-16 0)
(3 -2.35711e-16 0)
(3 1.59157e-16 0)
(3 1.40532e-16 0)
(3 -8.93107e-16 0)
(3 -1.52506e-15 0)
(3 -1.77602e-15 0)
(3 -1.50256e-15 0)
(3 -1.13245e-15 0)
(3 -6.16058e-16 0)
(3 2.09043e-16 0)
(3 4.99072e-16 0)
(1.67668 1.19505 0)
(1.90511 0.975131 0)
(2.99838 0.00143842 0)
(3 2.41244e-15 0)
(3 1.50031e-15 0)
(3 7.48926e-16 0)
(3 9.69561e-16 0)
(3 5.74651e-16 0)
(3 4.35439e-16 0)
(3 3.03219e-16 0)
(3 1.86135e-16 0)
(3 1.52963e-16 0)
(3 2.13809e-16 0)
(3 -7.67808e-16 0)
(3 -1.62423e-15 0)
(3 -1.88547e-15 0)
(3 -1.45266e-15 0)
(3 -4.93444e-16 0)
(3 5.62206e-16 0)
(3 1.3865e-15 0)
(1.68808 1.17195 0)
(2.03228 0.833668 0)
(3 1.97542e-15 0)
(3 2.42379e-15 0)
(3 2.03238e-15 0)
(3 1.20119e-15 0)
(3 8.32132e-16 0)
(3 7.65864e-16 0)
(3 5.66021e-16 0)
(3 5.34351e-16 0)
(3 4.70177e-16 0)
(3 3.22741e-16 0)
(3 1.21111e-16 0)
(3 -4.02404e-16 0)
(3 -1.322e-15 0)
(3 -2.0657e-15 0)
(3 -2.49643e-15 0)
(3 -2.18131e-15 0)
(3 -1.45422e-15 0)
(3 1.47453e-16 0)
(1.76511 1.10488 0)
(2.22882 0.647225 0)
(3 3.53151e-15 0)
(3 1.24287e-15 0)
(3 1.76739e-15 0)
(3 1.60463e-15 0)
(3 1.5578e-15 0)
(3 1.44303e-15 0)
(3 1.19927e-15 0)
(3 1.19748e-15 0)
(3 1.22648e-15 0)
(3 1.11615e-15 0)
(3 7.46547e-16 0)
(3 2.75627e-16 0)
(3 4.43017e-16 0)
(3 3.7767e-16 0)
(3 -2.07319e-16 0)
(3 -7.89498e-16 0)
(3 -2.53125e-15 0)
(3 -2.72423e-15 0)
(1.85801 1.01124 0)
(2.47383 0.433343 0)
(3 -8.40307e-16 0)
(3 -2.67326e-16 0)
(3 -2.413e-16 0)
(3 -1.89662e-16 0)
(3 3.27022e-17 0)
(3 6.4771e-16 0)
(3 7.21374e-16 0)
(3 5.41393e-16 0)
(3 6.23276e-16 0)
(3 4.14747e-16 0)
(3 -3.95455e-16 0)
(3 -5.85183e-16 0)
(3 -6.10412e-16 0)
(3 -1.00135e-15 0)
(3 -1.35252e-15 0)
(3 -1.91716e-15 0)
(3 -2.48356e-15 0)
(3 -2.87026e-15 0)
(1.93203 0.862036 0)
(2.72505 0.196876 0)
(3 3.43818e-16 0)
(3 8.52332e-16 0)
(3 8.20514e-16 0)
(3 6.30571e-16 0)
(3 3.48609e-16 0)
(3 4.74562e-16 0)
(3 5.41468e-16 0)
(3 7.05041e-16 0)
(3 6.05687e-16 0)
(3 7.94914e-16 0)
(3 6.79323e-16 0)
(3 6.16871e-16 0)
(3 7.57652e-16 0)
(3 5.3329e-16 0)
(3 4.28867e-16 0)
(3 3.61163e-16 0)
(3 2.39296e-17 0)
(3 -6.65319e-17 0)
(2.08259 0.661035 0)
(2.99203 5.01389e-06 0)
(3 1.52881e-15 0)
(3 9.18501e-16 0)
(3 1.0561e-15 0)
(3 8.44486e-16 0)
(3 8.77868e-16 0)
(3 8.37011e-16 0)
(3 7.16762e-16 0)
(3 7.59517e-16 0)
(3 5.86021e-16 0)
(3 1.78847e-16 0)
(3 1.57706e-16 0)
(3 2.51765e-16 0)
(3 1.56527e-16 0)
(3 1.29314e-16 0)
(3 -8.33288e-17 0)
(3 -1.80526e-16 0)
(3 6.18362e-17 0)
(3 -2.07274e-17 0)
(1.9912 0.373884 0)
(2.99981 -1.07141e-05 0)
(3 1.11376e-15 0)
(3 1.13734e-15 0)
(3 1.23108e-15 0)
(3 1.21806e-15 0)
(3 1.16797e-15 0)
(3 1.41056e-15 0)
(3 1.33976e-15 0)
(3 1.2496e-15 0)
(3 1.28981e-15 0)
(3 1.05017e-15 0)
(3 1.12821e-15 0)
(3 1.30293e-15 0)
(3 1.31425e-15 0)
(3 1.05108e-15 0)
(3 1.00438e-15 0)
(3 9.85037e-16 0)
(3 9.99285e-16 0)
(3 9.83077e-16 0)
(1.99138 -0.37408 0)
(2.99983 5.85354e-06 0)
(3 2.27808e-16 0)
(3 5.25026e-16 0)
(3 8.49661e-16 0)
(3 1.41568e-15 0)
(3 1.67393e-15 0)
(3 1.62458e-15 0)
(3 1.62665e-15 0)
(3 1.04175e-15 0)
(3 9.34101e-16 0)
(3 1.43091e-15 0)
(3 2.01977e-15 0)
(3 1.9911e-15 0)
(3 1.99609e-15 0)
(3 2.12098e-15 0)
(3 2.56698e-15 0)
(3 2.8253e-15 0)
(3 2.69126e-15 0)
(3 2.74518e-15 0)
(2.08668 -0.662474 0)
(2.99183 -8.63965e-07 0)
(3 1.02722e-15 0)
(3 1.43153e-15 0)
(3 1.91605e-15 0)
(3 1.83273e-15 0)
(3 1.57561e-15 0)
(3 1.56363e-15 0)
(3 1.49321e-15 0)
(3 1.54863e-15 0)
(3 1.73396e-15 0)
(3 2.22222e-15 0)
(3 2.34392e-15 0)
(3 1.95548e-15 0)
(3 1.73512e-15 0)
(3 1.66492e-15 0)
(3 1.81773e-15 0)
(3 1.80229e-15 0)
(3 1.07724e-15 0)
(3 1.06051e-15 0)
(1.93069 -0.862928 0)
(2.72237 -0.198593 0)
(3 1.47128e-15 0)
(3 1.80421e-15 0)
(3 1.59502e-15 0)
(3 1.24517e-15 0)
(3 1.08999e-15 0)
(3 8.81664e-16 0)
(3 7.34685e-16 0)
(3 5.66958e-16 0)
(3 7.56214e-16 0)
(3 9.73296e-16 0)
(3 9.75594e-16 0)
(3 3.92405e-16 0)
(3 -3.4467e-16 0)
(3 -7.88951e-16 0)
(3 -9.5319e-16 0)
(3 -1.17665e-15 0)
(3 -1.13961e-15 0)
(3 -1.2265e-15 0)
(1.85404 -1.00895 0)
(2.47221 -0.433298 0)
(3 2.67242e-15 0)
(3 2.71401e-15 0)
(3 2.89646e-15 0)
(3 2.5209e-15 0)
(3 2.19027e-15 0)
(3 1.96887e-15 0)
(3 1.74557e-15 0)
(3 1.81572e-15 0)
(3 2.1937e-15 0)
(3 1.67496e-15 0)
(3 8.27096e-16 0)
(3 2.61888e-16 0)
(3 -2.94636e-17 0)
(3 5.96261e-17 0)
(3 1.57063e-16 0)
(3 1.58002e-16 0)
(3 4.0274e-16 0)
(3 5.35885e-16 0)
(1.76676 -1.10494 0)
(2.22971 -0.647213 0)
(3 6.30245e-16 0)
(3 6.63225e-16 0)
(3 1.3616e-15 0)
(3 1.79208e-15 0)
(3 1.48111e-15 0)
(3 1.41117e-15 0)
(3 1.13874e-15 0)
(3 5.78933e-16 0)
(3 -2.76561e-16 0)
(3 -9.0405e-16 0)
(3 -1.50663e-15 0)
(3 -1.61237e-15 0)
(3 -1.74952e-15 0)
(3 -1.80257e-15 0)
(3 -1.53531e-15 0)
(3 -1.3949e-15 0)
(3 -1.59829e-15 0)
(3 -1.79838e-15 0)
(1.68616 -1.17427 0)
(2.03097 -0.834201 0)
(3 -3.82216e-16 0)
(3 -8.60413e-16 0)
(3 -3.55923e-16 0)
(3 4.02233e-16 0)
(3 1.06187e-15 0)
(3 8.3338e-16 0)
(3 1.81811e-16 0)
(3 -6.79645e-17 0)
(3 -6.55004e-16 0)
(3 -9.64087e-16 0)
(3 -1.1593e-15 0)
(3 -1.2572e-15 0)
(3 -8.76305e-16 0)
(3 -7.68589e-16 0)
(3 -8.24908e-16 0)
(3 -1.12412e-15 0)
(3 -3.13342e-15 0)
(3 -2.46478e-15 0)
(1.67701 -1.1941 0)
(1.90414 -0.976368 0)
(2.99837 -0.00145015 0)
(3 -3.14765e-15 0)
(3 -2.39288e-15 0)
(3 -1.59237e-15 0)
(3 -1.71922e-15 0)
(3 -1.69952e-15 0)
(3 -2.12946e-15 0)
(3 -2.1917e-15 0)
(3 -2.35023e-15 0)
(3 -2.06078e-15 0)
(3 -1.81083e-15 0)
(3 -1.89495e-15 0)
(3 -1.37181e-15 0)
(3 -2.59149e-15 0)
(3 -3.73761e-15 0)
(3 -4.1537e-15 0)
(3 -4.79492e-15 0)
(3 -4.89329e-15 0)
(1.65594 -1.23971 0)
(1.82207 -1.10051 0)
(2.87696 -0.0889233 0)
(3 4.41749e-13 0)
(3 -4.36333e-15 0)
(3 -3.34277e-15 0)
(3 -2.49777e-15 0)
(3 -2.68004e-15 0)
(3 -2.93326e-15 0)
(3 -3.3476e-15 0)
(3 -3.56664e-15 0)
(3 -3.54995e-15 0)
(3 -3.53506e-15 0)
(3 -3.1952e-15 0)
(3 -3.62316e-15 0)
(3 -4.49688e-15 0)
(3 -4.93088e-15 0)
(3 -4.61009e-15 0)
(3 -3.47828e-15 0)
(3 -1.87763e-15 0)
(1.63891 -1.25938 0)
(1.62279 -1.25145 0)
(2.64949 -0.29229 0)
(3 -1.6922e-13 0)
(3 2.15502e-14 0)
(3 -4.06014e-15 0)
(3 -3.61136e-15 0)
(3 -3.09997e-15 0)
(3 -3.41292e-15 0)
(3 -3.93171e-15 0)
(3 -4.00815e-15 0)
(3 -4.27361e-15 0)
(3 -4.01626e-15 0)
(3 -2.89466e-15 0)
(3 -3.35765e-15 0)
(3 -4.30998e-15 0)
(3 -4.50985e-15 0)
(3 -4.06656e-15 0)
(3 -1.56624e-15 0)
(3 -4.07572e-16 0)
(1.62226 -1.28146 0)
(1.5826 -1.30922 0)
(2.42613 -0.530317 0)
(3 1.85559e-13 0)
(3 7.85877e-12 0)
(3 -8.2014e-14 0)
(3 -2.82467e-15 0)
(3 -3.50861e-15 0)
(3 -2.81875e-15 0)
(3 -3.41276e-15 0)
(3 -3.2232e-15 0)
(3 -2.41633e-15 0)
(3 -1.95466e-15 0)
(3 -1.32874e-15 0)
(3 -1.01873e-15 0)
(3 -1.5561e-15 0)
(3 -1.24694e-15 0)
(3 5.09736e-16 0)
(3 2.80798e-15 0)
(3 2.81045e-15 0)
(1.60584 -1.29601 0)
(1.48212 -1.38168 0)
(2.1656 -0.818973 0)
(3.011 0.00924428 0)
(3 -1.16885e-08 0)
(3 -3.26118e-12 0)
(3 -1.99654e-14 0)
(3 -2.9674e-15 0)
(3 -2.93759e-15 0)
(3 -3.0056e-15 0)
(3 -2.14232e-15 0)
(3 -4.789e-16 0)
(3 2.16528e-16 0)
(3 2.12538e-16 0)
(3 -7.46655e-16 0)
(3 -6.59536e-16 0)
(3 5.30941e-16 0)
(3 1.403e-15 0)
(3 1.97569e-15 0)
(3 2.70966e-15 0)
(1.59249 -1.30856 0)
(1.46608 -1.36051 0)
(1.91349 -1.04816 0)
(2.848 -0.132532 0)
(3 1.96495e-08 0)
(3 1.07853e-11 0)
(3 8.23834e-14 0)
(3 -4.7409e-15 0)
(3 -1.53303e-15 0)
(3 -1.2906e-15 0)
(3 -7.6932e-16 0)
(3 3.58568e-16 0)
(3 8.85619e-16 0)
(3 5.98949e-17 0)
(3 4.7767e-16 0)
(3 1.59385e-15 0)
(3 1.07791e-15 0)
(3 9.8744e-16 0)
(3 2.14437e-15 0)
(3 2.50056e-15 0)
(1.58537 -1.32376 0)
(1.50821 -1.32816 0)
(1.79297 -1.18044 0)
(2.44464 -0.536761 0)
(3 5.90118e-06 0)
(3 -9.4471e-12 0)
(3 -3.54401e-13 0)
(3 1.33971e-13 0)
(3 -2.22403e-14 0)
(3 5.61026e-17 0)
(3 8.88653e-16 0)
(3 1.27989e-15 0)
(3 1.13932e-15 0)
(3 -3.03669e-16 0)
(3 1.82557e-15 0)
(3 1.11082e-15 0)
(3 1.26429e-15 0)
(3 7.4136e-16 0)
(3 1.8711e-15 0)
(3 2.35696e-15 0)
(1.57905 -1.29229 0)
(1.55179 -1.28763 0)
(1.65902 -1.2465 0)
(2.13075 -0.858631 0)
(3.00648 0.00588063 0)
(3 6.54386e-12 0)
(3 1.97365e-11 0)
(3 -2.96584e-11 0)
(3 3.65171e-12 0)
(3 6.69156e-16 0)
(3 5.11929e-16 0)
(3 9.86356e-16 0)
(3 5.29761e-17 0)
(3 -3.30442e-16 0)
(3 1.37959e-15 0)
(3 -2.60641e-16 0)
(3 8.79178e-16 0)
(3 7.10122e-16 0)
(3 1.95104e-15 0)
(3 2.20075e-15 0)
(1.58244 -1.27481 0)
(1.57795 -1.2694 0)
(1.62979 -1.2596 0)
(1.7778 -1.15833 0)
(2.70119 -0.262504 0)
(3 5.8704e-10 0)
(3 -1.42706e-08 0)
(3 1.29161e-08 0)
(3 -5.65219e-10 0)
(3 -3.27122e-12 0)
(3 1.21575e-13 0)
(3 -1.56775e-15 0)
(3 -8.80459e-16 0)
(3 -2.44631e-15 0)
(3 -6.85295e-16 0)
(3 -2.56203e-16 0)
(3 8.97154e-16 0)
(3 9.83932e-16 0)
(3 1.74929e-15 0)
(3 1.48183e-15 0)
(1.58581 -1.26415 0)
(1.59957 -1.26078 0)
(1.62828 -1.24385 0)
(1.75018 -1.1924 0)
(2.39357 -0.620976 0)
(3.01913 0.018238 0)
(2.99976 -0.000185016 0)
(3 4.34985e-06 0)
(3 -8.60722e-08 0)
(3 8.86834e-10 0)
(3 -8.89254e-13 0)
(3 -1.7469e-15 0)
(3 -3.00553e-15 0)
(3 -3.61304e-15 0)
(3 -1.04318e-15 0)
(3 6.93178e-17 0)
(3 6.35445e-16 0)
(3 7.29544e-16 0)
(3 1.4994e-15 0)
(3 1.37413e-15 0)
(1.58755 -1.2533 0)
(1.61219 -1.25544 0)
(1.628 -1.256 0)
(1.63579 -1.27404 0)
(1.83288 -1.09675 0)
(2.73141 -0.22551 0)
(3.00562 0.00265218 0)
(2.9999 -8.91912e-05 0)
(3 8.06667e-07 0)
(3 -8.09513e-10 0)
(3 -2.311e-13 0)
(3 8.4977e-16 0)
(3 -3.78775e-15 0)
(3 -3.48365e-15 0)
(3 -1.77616e-15 0)
(3 -1.07307e-15 0)
(3 -4.07778e-16 0)
(3 9.54901e-16 0)
(3 -1.98161e-16 0)
(3 1.47944e-15 0)
(1.58887 -1.25173 0)
(1.60729 -1.25499 0)
(1.61233 -1.26523 0)
(1.58834 -1.29611 0)
(1.68479 -1.23128 0)
(2.18394 -0.8138 0)
(2.98593 -0.0085693 0)
(3.00041 0.000826452 0)
(3 -6.42527e-07 0)
(3 -7.98612e-11 0)
(3 -2.15336e-13 0)
(3 1.32607e-15 0)
(3 -3.55554e-15 0)
(3 -3.60175e-15 0)
(3 -2.29012e-15 0)
(3 -2.34596e-15 0)
(3 -3.36881e-16 0)
(3 1.24225e-15 0)
(3 2.4502e-16 0)
(3 1.64729e-15 0)
(1.58073 -1.25394 0)
(1.59116 -1.26181 0)
(1.59301 -1.28039 0)
(1.59174 -1.28726 0)
(1.66302 -1.26548 0)
(1.74862 -1.23198 0)
(2.28454 -0.746745 0)
(2.99868 -0.0132927 0)
(3 -4.14668e-08 0)
(3 -7.92018e-11 0)
(3 -1.25033e-12 0)
(3 2.17343e-13 0)
(3 -3.26504e-15 0)
(3 -3.92994e-15 0)
(3 -2.71887e-15 0)
(3 -3.25548e-15 0)
(3 -3.4054e-15 0)
(3 4.20802e-16 0)
(3 6.83221e-16 0)
(3 1.53395e-15 0)
(1.5742 -1.25668 0)
(1.58023 -1.26447 0)
(1.58289 -1.27218 0)
(1.59138 -1.26267 0)
(1.60967 -1.24138 0)
(1.60278 -1.26527 0)
(1.92027 -1.16869 0)
(2.99573 -0.370512 0)
(3.32102 0.582615 0)
(3 -8.18176e-11 0)
(3 4.15616e-11 0)
(3 -3.56539e-11 0)
(3 -5.96303e-14 0)
(3 2.08834e-13 0)
(3 2.13916e-15 0)
(3 -8.91508e-15 0)
(3 2.12574e-15 0)
(3 -1.05308e-15 0)
(3 -1.38302e-15 0)
(3 2.40055e-15 0)
(1.15874 -0.766667 0)
(1.82453 -1.15218 0)
(1.83673 -1.15048 0)
(1.72853 -1.19876 0)
(1.70884 -1.18998 0)
(1.66812 -1.23747 0)
(1.66368 -1.21122 0)
(1.73273 -1.16375 0)
(1.76403 -1.2271 0)
(1.79077 -1.13609 0)
(2.26398 -0.739806 0)
(2.85374 -0.212006 0)
(3.09742 0.0270872 0)
(3.02096 0.0124329 0)
(3.00438 0.00531789 0)
(3.00182 0.00296018 0)
(3.00006 0.000578572 0)
(2.99998 2.39661e-05 0)
(2.99999 -1.45063e-05 0)
(3 -5.94355e-06 0)
(1.00827 -0.0326655 0)
(1.92288 -0.749511 0)
(2.09527 -0.822459 0)
(1.99699 -0.932693 0)
(1.96952 -0.96771 0)
(1.86775 -1.08497 0)
(1.79221 -1.14108 0)
(1.76306 -1.14589 0)
(1.75924 -1.16202 0)
(1.73403 -1.20204 0)
(1.71119 -1.1952 0)
(1.8559 -1.07074 0)
(2.09546 -0.886688 0)
(2.50636 -0.575985 0)
(2.98947 -0.133983 0)
(3.07441 0.030197 0)
(3.00831 0.00784256 0)
(3.00298 0.00390352 0)
(3.00124 0.00222347 0)
(3.00008 0.000490465 0)
(1.03063 0.00444751 0)
(1.91562 -0.123889 0)
(2.26271 -0.206388 0)
(2.21997 -0.531782 0)
(2.20154 -0.637448 0)
(2.14341 -0.766389 0)
(2.05298 -0.895527 0)
(1.96394 -0.980847 0)
(1.90749 -1.04227 0)
(1.84228 -1.12908 0)
(1.78401 -1.15813 0)
(1.78713 -1.15161 0)
(1.81008 -1.13002 0)
(1.85361 -1.08509 0)
(2.04288 -0.946997 0)
(2.25725 -0.827528 0)
(2.65816 -0.509399 0)
(3.03431 -0.0961172 0)
(3.05577 0.0233987 0)
(3.00404 0.00466804 0)
(1.03417 0.528696 0)
(1.58559 0.541875 0)
(2.23057 0.194921 0)
(2.30165 0.118394 0)
(2.34353 0.040387 0)
(2.36906 -0.262393 0)
(2.27791 -0.55556 0)
(2.20453 -0.685118 0)
(2.13678 -0.774013 0)
(2.07717 -0.904529 0)
(1.96744 -1.00931 0)
(1.9137 -1.05935 0)
(1.88815 -1.07303 0)
(1.87232 -1.08219 0)
(1.87379 -1.05561 0)
(1.89544 -1.04984 0)
(1.95782 -1.02511 0)
(2.15955 -0.909867 0)
(2.38028 -0.79804 0)
(2.78074 -0.443047 0)
(0.93696 0.980673 0)
(1.34668 1.29563 0)
(2.08183 0.546461 0)
(2.49392 0.568862 0)
(2.52281 0.0961173 0)
(2.46724 0.213876 0)
(2.44671 -0.00451411 0)
(2.39823 -0.217612 0)
(2.33954 -0.375692 0)
(2.31126 -0.531485 0)
(2.2185 -0.697736 0)
(2.14259 -0.818586 0)
(2.0867 -0.890573 0)
(2.02533 -0.959163 0)
(1.98211 -0.980552 0)
(1.94738 -1.00286 0)
(1.95212 -1.02323 0)
(1.96868 -0.998493 0)
(1.99584 -0.996142 0)
(2.07352 -0.976745 0)
(1.08772 1.50334 0)
(1.52108 1.53613 0)
(1.86841 1.21579 0)
(2.11247 1.11364 0)
(2.44908 0.544207 0)
(2.54858 0.385838 0)
(2.59249 0.260499 0)
(2.54046 -0.0514334 0)
(2.50062 -0.125587 0)
(2.46895 -0.300296 0)
(2.41264 -0.470415 0)
(2.33209 -0.628604 0)
(2.27708 -0.719556 0)
(2.2061 -0.809702 0)
(2.15866 -0.835441 0)
(2.11779 -0.846893 0)
(2.07944 -0.879562 0)
(2.07309 -0.881147 0)
(2.03975 -0.922624 0)
(2.05966 -0.951833 0)
(1.33451 1.75717 0)
(1.56849 1.96827 0)
(1.90589 1.58025 0)
(2.06499 1.24585 0)
(2.25936 1.19847 0)
(2.37684 0.728541 0)
(2.52731 0.51823 0)
(2.61692 0.285989 0)
(2.5782 0.0494021 0)
(2.56366 -0.0478725 0)
(2.53164 -0.205511 0)
(2.49357 -0.325512 0)
(2.45421 -0.412122 0)
(2.4111 -0.481366 0)
(2.35748 -0.537527 0)
(2.32834 -0.556997 0)
(2.26981 -0.621812 0)
(2.21572 -0.69887 0)
(2.1598 -0.780876 0)
(2.13196 -0.801076 0)
(1.48482 1.88801 0)
(1.56268 2.28284 0)
(1.69554 1.96923 0)
(1.86314 1.6979 0)
(2.10286 1.6721 0)
(2.29132 1.12851 0)
(2.33732 1.18271 0)
(2.44726 0.982572 0)
(2.50421 0.652193 0)
(2.52833 0.545689 0)
(2.55864 0.340048 0)
(2.5615 0.169335 0)
(2.55875 0.0224747 0)
(2.54709 -0.1091 0)
(2.49016 -0.282798 0)
(2.47643 -0.362367 0)
(2.39623 -0.515639 0)
(2.3465 -0.564391 0)
(2.30266 -0.593699 0)
(2.31892 -0.534258 0)
(1.5294 1.89752 0)
(1.66051 2.39431 0)
(1.7127 2.10769 0)
(1.78206 1.95144 0)
(2.00941 1.75482 0)
(2.13332 1.54132 0)
(2.25569 1.35821 0)
(2.35576 1.19005 0)
(2.41549 1.03546 0)
(2.48249 0.84276 0)
(2.57954 0.654401 0)
(2.61369 0.399344 0)
(2.64971 0.203544 0)
(2.64477 0.00667291 0)
(2.59382 -0.196367 0)
(2.56308 -0.278647 0)
(2.51756 -0.359243 0)
(2.51067 -0.270563 0)
(2.45113 -0.328585 0)
(2.47606 -0.27315 0)
(1.52666 1.83165 0)
(1.77926 2.46272 0)
(1.88113 2.26269 0)
(1.91889 2.1231 0)
(2.07794 1.85502 0)
(2.16334 1.72214 0)
(2.35901 1.42871 0)
(2.47781 1.27858 0)
(2.58808 1.19458 0)
(2.65085 0.824221 0)
(2.72649 0.642513 0)
(2.72372 0.38534 0)
(2.73217 0.275852 0)
(2.71269 0.130979 0)
(2.6915 0.0548178 0)
(2.66131 0.0310298 0)
(2.63494 0.0346187 0)
(2.62546 0.0546182 0)
(2.55658 -0.101336 0)
(2.5747 -0.099763 0)
(1.39754 1.61534 0)
(1.68924 2.24812 0)
(1.94858 2.336 0)
(2.14303 2.31398 0)
(2.34239 1.97863 0)
(2.41011 1.85731 0)
(2.58716 1.47961 0)
(2.71005 1.32154 0)
(2.7773 1.22467 0)
(2.78483 0.96146 0)
(2.78244 0.953673 0)
(2.77039 0.746705 0)
(2.73644 0.696609 0)
(2.72919 0.59073 0)
(2.7061 0.493948 0)
(2.68773 0.424485 0)
(2.6952 0.361981 0)
(2.68736 0.227785 0)
(2.65309 0.040612 0)
(2.61266 -0.0542303 0)
(1.28893 1.34276 0)
(1.49547 1.98286 0)
(1.78748 2.24504 0)
(2.00749 2.32355 0)
(2.36146 2.05178 0)
(2.48946 2.00706 0)
(2.44964 1.65029 0)
(2.46882 1.50235 0)
(2.53016 1.48631 0)
(2.56194 1.43816 0)
(2.56885 1.35802 0)
(2.61338 1.19475 0)
(2.61097 1.03061 0)
(2.66561 0.942659 0)
(2.67976 0.751161 0)
(2.72726 0.619734 0)
(2.7563 0.453531 0)
(2.75579 0.236209 0)
(2.72142 0.174539 0)
(2.67494 0.141111 0)
(1.27797 1.21261 0)
(1.37876 1.74497 0)
(1.57979 2.11951 0)
(1.72729 2.2573 0)
(1.99201 2.19149 0)
(2.12923 2.12991 0)
(2.20714 1.91965 0)
(2.26164 1.78353 0)
(2.26747 1.73452 0)
(2.30294 1.67092 0)
(2.41365 1.46483 0)
(2.53548 1.37661 0)
(2.58479 1.13609 0)
(2.71017 1.045 0)
(2.73377 0.787912 0)
(2.78453 0.655783 0)
(2.78779 0.518944 0)
(2.78455 0.393307 0)
(2.73273 0.515605 0)
(2.7044 0.460598 0)
(1.32414 1.16433 0)
(1.40355 1.5511 0)
(1.46256 2.00045 0)
(1.47325 2.21278 0)
(1.6938 2.2022 0)
(1.851 2.15728 0)
(1.95828 2.09315 0)
(2.07459 1.86394 0)
(2.13394 1.78003 0)
(2.29848 1.68073 0)
(2.42068 1.48011 0)
(2.60243 1.41299 0)
(2.67154 1.14715 0)