/*--------------------------------*- C++ -*----------------------------------*\
  =========                 |
  \\      /  F ield         | OpenFOAM: The Open Source CFD Toolbox
   \\    /   O peration     | Website:  https://openfoam.org
    \\  /    A nd           | Version:  7
     \\/     M anipulation  |
\*---------------------------------------------------------------------------*/
FoamFile
{
    version     2.0;
    format      ascii;
    class       volScalarField;
    location    "3.2";
    object      p;
}
// * * * * * * * * * * * * * * * * * * * * * * * * * * * * * * * * * * * * * //

dimensions      [1 -1 -2 0 0 0 0];

internalField   nonuniform List<scalar> 
3700
(
0.184427
0.260793
0.296599
0.318188
0.303951
0.303803
0.315956
0.341576
0.376556
0.393774
0.425255
0.464994
0.473711
0.484779
0.499597
0.51052
0.528221
0.534584
0.542106
0.537598
0.11596
0.0987964
0.0907803
0.0737519
0.0540119
0.0531469
0.0612507
0.0818175
0.11359
0.145608
0.173396
0.184396
0.173039
0.169541
0.175667
0.187717
0.201158
0.215077
0.237706
0.240044
0.102336
0.0879911
0.0750699
0.05537
0.0425177
0.0457022
0.0542426
0.0671083
0.080394
0.0850842
0.0853034
0.0834444
0.0812614
0.0812872
0.0838943
0.0926406
0.104755
0.116498
0.127587
0.137361
0.0936971
0.08095
0.0696108
0.0466687
0.0383032
0.0432583
0.0537964
0.0690624
0.0835914
0.0985259
0.117333
0.122039
0.125042
0.124611
0.124347
0.126161
0.129155
0.138401
0.152837
0.180636
0.0875595
0.0742305
0.0617645
0.0403184
0.0372416
0.0430411
0.05371
0.0669503
0.0803579
0.0971172
0.120845
0.136795
0.152608
0.164049
0.171358
0.175206
0.169619
0.170109
0.174386
0.207488
0.0791332
0.0680007
0.0478967
0.0381995
0.0378591
0.0513069
0.0653351
0.0732092
0.0822045
0.0956495
0.115727
0.1367
0.16439
0.189887
0.209661
0.228956
0.242472
0.255398
0.257074
0.278058
0.0596821
0.0520307
0.0402045
0.0407876
0.0471358
0.0709451
0.0877659
0.0984784
0.10925
0.120956
0.124521
0.137416
0.166814
0.20212
0.23307
0.267902
0.303397
0.338049
0.364171
0.404273
0.0452801
0.0411411
0.0400905
0.0420362
0.0537635
0.081095
0.10013
0.121427
0.153592
0.181453
0.183377
0.195922
0.207817
0.232772
0.265086
0.308028
0.357899
0.41873
0.470096
0.563757
0.0335863
0.0358555
0.04102
0.0432455
0.0559705
0.083304
0.100087
0.126049
0.177431
0.223849
0.260301
0.291888
0.322072
0.355659
0.377998
0.408557
0.44541
0.518986
0.594015
0.745394
0.0251587
0.0322891
0.0404827
0.0436826
0.0565845
0.0869545
0.0964576
0.120069
0.176465
0.243191
0.305812
0.361065
0.430172
0.486388
0.539693
0.592711
0.642967
0.703717
0.797795
0.952482
0.0203733
0.0283367
0.0381129
0.0456422
0.0667132
0.109581
0.114014
0.141517
0.188757
0.250813
0.339533
0.426709
0.531652
0.615735
0.710948
0.808156
0.903096
0.982692
1.14361
1.11825
0.0186661
0.0267285
0.0366542
0.0521732
0.0957049
0.151113
0.18666
0.257957
0.346016
0.428607
0.515529
0.605415
0.708262
0.805772
0.920019
1.06694
1.222
1.35602
1.55694
1.50196
0.0206744
0.028147
0.0409775
0.0781259
0.141918
0.208803
0.290497
0.410919
0.553394
0.706968
0.831463
0.947726
1.0615
1.16989
1.29388
1.45858
1.65504
1.84517
2.11422
2.10038
0.0221431
0.0317191
0.0548279
0.102183
0.174271
0.243785
0.376006
0.536889
0.740205
0.97465
1.16172
1.34207
1.51006
1.67692
1.88154
2.11072
2.33845
2.58857
2.81375
3.00175
0.0199189
0.0386421
0.0688534
0.104216
0.194692
0.275307
0.487137
0.750131
1.08466
1.40246
1.66636
1.90461
2.13641
2.38211
2.69351
2.98259
3.25781
3.51595
3.6773
3.79339
0.0096863
0.0366905
0.0856931
0.106427
0.262906
0.639781
1.03002
1.45324
1.93598
2.33661
2.62689
2.88475
3.14201
3.43379
3.76181
3.96515
4.08634
4.1314
4.03836
3.91139
0.00584494
0.0333189
0.116337
0.366092
0.843786
1.47889
2.05668
2.63531
3.21381
3.58784
3.80609
4.02667
4.22254
4.37978
4.48232
4.40841
4.19064
3.65032
2.78545
1.88038
0.0415673
0.177457
0.496963
1.2048
2.16563
2.89188
3.51527
4.20364
4.78882
4.8315
4.74018
4.73909
4.69336
4.52244
4.01234
3.06103
2.09136
1.33238
1.01815
0.993
0.298549
0.843879
1.99471
3.18764
4.20936
4.85589
5.41836
5.86897
5.72823
5.28997
4.86544
4.31919
3.39052
2.31939
1.42195
1.02874
0.98941
0.994967
0.997347
0.999448
2.32028
3.64621
4.8763
5.69804
6.31794
6.4213
6.53847
6.22181
4.53605
3.21452
2.37234
1.55927
1.07803
0.987326
0.99288
0.996286
0.999166
0.999973
1.00002
1.00001
6.96147
6.90193
6.84871
6.93576
7.06233
6.76098
6.00395
2.34783
0.641548
1
1
1
1
1
1
1
1
1
1
1
6.96137
6.87426
6.77443
6.72228
6.84944
5.80905
2.68075
1.02762
1
1
1
1
1
1
1
1
1
1
1
1
6.81721
6.85703
6.82842
6.66629
6.27721
3.39165
1.0381
0.999208
1
1
1
1
1
1
1
1
1
1
1
1
6.65762
6.80116
6.82152
6.65553
4.67742
1.42388
0.993623
1.00012
0.999999
1
1
1
1
1
1
1
1
1
1
1
6.5147
6.74078
6.77197
6.13727
2.66148
0.975967
1.00035
0.999994
1
1
1
1
1
1
1
1
1
1
1
1
6.45116
6.74227
6.72717
4.91806
1.48219
1
1
1
1
1
1
1
1
1
1
1
1
1
1
1
6.42114
6.79366
6.74575
3.56848
0.974186
1
1
1
1
1
1
1
1
1
1
1
1
1
1
1
6.524
6.67282
6.05595
2.02213
0.999998
1
1
1
1
1
1
1
1
1
1
1
1
1
1
1
6.97807
6.63618
4.87287
1.21587
1
1
1
1
1
1
1
1
1
1
1
1
1
1
1
1
7.25248
6.39799
3.44722
0.987687
1
1
1
1
1
1
1
1
1
1
1
1
1
1
1
1
7.38931
5.9783
2.29262
1
1
1
1
1
1
1
1
1
1
1
1
1
1
1
1
1
7.44944
5.36573
1.62768
1
1
1
1
1
1
1
1
1
1
1
1
1
1
1
1
1
7.49595
4.79896
1.19281
1
1
1
1
1
1
1
1
1
1
1
1
1
1
1
1
1
7.38804
4.04158
1.02159
1
1
1
1
1
1
1
1
1
1
1
1
1
1
1
1
1
7.30142
3.17162
1
1
1
1
1
1
1
1
1
1
1
1
1
1
1
1
1
1
6.9041
2.46086
1
1
1
1
1
1
1
1
1
1
1
1
1
1
1
1
1
1
6.64185
1.87777
1
1
1
1
1
1
1
1
1
1
1
1
1
1
1
1
1
1
6.31426
1.37927
1
1
1
1
1
1
1
1
1
1
1
1
1
1
1
1
1
1
5.75039
1.00649
1
1
1
1
1
1
1
1
1
1
1
1
1
1
1
1
1
1
4.63143
1.00007
1
1
1
1
1
1
1
1
1
1
1
1
1
1
1
1
1
1
4.63915
1.00007
1
1
1
1
1
1
1
1
1
1
1
1
1
1
1
1
1
1
5.71294
1.00621
1
1
1
1
1
1
1
1
1
1
1
1
1
1
1
1
1
1
6.33525
1.37533
1
1
1
1
1
1
1
1
1
1
1
1
1
1
1
1
1
1
6.65739
1.89279
1
1
1
1
1
1
1
1
1
1
1
1
1
1
1
1
1
1
6.89732
2.4724
1
1
1
1
1
1
1
1
1
1
1
1
1
1
1
1
1
1
7.29062
3.16696
1
1
1
1
1
1
1
1
1
1
1
1
1
1
1
1
1
1
7.39362
4.03267
1.01945
1
1
1
1
1
1
1
1
1
1
1
1
1
1
1
1
1
7.49846
4.80028
1.1919
1
1
1
1
1
1
1
1
1
1
1
1
1
1
1
1
1
7.44995
5.36573
1.62932
1
1
1
1
1
1
1
1
1
1
1
1
1
1
1
1
1
7.38392
5.97493
2.29533
1
1
1
1
1
1
1
1
1
1
1
1
1
1
1
1
1
7.24781
6.39864
3.44567
0.987692
1
1
1
1
1
1
1
1
1
1
1
1
1
1
1
1
6.97609
6.63824
4.87652
1.21655
1
1
1
1
1
1
1
1
1
1
1
1
1
1
1
1
6.5198
6.66632
6.04952
2.02553
0.999999
1
1
1
1
1
1
1
1
1
1
1
1
1
1
1
6.42347
6.79276
6.74454
3.5637
0.973862
1
1
1
1
1
1
1
1
1
1
1
1
1
1
1
6.45666
6.75147
6.73341
4.91362
1.47849
1
1
1
1
1
1
1
1
1
1
1
1
1
1
1
6.52053
6.74686
6.77672
6.13422
2.65756
0.975995
1.00035
0.999994
1
1
1
1
1
1
1
1
1
1
1
1
6.65903
6.80133
6.82162
6.65376
4.66964
1.42325
0.993667
1.00012
0.999999
1
1
1
1
1
1
1
1
1
1
1
6.81458
6.85677
6.82839
6.66714
6.28084
3.39249
1.03696
0.999232
1
1
1
1
1
1
1
1
1
1
1
1
6.96404
6.87518
6.77774
6.72541
6.85367
5.80126
2.6804
1.02771
1
1
1
1
1
1
1
1
1
1
1
1
6.96374
6.90317
6.85181
6.93939
7.06239
6.7553
6.00195
2.34343
0.642547
1
1
1
1
1
1
1
1
1
1
1
2.32049
3.64359
4.87334
5.69916
6.31896
6.41618
6.53827
6.22258
4.53912
3.21706
2.37489
1.56127
1.07869
0.987366
0.992895
0.996297
0.999169
0.999973
1.00002
1.00001
0.301775
0.861072
2.00027
3.18447
4.20585
4.8491
5.41388
5.86855
5.72791
5.28911
4.86442
4.31927
3.39181
2.3204
1.42197
1.0286
0.989435
0.994983
0.997354
0.99945
0.0358594
0.160197
0.508999
1.22235
2.16767
2.89014
3.51302
4.19753
4.78273
4.82967
4.7389
4.73907
4.69369
4.52313
4.01239
3.05996
2.0897
1.33114
1.01787
0.993008
0.00652082
0.027946
0.10811
0.365877
0.856661
1.48531
2.05867
2.63646
3.21155
3.58279
3.80306
4.02545
4.22265
4.38106
4.48312
4.40867
4.19025
3.64887
2.78382
1.87928
0.0120646
0.0325508
0.0719056
0.103511
0.271676
0.653343
1.04344
1.46444
1.94523
2.34194
2.62908
2.8867
3.14472
3.43697
3.76414
3.96619
4.08655
4.13168
4.0386
3.91161
0.0196972
0.0367387
0.0632216
0.102551
0.188607
0.280488
0.494147
0.753673
1.08683
1.40239
1.66681
1.90559
2.13753
2.38295
2.69376
2.98214
3.25726
3.5154
3.6776
3.79437
0.0195048
0.0330501
0.0541924
0.0997895
0.171982
0.24042
0.373193
0.535155
0.736085
0.971343
1.15858
1.33949
1.50849
1.67599
1.88114
2.11054
2.33794
2.588
2.81373
3.00267
0.0167898
0.0293475
0.0430263
0.0768529
0.142024
0.205815
0.287628
0.40926
0.551705
0.705943
0.830506
0.947398
1.06123
1.16971
1.29353
1.45729
1.65291
1.84308
2.11389
2.10085
0.0156668
0.0255031
0.0365518
0.0510417
0.0972386
0.149882
0.186394
0.258685
0.348655
0.431238
0.517937
0.606684
0.708348
0.805243
0.918596
1.06489
1.22034
1.35534
1.55727
1.50285
0.0176274
0.0265924
0.0365349
0.0436101
0.0670537
0.108527
0.114655
0.144457
0.192047
0.250392
0.337668
0.425581
0.530732
0.614711
0.709932
0.807589
0.903131
0.983336
1.14429
1.11822
0.023143
0.0308628
0.0380041
0.0417255
0.0570518
0.0863413
0.095107
0.11799
0.173668
0.241747
0.304675
0.360371
0.429905
0.486113
0.539947
0.593446
0.644053
0.704125
0.797905
0.952169
0.0333279
0.0344608
0.037354
0.0393221
0.0570596
0.0820286
0.0972027
0.123627
0.175513
0.224053
0.261143
0.29256
0.32335
0.357299
0.379354
0.409236
0.444949
0.517439
0.592649
0.744771
0.0476419
0.0391018
0.0343675
0.0376429
0.0556866
0.0792249
0.0978156
0.120206
0.154043
0.184073
0.187609
0.199894
0.21031
0.233444
0.263907
0.305933
0.355848
0.41772
0.469559
0.564205
0.0632271
0.0481516
0.0346378
0.0365829
0.0499588
0.0696249
0.0866008
0.0993705
0.111641
0.124346
0.126238
0.137164
0.164987
0.199608
0.230812
0.266538
0.303158
0.33857
0.364997
0.405842
0.0755117
0.0654604
0.0426382
0.0361866
0.0408856
0.0510657
0.0648266
0.0743748
0.0828329
0.095401
0.114884
0.135169
0.161983
0.187729
0.208631
0.229527
0.243855
0.256819
0.258443
0.279381
0.0860255
0.0774325
0.0615051
0.0405311
0.0403725
0.0442128
0.0533049
0.0680196
0.0800304
0.0962162
0.119442
0.134884
0.151037
0.163458
0.172591
0.176533
0.170631
0.171134
0.175558
0.207846
0.107943
0.0899699
0.0748534
0.0494481
0.0415873
0.0454988
0.0536239
0.0705146
0.0834834
0.097528
0.115521
0.120912
0.125448
0.126502
0.126817
0.127375
0.128977
0.137655
0.15226
0.18013
0.12497
0.0969554
0.0821368
0.0590013
0.0462247
0.0492139
0.0549897
0.0685142
0.0810258
0.0836138
0.0846089
0.0837017
0.0826101
0.0830176
0.0850169
0.0921792
0.10331
0.114745
0.125607
0.136189
0.13271
0.114931
0.122516
0.121478
0.126317
0.13811
0.151003
0.166795
0.176781
0.168267
0.159878
0.163188
0.168002
0.171632
0.165054
0.164745
0.169744
0.174567
0.183756
0.189439
0.196731
0.271273
0.324229
0.378645
0.38729
0.401022
0.398324
0.399495
0.405791
0.399136
0.412932
0.452671
0.469673
0.483767
0.486659
0.492873
0.507884
0.505657
0.518895
0.523792
0.555584
0.640973
0.712541
0.805
0.811029
0.835824
0.845547
0.878542
0.908364
0.915748
0.916129
0.915219
0.916328
0.924608
0.934972
0.928879
0.908545
0.875223
0.844042
0.838177
0.292238
0.401364
0.535776
0.681401
0.752625
0.815318
0.836642
0.867023
0.904055
0.925708
0.931607
0.930603
0.919773
0.917153
0.920148
0.918516
0.90803
0.88803
0.863013
0.842864
0.140873
0.154672
0.229824
0.338606
0.531098
0.686562
0.761082
0.831103
0.887054
0.923302
0.932469
0.934743
0.93039
0.916343
0.90428
0.895142
0.890881
0.884966
0.87397
0.857045
0.194359
0.214107
0.240043
0.242695
0.262677
0.340346
0.53904
0.717854
0.81383
0.886727
0.938124
0.941831
0.939649
0.926703
0.900626
0.882648
0.878174
0.883091
0.877566
0.862
0.240053
0.263547
0.270341
0.292772
0.301622
0.294071
0.313832
0.402561
0.580612
0.761935
0.893117
0.933435
0.950663
0.940853
0.90619
0.875649
0.872927
0.878517
0.878047
0.86034
0.305414
0.323287
0.332271
0.342216
0.341807
0.339105
0.34118
0.331343
0.350735
0.467505
0.686619
0.883864
0.942838
0.939739
0.919049
0.879778
0.870422
0.87444
0.874197
0.855875
0.399784
0.395883
0.387638
0.389337
0.392894
0.390515
0.384406
0.374275
0.357214
0.361011
0.438433
0.655708
0.870471
0.938407
0.920963
0.895049
0.873458
0.869629
0.869281
0.852856
0.528899
0.500343
0.456871
0.42425
0.426309
0.432243
0.431125
0.418507
0.400052
0.376591
0.378974
0.436205
0.633344
0.84612
0.910206
0.900226
0.873711
0.864035
0.862882
0.851917
0.687796
0.619808
0.540531
0.478388
0.469947
0.480187
0.482805
0.47061
0.442601
0.416953
0.393841
0.398842
0.443046
0.631995
0.825775
0.892755
0.86481
0.84518
0.855391
0.85195
0.870431
0.774299
0.649661
0.556756
0.53046
0.526748
0.526224
0.510706
0.491615
0.455672
0.432539
0.419985
0.42598
0.466641
0.62267
0.809647
0.820689
0.825904
0.851557
0.855132
1.23967
0.986338
0.835072
0.683086
0.582992
0.567383
0.584571
0.588544
0.573923
0.538256
0.488227
0.465415
0.46362
0.470863
0.486765
0.551505
0.672022
0.767225
0.829437
0.841911
2.03501
1.46724
1.19068
1.03259
0.831782
0.690936
0.676276
0.669394
0.641684
0.599399
0.549914
0.525022
0.522767
0.508124
0.49433
0.488369
0.495506
0.537273
0.628449
0.761896
2.5095
2.16978
1.68972
1.37051
1.13903
0.935807
0.796466
0.722516
0.699942
0.693193
0.666521
0.629537
0.6046
0.580051
0.544721
0.524497
0.514009
0.494559
0.49733
0.595048
2.36687
2.34818
2.23963
1.91191
1.56337
1.30434
1.10224
0.911746
0.853772
0.832837
0.783481
0.717423
0.655465
0.617566
0.593159
0.579136
0.561415
0.541799
0.516823
0.500521
1.68197
2.13819
2.22377
2.1941
2.06336
1.79154
1.49629
1.24381
1.06682
0.941264
0.867811
0.806737
0.755217
0.706866
0.690276
0.668678
0.634525
0.602158
0.566596
0.517084
1.10862
1.43536
1.84756
2.11337
2.11377
2.07762
1.92681
1.69145
1.44126
1.20727
1.07715
0.986837
0.920562
0.86244
0.802535
0.733498
0.678585
0.642344
0.612021
0.562251
1.00451
1.04418
1.20623
1.54757
1.86566
2.02149
2.01334
1.97039
1.83382
1.62156
1.40148
1.22179
1.06357
0.979938
0.899348
0.813986
0.752174
0.709917
0.684481
0.640487
1.00009
1.00111
1.01065
1.07858
1.26903
1.57297
1.82087
1.93595
1.92977
1.88814
1.76592
1.58529
1.37989
1.21906
1.09144
0.996047
0.938556
0.859131
0.771764
0.695421
1
1.00001
1.00015
1.00253
1.0187
1.10138
1.29167
1.5562
1.76877
1.85738
1.8508
1.81499
1.72287
1.55107
1.3733
1.22272
1.09037
0.982162
0.892353
0.768172
1
1
1
1.00003
1.00032
1.00396
1.02504
1.10797
1.28462
1.52246
1.70107
1.78833
1.78569
1.75618
1.67709
1.53701
1.35387
1.19736
1.10453
0.947425
1
1
1
1
1
1.00005
1.00049
1.00474
1.02595
1.10561
1.26503
1.47275
1.64132
1.72488
1.7206
1.69233
1.62437
1.50084
1.35902
1.14222
1
1
1
1
1
1
1
1.00006
1.00057
1.00479
1.02538
1.09439
1.23231
1.42362
1.57774
1.65295
1.64086
1.60906
1.55346
1.39539
1
1
1
1
1
1
1
1
1.00001
1.00006
1.00058
1.00424
1.02169
1.08015
1.20209
1.36513
1.49362
1.55697
1.54652
1.48551
1
1
1
1
1
1
1
1
1
1
1.00001
1.00006
1.00051
1.00345
1.01818
1.06409
1.15677
1.28
1.38432
1.426
1
1
1
1
1
1
1
1
1
1
1
1
1.00001
1.00005
1.00042
1.00254
1.01285
1.04172
1.1038
1.23
1.62027
2.45931
2.58229
2.08819
1.31176
1.03704
1.00187
1.00005
1
1
1
1
1
1
1
2.33754
2.81161
2.52784
1.54458
1.04896
1.00083
1
1
1
1
1
1
1
1
1
2.92903
2.86603
1.98304
1.15377
1.00528
1.00005
1
1
1
1
1
1
1
1
1
3.25059
2.55776
1.3653
1.01941
1.00019
1
1
1
1
1
1
1
1
1
1
3.32328
1.68225
1.04723
1.00053
1
1
1
1
1
1
1
1
1
1
1
2.06499
1.07283
1.00047
0.999999
0.999999
1
1
1
1
1
1
1
1
1
1
1.1001
1.00054
0.999997
1
1
1
1
1
1
1
1
1
1
1
1
0.998168
0.999865
0.999996
1
1
1
1
1
1
1
1
1
1
1
1
0.999967
1
1
1
1
1
1
1
1
1
1
1
1
1
1
1
1
1
1
1
1
1
1
1
1
1
1
1
1
1
1
1
1
1
1
1
1
1
1
1
1
1
1
1
1
1
1
1
1
1
1
1
1
1
1
1
1
1
1
1
1
1
1
1
1
1
1
1
1
1
1
1
1
1
1
1
1
1
1
1
1
1
1
1
1
1
1
1
1
1
1
1
1
1
1
1
1
1
1
1
1
1
1
1
1
1
1
1
1
1
1
1
1
1
1
1
1
1
1
1
1
1
1
1
1
1
1
1
1
1
1
1
1
1
1
1
1
1
1
1
1
1
1
1
1
1
1
1
1
1
1
1
1
1
1
1
1
1
1
1
1
1
1
1
1
1
1
1
1
1
1
1
1
1
1
1
1
1
1
1
1
1
1
1
1
1
1
1
1
1
1
1
1
1
1
1
1
1
1
1
1
1
1
1
1
1
1
1
1
1
1
1
1
1
1
1
1
1
1
1
1
1
1
1
1
1
1
1
1
1
1
1
1
1
1
1
1
1
1
1
1
1
1
1
1
1
1
1
1
1
1
1
1
1
1
1
1
1
1
1
1
1
1
1
1
1
1
1
1
1
1
1
1
1
1
1
1
1
1
1
1
1
1
1
1
1
1
1
1
1
1
1
1
1
1
1
1
1
1
1
1
1
1
1
1
1
1
1
1
1
1
1
1
1
1
1
1
1
1
1
1
1
1
1
1
1
1
1
1
1
1
1
1
1
1
1
1
1
1
1
1
1
1
1
1
1
1
1
1
1
1
1
1
1
1
1
1
1
1
1
1
1
1
1
1
1
1
1
1
1
1
1
1
1
1
1
1
1
1
1
1
1
1
1
1
1
1
1
1
1
1
1
1
1
1
1
1
1
1
1
1
1
1
1
1
1
1
1
1
1
1
1
1
1
1
1
1
1
1
1
1
1
1
1
1
1
1
1
1
1
1
1
1
1
1
1
1
1
1
1
1
1
1
1
1
1
1
1
1
1
1
1
1
1
1
1
1
1
1
1
1
1
1
1
1
1
1
1
1
1
1
1
1
1
1
1
1
1
1
1
1
1
1
1
1
1
1
1
1
1
1
1
1
1
1
1
1
1
1
1
1
1
1
1
1
1
1
1
1
1
1
1
1
1
1
1
1
1
1
1
1
1
1
1
1
1
1
1
1
1
1
1
1
1
1
1
1
1
1
1
1
1
1
1
1
1
1
1
1
1
1
1
1
1
1
1
1
1
1
1
1
1
1
1
1
1
1
1
1
1
1
1
1
1
1
1
1
1
1
1
1
1
1
1
1
1
1
1
1
1
1
1
1
1
1
1
1
1
1
1
1
1
1
1
1
1
1
1
1
1
1
1
1
1
1
1
1
1
1
1
1
1
1
1
1
1
1
1
1
1
1
1
1
1
1
1
1
1
1
1
1
1
1
1
1
1
1
1
1
1
1
1
1
1
1
1
1
1
1
1
1
1
1
1
1
1
1
1
1
1
1
1
1
1
1
1
1
1
1
1
1
1
1
1
1
1
1
1
1
1
1
1
1
1
1
1
1
1
1
1
1
1
1
1
1
1
1
1
1
1
1
1
1
1
1
1
1
1
1
1
1
1
1
1
1
1
1
1
1
1
1
1
1
1
1
1
1
1
1
1
1
1
1
1
1
1
1
1
1
1
1
1
1
1
1
1
1
1
1
1
1
1
1
1
1
1
1
1
1
1
1
1
1
1
1
1
1
1
1
1
1
1
1
1
1
1
1
1
1
1
1
1
1
1
1
1
1
1
1
1
1
1
1
1
1
1
1
1
1
1
1
1
1
1
1
1
1
1
1
1
1
1
1
1
1
1
1
1
1
1
1
1
1
1
1
1
1
1
1
1
1
1
1
1
1
0.999967
1
1
1
1
1
1
1
1
1
1
1
1
1
1
0.99817
0.999865
0.999996
1
1
1
1
1
1
1
1
1
1
1
1
1.09993
1.00053
0.999997
1
1
1
1
1
1
1
1
1
1
1
1
2.06486
1.0728
1.00047
0.999999
0.999999
1
1
1
1
1
1
1
1
1
1
3.32394
1.68237
1.04723
1.00053
1
1
1
1
1
1
1
1
1
1
1
3.25131
2.55807
1.36542
1.01944
1.00019
1
1
1
1
1
1
1
1
1
1
2.92919
2.86599
1.98273
1.1537
1.00527
1.00005
1
1
1
1
1
1
1
1
1
2.33817
2.81147
2.52789
1.54455
1.04896
1.00083
1
1
1
1
1
1
1
1
1
1.62031
2.45962
2.58237
2.08834
1.31185
1.03706
1.00187
1.00005
1
1
1
1
1
1
1
1.24126
2.03398
2.5096
2.36698
1.68218
1.10864
1.00451
1.00009
1
1
1
1
1
1
1
0.986175
1.46779
2.17021
2.34816
2.13795
1.43528
1.04417
1.00111
1.00001
1
1
1
1
1
1
0.833928
1.19269
1.68857
2.23943
2.22373
1.84752
1.2062
1.01065
1.00015
1
1
1
1
1
1
0.682003
1.03372
1.37019
1.91203
2.19409
2.11338
1.54756
1.07858
1.00253
1.00003
1
1
1
1
1
0.581871
0.830785
1.13907
1.56254
2.06349
2.11381
1.86568
1.26904
1.0187
1.00032
1
1
1
1
1
0.566751
0.691056
0.938066
1.30392
1.79126
2.0776
2.02152
1.57297
1.10137
1.00396
1.00005
1
1
1
1
0.586187
0.676399
0.797544
1.10245
1.49618
1.92693
2.01339
1.82097
1.29168
1.02504
1.00049
1
1
1
1
0.590522
0.669075
0.721727
0.911842
1.24378
1.69171
1.97041
1.93593
1.55623
1.10799
1.00474
1.00006
1
1
1
0.575856
0.641277
0.699137
0.854639
1.06703
1.44114
1.83384
1.92972
1.76868
1.28463
1.02595
1.00057
1.00001
1
1
0.539267
0.598961
0.692531
0.833324
0.941499
1.20706
1.62147
1.88806
1.85734
1.52241
1.1056
1.00479
1.00006
1
1
0.488719
0.549422
0.665708
0.783075
0.867706
1.07778
1.40166
1.76589
1.85079
1.70107
1.26499
1.02537
1.00058
1.00001
1
0.465845
0.52527
0.629315
0.716644
0.806257
0.987362
1.22191
1.5854
1.81504
1.78835
1.47276
1.09439
1.00424
1.00006
1
0.464042
0.523041
0.604709
0.655033
0.754982
0.920575
1.06333
1.38002
1.72297
1.78572
1.64136
1.23234
1.0217
1.00051
1.00001
0.470197
0.509177
0.580054
0.617354
0.706924
0.862413
0.979702
1.21915
1.55108
1.7562
1.72489
1.42365
1.08017
1.00345
1.00005
0.485183
0.495273
0.544547
0.592725
0.690442
0.802703
0.899232
1.09139
1.37339
1.67701
1.72059
1.57774
1.2021
1.01818
1.00042
0.550164
0.48866
0.524321
0.578653
0.668972
0.733722
0.813765
0.995499
1.22263
1.53707
1.69237
1.65298
1.36515
1.0641
1.00254
0.672084
0.495611
0.514256
0.560897
0.634576
0.678635
0.752581
0.938447
1.09036
1.35423
1.62435
1.6409
1.49366
1.15678
1.01285
0.766119
0.537645
0.494818
0.541438
0.601845
0.642157
0.71053
0.860001
0.981953
1.19687
1.50092
1.60912
1.55702
1.28002
1.04172
0.828986
0.627936
0.497319
0.516725
0.566368
0.611777
0.684303
0.772276
0.892698
1.10433
1.35919
1.55354
1.54658
1.38434
1.1038
0.841672
0.760257
0.594336
0.500591
0.517183
0.562217
0.639964
0.694787
0.768427
0.94797
1.14237
1.39545
1.48554
1.42601
1.23
0.871304
0.771784
0.650093
0.557277
0.531258
0.525675
0.521719
0.507422
0.490699
0.455176
0.432719
0.420334
0.426224
0.465851
0.619685
0.80796
0.821521
0.825394
0.850745
0.855179
0.686966
0.621787
0.539883
0.474817
0.46957
0.475847
0.477399
0.466039
0.439621
0.416237
0.393702
0.398927
0.443679
0.631051
0.82408
0.893082
0.865079
0.845832
0.855577
0.853016
0.530211
0.497739
0.45587
0.432339
0.433554
0.43477
0.430821
0.41681
0.39887
0.376902
0.379695
0.436334
0.633197
0.846217
0.911058
0.900825
0.873461
0.863822
0.863027
0.853381
0.39919
0.397545
0.384127
0.385161
0.389094
0.387526
0.382984
0.37399
0.358582
0.361978
0.438102
0.653025
0.868114
0.93884
0.922438
0.896839
0.873111
0.868557
0.868565
0.853712
0.304286
0.322852
0.335979
0.343978
0.342109
0.339267
0.341623
0.332313
0.353074
0.470692
0.687214
0.881928
0.941343
0.939651
0.921352
0.881396
0.870026
0.871846
0.873078
0.856045
0.242432
0.257506
0.273826
0.296367
0.30546
0.296602
0.313728
0.403831
0.585211
0.766042
0.895615
0.932792
0.948759
0.939777
0.908243
0.876816
0.872502
0.879451
0.876882
0.859088
0.194233
0.213496
0.227565
0.240171
0.259885
0.335169
0.533816
0.714647
0.814034
0.888566
0.940465
0.942941
0.939465
0.925651
0.900173
0.882715
0.878148
0.88249
0.877124
0.860409
0.138966
0.164426
0.246538
0.341397
0.518037
0.688845
0.758989
0.822851
0.8833
0.924562
0.936336
0.938749
0.932981
0.918378
0.906308
0.896391
0.892124
0.885995
0.87407
0.855954
0.283527
0.428432
0.561198
0.678197
0.754707
0.823686
0.838826
0.856938
0.894241
0.923726
0.933036
0.933545
0.920329
0.91368
0.914453
0.916979
0.908239
0.890394
0.865678
0.843351
0.558633
0.648774
0.716913
0.80214
0.815478
0.846997
0.848541
0.87293
0.910887
0.931133
0.933068
0.927171
0.917258
0.922316
0.932075
0.935342
0.921288
0.890917
0.849224
0.837904
)
;

boundaryField
{
    inlet
    {
        type            fixedValue;
        value           uniform 1;
    }
    outlet
    {
        type            zeroGradient;
    }
    airfoil
    {
        type            zeroGradient;
    }
    top
    {
        type            symmetryPlane;
    }
    bottom
    {
        type            symmetryPlane;
    }
    defaultFaces
    {
        type            empty;
    }
}


// ************************************************************************* //
