/*--------------------------------*- C++ -*----------------------------------*\
  =========                 |
  \\      /  F ield         | OpenFOAM: The Open Source CFD Toolbox
   \\    /   O peration     | Website:  https://openfoam.org
    \\  /    A nd           | Version:  7
     \\/     M anipulation  |
\*---------------------------------------------------------------------------*/
FoamFile
{
    version     2.0;
    format      ascii;
    class       volScalarField;
    location    "3.2";
    object      rho;
}
// * * * * * * * * * * * * * * * * * * * * * * * * * * * * * * * * * * * * * //

dimensions      [1 -3 0 0 0 0 0];

internalField   nonuniform List<scalar> 
3700
(
0.256482
0.362154
0.411481
0.441375
0.421651
0.42153
0.438437
0.473834
0.521836
0.545055
0.588365
0.643354
0.655516
0.670963
0.691532
0.706703
0.731269
0.740146
0.750628
0.74448
0.161873
0.137963
0.126792
0.103118
0.0755964
0.0744175
0.0857084
0.114328
0.15846
0.202714
0.241079
0.25636
0.240735
0.236047
0.244574
0.261367
0.280149
0.299543
0.331031
0.334343
0.142856
0.122905
0.104955
0.0775117
0.0595812
0.0640312
0.0759589
0.0939232
0.112487
0.119053
0.119386
0.116814
0.113792
0.113848
0.117496
0.12971
0.146631
0.163036
0.178536
0.192211
0.130813
0.113104
0.0973656
0.0653826
0.0537101
0.0606352
0.0753538
0.0966628
0.116954
0.137815
0.164091
0.170686
0.174907
0.174346
0.174029
0.176597
0.180793
0.193697
0.213846
0.252661
0.1223
0.103778
0.0864485
0.0565278
0.0522361
0.0603398
0.0752477
0.0937451
0.112478
0.135865
0.168991
0.191282
0.213365
0.22935
0.23959
0.245004
0.237266
0.238005
0.243995
0.290187
0.110617
0.0951293
0.0671043
0.0535746
0.0531057
0.0719227
0.0915346
0.102519
0.115079
0.133845
0.161891
0.191176
0.229827
0.265413
0.293025
0.319978
0.338869
0.356952
0.359342
0.388655
0.0835256
0.0728571
0.0563579
0.0571938
0.0660806
0.0993559
0.122862
0.137846
0.152906
0.169238
0.174205
0.192207
0.233252
0.282531
0.325713
0.374306
0.423809
0.472162
0.508629
0.564548
0.0634315
0.0576476
0.0561923
0.0589229
0.075303
0.113474
0.140067
0.169819
0.214744
0.253649
0.256373
0.2739
0.290528
0.325376
0.370456
0.430321
0.499824
0.584593
0.656209
0.786671
0.0470922
0.0502489
0.05747
0.0605882
0.0783376
0.116499
0.139972
0.176222
0.247912
0.312694
0.363552
0.407645
0.44975
0.496623
0.5278
0.570439
0.621818
0.7243
0.82879
1.03949
0.0353025
0.0452498
0.0566941
0.0611641
0.079142
0.121529
0.134874
0.167855
0.246521
0.339598
0.426922
0.503967
0.600263
0.678651
0.752935
0.82681
0.896811
0.981399
1.11236
1.32752
0.0285995
0.0397115
0.0533692
0.06389
0.093277
0.153108
0.159343
0.197715
0.263611
0.350192
0.473909
0.595404
0.741562
0.858699
0.991274
1.12658
1.25869
1.36939
1.59306
1.55789
0.0262043
0.0374595
0.0513447
0.0730367
0.133773
0.2111
0.260696
0.360053
0.482745
0.597761
0.718892
0.844122
0.987372
1.12316
1.28216
1.48648
1.70199
1.8882
2.16714
2.09083
0.028997
0.0394594
0.0574195
0.109313
0.19829
0.29153
0.405369
0.573052
0.77137
0.98504
1.15833
1.32009
1.47843
1.62925
1.8017
2.03063
2.30347
2.56736
2.94059
2.92137
0.0310383
0.044488
0.0768292
0.142897
0.243433
0.340269
0.524383
0.748305
1.03111
1.35713
1.61732
1.86807
2.1016
2.33344
2.61755
2.93563
3.25154
3.5985
3.91088
4.17182
0.0279194
0.0541545
0.0964476
0.145729
0.271922
0.38418
0.679023
1.04484
1.50981
1.95154
2.31832
2.64929
2.97112
3.31197
3.74377
4.14449
4.52603
4.88406
5.10838
5.26989
0.0136024
0.0513927
0.119963
0.148803
0.366908
0.890895
1.43326
2.02118
2.69153
3.24791
3.65094
4.00869
4.36533
4.76955
5.22412
5.50594
5.67435
5.7373
5.60948
5.43553
0.00824059
0.0467233
0.162679
0.51038
1.17414
2.05607
2.85814
3.66103
4.46374
4.98264
5.28518
5.59064
5.86163
6.07963
6.22204
6.12014
5.82081
5.07607
3.87969
2.62534
0.0584465
0.248089
0.692469
1.67553
3.0085
4.01602
4.88049
5.83492
6.64623
6.70513
6.5784
6.57674
6.51332
6.27754
5.57424
4.25895
2.91744
1.86345
1.42533
1.39023
0.417443
1.17535
2.77207
4.42563
5.84137
6.7372
7.51634
8.14149
7.9467
7.33948
6.75142
5.99662
4.71255
3.23195
1.98782
1.4401
1.38523
1.39298
1.3963
1.39923
3.22597
5.06239
6.76523
7.90243
8.76063
8.90465
9.06736
8.6303
6.29761
4.46647
3.30239
2.17795
1.5088
1.38232
1.39007
1.39482
1.39884
1.39997
1.40003
1.40002
9.64986
9.56762
9.4942
9.61494
9.79091
9.37619
8.33211
3.27202
0.899584
1.40001
1.40001
1.40001
1.40001
1.40001
1.40001
1.40001
1.40001
1.40001
1.40001
1.40001
9.64978
9.52938
9.39168
9.32056
9.49823
8.06263
3.73397
1.43839
1.40001
1.40001
1.40001
1.40001
1.40001
1.40001
1.40001
1.40001
1.40001
1.40001
1.40001
1.40001
9.45038
9.50554
9.46642
9.24378
8.70892
4.71873
1.45286
1.39891
1.40001
1.40001
1.40001
1.40001
1.40001
1.40001
1.40001
1.40001
1.40001
1.40001
1.40001
1.40001
9.22968
9.42824
9.45692
9.22978
6.49775
1.98881
1.39113
1.40017
1.4
1.40001
1.40001
1.40001
1.40001
1.40001
1.40001
1.40001
1.40001
1.40001
1.40001
1.40001
9.0321
9.34483
9.38842
8.51356
3.70539
1.36647
1.4005
1.4
1.40001
1.40001
1.40001
1.40001
1.40001
1.40001
1.40001
1.40001
1.40001
1.40001
1.40001
1.40001
8.94429
9.34692
9.32657
6.8283
2.06921
1.40001
1.40001
1.40001
1.40001
1.40001
1.40001
1.40001
1.40001
1.40001
1.40001
1.40001
1.40001
1.40001
1.40001
1.40001
8.9028
9.41809
9.35272
4.96115
1.36396
1.40001
1.40001
1.40001
1.40001
1.40001
1.40001
1.40001
1.40001
1.40001
1.40001
1.40001
1.40001
1.40001
1.40001
1.40001
9.045
9.25182
8.4012
2.81796
1.4
1.40001
1.40001
1.40001
1.40001
1.40001
1.40001
1.40001
1.40001
1.40001
1.40001
1.40001
1.40001
1.40001
1.40001
1.40001
9.67243
9.20195
6.76665
1.69958
1.4
1.40001
1.40001
1.40001
1.40001
1.40001
1.40001
1.40001
1.40001
1.40001
1.40001
1.40001
1.40001
1.40001
1.40001
1.40001
10.0514
8.8736
4.79373
1.38282
1.40001
1.40001
1.40001
1.40001
1.40001
1.40001
1.40001
1.40001
1.40001
1.40001
1.40001
1.40001
1.40001
1.40001
1.40001
1.40001
10.2401
8.29465
3.19367
1.40001
1.40001
1.40001
1.40001
1.40001
1.40001
1.40001
1.40001
1.40001
1.40001
1.40001
1.40001
1.40001
1.40001
1.40001
1.40001
1.40001
10.3229
7.44834
2.27137
1.40001
1.40001
1.40001
1.40001
1.40001
1.40001
1.40001
1.40001
1.40001
1.40001
1.40001
1.40001
1.40001
1.40001
1.40001
1.40001
1.40001
10.3869
6.66475
1.6678
1.40001
1.40001
1.40001
1.40001
1.40001
1.40001
1.40001
1.40001
1.40001
1.40001
1.40001
1.40001
1.40001
1.40001
1.40001
1.40001
1.40001
10.2383
5.61642
1.43004
1.40001
1.40001
1.40001
1.40001
1.40001
1.40001
1.40001
1.40001
1.40001
1.40001
1.40001
1.40001
1.40001
1.40001
1.40001
1.40001
1.40001
10.1201
4.41124
1.40001
1.40001
1.40001
1.40001
1.40001
1.40001
1.40001
1.40001
1.40001
1.40001
1.40001
1.40001
1.40001
1.40001
1.40001
1.40001
1.40001
1.40001
9.57196
3.42619
1.40001
1.40001
1.40001
1.40001
1.40001
1.40001
1.40001
1.40001
1.40001
1.40001
1.40001
1.40001
1.40001
1.40001
1.40001
1.40001
1.40001
1.40001
9.21085
2.61761
1.40001
1.40001
1.40001
1.40001
1.40001
1.40001
1.40001
1.40001
1.40001
1.40001
1.40001
1.40001
1.40001
1.40001
1.40001
1.40001
1.40001
1.40001
8.75976
1.92627
1.40001
1.40001
1.40001
1.40001
1.40001
1.40001
1.40001
1.40001
1.40001
1.40001
1.40001
1.40001
1.40001
1.40001
1.40001
1.40001
1.40001
1.40001
7.98159
1.40901
1.40001
1.40001
1.40001
1.40001
1.40001
1.40001
1.40001
1.40001
1.40001
1.40001
1.40001
1.40001
1.40001
1.40001
1.40001
1.40001
1.40001
1.40001
6.43211
1.40011
1.40001
1.40001
1.40001
1.40001
1.40001
1.40001
1.40001
1.40001
1.40001
1.40001
1.40001
1.40001
1.40001
1.40001
1.40001
1.40001
1.40001
1.40001
6.44278
1.4001
1.40001
1.40001
1.40001
1.40001
1.40001
1.40001
1.40001
1.40001
1.40001
1.40001
1.40001
1.40001
1.40001
1.40001
1.40001
1.40001
1.40001
1.40001
7.92996
1.40863
1.40001
1.40001
1.40001
1.40001
1.40001
1.40001
1.40001
1.40001
1.40001
1.40001
1.40001
1.40001
1.40001
1.40001
1.40001
1.40001
1.40001
1.40001
8.78896
1.92082
1.40001
1.40001
1.40001
1.40001
1.40001
1.40001
1.40001
1.40001
1.40001
1.40001
1.40001
1.40001
1.40001
1.40001
1.40001
1.40001
1.40001
1.40001
9.23214
2.63838
1.40001
1.40001
1.40001
1.40001
1.40001
1.40001
1.40001
1.40001
1.40001
1.40001
1.40001
1.40001
1.40001
1.40001
1.40001
1.40001
1.40001
1.40001
9.56245
3.44216
1.40001
1.40001
1.40001
1.40001
1.40001
1.40001
1.40001
1.40001
1.40001
1.40001
1.40001
1.40001
1.40001
1.40001
1.40001
1.40001
1.40001
1.40001
10.1051
4.4048
1.40001
1.40001
1.40001
1.40001
1.40001
1.40001
1.40001
1.40001
1.40001
1.40001
1.40001
1.40001
1.40001
1.40001
1.40001
1.40001
1.40001
1.40001
10.246
5.60414
1.42707
1.40001
1.40001
1.40001
1.40001
1.40001
1.40001
1.40001
1.40001
1.40001
1.40001
1.40001
1.40001
1.40001
1.40001
1.40001
1.40001
1.40001
10.3904
6.66657
1.66654
1.40001
1.40001
1.40001
1.40001
1.40001
1.40001
1.40001
1.40001
1.40001
1.40001
1.40001
1.40001
1.40001
1.40001
1.40001
1.40001
1.40001
10.3236
7.44831
2.27363
1.40001
1.40001
1.40001
1.40001
1.40001
1.40001
1.40001
1.40001
1.40001
1.40001
1.40001
1.40001
1.40001
1.40001
1.40001
1.40001
1.40001
10.2327
8.28996
3.19743
1.40001
1.40001
1.40001
1.40001
1.40001
1.40001
1.40001
1.40001
1.40001
1.40001
1.40001
1.40001
1.40001
1.40001
1.40001
1.40001
1.40001
10.045
8.8745
4.79158
1.38282
1.40001
1.40001
1.40001
1.40001
1.40001
1.40001
1.40001
1.40001
1.40001
1.40001
1.40001
1.40001
1.40001
1.40001
1.40001
1.40001
9.66969
9.2048
6.77172
1.70052
1.4
1.40001
1.40001
1.40001
1.40001
1.40001
1.40001
1.40001
1.40001
1.40001
1.40001
1.40001
1.40001
1.40001
1.40001
1.40001
9.03922
9.24287
8.39229
2.82266
1.4
1.40001
1.40001
1.40001
1.40001
1.40001
1.40001
1.40001
1.40001
1.40001
1.40001
1.40001
1.40001
1.40001
1.40001
1.40001
8.90603
9.41688
9.35108
4.95454
1.36351
1.40001
1.40001
1.40001
1.40001
1.40001
1.40001
1.40001
1.40001
1.40001
1.40001
1.40001
1.40001
1.40001
1.40001
1.40001
8.9519
9.35966
9.33522
6.82223
2.06409
1.40001
1.40001
1.40001
1.40001
1.40001
1.40001
1.40001
1.40001
1.40001
1.40001
1.40001
1.40001
1.40001
1.40001
1.40001
9.04015
9.35322
9.39499
8.50938
3.69998
1.3665
1.4005
1.4
1.40001
1.40001
1.40001
1.40001
1.40001
1.40001
1.40001
1.40001
1.40001
1.40001
1.40001
1.40001
9.2316
9.42845
9.45703
9.22731
6.48696
1.98793
1.39119
1.40017
1.4
1.40001
1.40001
1.40001
1.40001
1.40001
1.40001
1.40001
1.40001
1.40001
1.40001
1.40001
9.4467
9.50514
9.46635
9.24492
8.71391
4.7199
1.45126
1.39894
1.40001
1.40001
1.40001
1.40001
1.40001
1.40001
1.40001
1.40001
1.40001
1.40001
1.40001
1.40001
9.65343
9.53063
9.39624
9.32487
9.50411
8.05198
3.73352
1.43852
1.40001
1.40001
1.40001
1.40001
1.40001
1.40001
1.40001
1.40001
1.40001
1.40001
1.40001
1.40001
9.653
9.56934
9.49848
9.61999
9.79104
9.36835
8.32929
3.26589
0.900981
1.40001
1.40001
1.40001
1.40001
1.40001
1.40001
1.40001
1.40001
1.40001
1.40001
1.40001
3.22625
5.05876
6.76113
7.904
8.76208
8.8976
9.06711
8.63138
6.30182
4.46995
3.30588
2.18071
1.50972
1.38238
1.39009
1.39484
1.39884
1.39997
1.40003
1.40002
0.421973
1.19924
2.7798
4.42126
5.83654
6.72784
7.51016
8.14091
7.94625
7.33828
6.74999
5.99671
4.71432
3.23334
1.98784
1.4399
1.38526
1.393
1.39631
1.39924
0.0504414
0.22401
0.709202
1.69988
3.01136
4.01363
4.87739
5.82645
6.63778
6.70261
6.57664
6.57671
6.51377
6.27851
5.57432
4.25748
2.91514
1.86173
1.42495
1.39025
0.00918927
0.0392093
0.151211
0.510065
1.192
2.06499
2.86092
3.66265
4.46061
4.97565
5.28099
5.58896
5.86179
6.08141
6.22317
6.12052
5.82029
5.07406
3.87743
2.62381
0.0169374
0.0456144
0.100714
0.144751
0.379107
0.909729
1.45191
2.03672
2.70436
3.2553
3.65397
4.0114
4.36909
4.77397
5.22735
5.50739
5.67464
5.73769
5.60982
5.43584
0.0276176
0.0514954
0.0885536
0.143397
0.263432
0.39138
0.688759
1.04976
1.51283
1.95146
2.31896
2.65067
2.97268
3.31315
3.74412
4.14386
4.52527
4.88329
5.1088
5.27125
0.0273514
0.0463296
0.0759111
0.139535
0.24022
0.335577
0.520458
0.745889
1.02539
1.35254
1.61297
1.86449
2.09942
2.33215
2.61698
2.93536
3.25083
3.59771
3.91086
4.1731
0.0235677
0.0411257
0.0602715
0.107508
0.198421
0.28736
0.401366
0.570741
0.769023
0.983621
1.157
1.31964
1.47804
1.62899
1.8012
2.02882
2.30051
2.56446
2.94015
2.92203
0.0220144
0.0357509
0.0511946
0.0714385
0.1359
0.209376
0.260327
0.361074
0.48643
0.601424
0.722233
0.845871
0.987478
1.12241
1.28017
1.48362
1.69968
1.88724
2.1676
2.09207
0.0247685
0.0372907
0.0511729
0.0610436
0.0937412
0.151637
0.160244
0.20182
0.268188
0.349588
0.471293
0.593821
0.74027
0.857264
0.989851
1.12579
1.25873
1.37029
1.59401
1.55784
0.0325027
0.043281
0.0532457
0.0584294
0.0797874
0.120676
0.132984
0.164947
0.242608
0.337569
0.425323
0.502988
0.599879
0.678258
0.75328
0.82783
0.898323
0.981969
1.11252
1.32708
0.0467623
0.0483264
0.0523608
0.0551011
0.0798534
0.114718
0.135941
0.172833
0.245223
0.312964
0.364713
0.40857
0.451519
0.498897
0.529681
0.571379
0.621179
0.722151
0.826894
1.03863
0.0667729
0.0548214
0.0482
0.0527757
0.0779829
0.110858
0.136827
0.168099
0.215354
0.257293
0.262269
0.279435
0.294002
0.326312
0.368816
0.427408
0.496974
0.583192
0.655465
0.787295
0.0885359
0.0674697
0.0485797
0.051309
0.0700207
0.0975014
0.121222
0.139078
0.156236
0.173972
0.176603
0.191855
0.230704
0.27903
0.322571
0.372411
0.423481
0.47289
0.509781
0.566731
0.105662
0.0916334
0.0597624
0.0507547
0.0573326
0.0715777
0.0908158
0.104141
0.115952
0.133494
0.16071
0.189038
0.226471
0.262408
0.291594
0.320779
0.3408
0.358934
0.36125
0.390498
0.120263
0.108292
0.0860938
0.0568223
0.0566091
0.0619749
0.0746754
0.0952313
0.112014
0.134604
0.167031
0.188616
0.211177
0.22853
0.241315
0.246857
0.238679
0.239439
0.245636
0.290696
0.15068
0.125696
0.104682
0.0692633
0.0582949
0.0637627
0.0751065
0.0986829
0.1168
0.13642
0.161562
0.169114
0.175476
0.176985
0.177475
0.178296
0.180552
0.192665
0.213049
0.251959
0.174358
0.135417
0.114824
0.0825883
0.0647592
0.0689356
0.0769952
0.0958817
0.113367
0.117002
0.118419
0.117176
0.115679
0.116268
0.119069
0.129072
0.144619
0.160595
0.175775
0.190579
0.185151
0.16038
0.170857
0.169254
0.175823
0.192065
0.209913
0.231876
0.24582
0.234105
0.22256
0.22716
0.233779
0.238819
0.229802
0.229569
0.236644
0.243505
0.256351
0.264299
0.273449
0.376596
0.449694
0.524758
0.536726
0.55571
0.551979
0.553522
0.562004
0.55254
0.571468
0.626378
0.649923
0.669485
0.673606
0.682395
0.703362
0.700469
0.718918
0.725723
0.769659
0.888279
0.987677
1.11595
1.12458
1.15929
1.17314
1.21904
1.2605
1.27089
1.27158
1.27045
1.27212
1.28368
1.29812
1.28982
1.26186
1.21592
1.17278
1.16478
0.406745
0.558472
0.745055
0.947055
1.04554
1.13245
1.16207
1.20425
1.2556
1.28561
1.29381
1.29247
1.27752
1.27393
1.27815
1.27603
1.26168
1.23414
1.19945
1.17152
0.197158
0.216451
0.321231
0.472722
0.740317
0.956276
1.05947
1.1565
1.23405
1.28411
1.2966
1.29973
1.29364
1.27411
1.25738
1.2448
1.23901
1.23089
1.21556
1.19187
0.271866
0.299468
0.33571
0.339442
0.367289
0.475483
0.751942
1.00058
1.13394
1.23495
1.306
1.31105
1.30795
1.28991
1.25366
1.22872
1.22257
1.22943
1.22169
1.19973
0.335635
0.368454
0.37799
0.409322
0.421696
0.411153
0.43866
0.562224
0.810078
1.06223
1.24442
1.30025
1.32413
1.31048
1.26232
1.2199
1.21615
1.22395
1.22326
1.19833
0.426812
0.451792
0.464367
0.478258
0.477693
0.473916
0.47681
0.463108
0.490137
0.652784
0.957696
1.23178
1.31367
1.30937
1.28065
1.22612
1.21316
1.21878
1.21843
1.19273
0.558361
0.552987
0.541548
0.54392
0.548878
0.545559
0.537036
0.522928
0.499214
0.504538
0.612418
0.914807
1.21332
1.30779
1.28357
1.2476
1.21765
1.21237
1.21188
1.18888
0.738202
0.698497
0.637987
0.592548
0.595423
0.603694
0.602139
0.58457
0.558899
0.526306
0.529654
0.60941
0.883831
1.1797
1.26884
1.255
1.21821
1.2048
1.20318
1.1878
0.959374
0.864769
0.754428
0.667906
0.656199
0.670492
0.674159
0.657191
0.6182
0.582537
0.550428
0.557416
0.619046
0.8821
1.15165
1.24486
1.20605
1.17879
1.19295
1.18802
1.21337
1.07964
0.906264
0.776997
0.740468
0.735372
0.734677
0.713086
0.686517
0.636499
0.604355
0.586952
0.595326
0.652017
0.869287
1.12947
1.1449
1.1522
1.18784
1.19263
1.72645
1.37453
1.16427
0.952884
0.813675
0.792042
0.816006
0.821574
0.801255
0.751623
0.681989
0.650297
0.647876
0.658
0.680228
0.770429
0.938263
1.07086
1.15747
1.17465
2.83151
2.04314
1.65896
1.43922
1.15995
0.964093
0.943823
0.934321
0.895797
0.836935
0.768033
0.733442
0.730402
0.71009
0.69093
0.682666
0.692675
0.750925
0.87803
1.06383
3.49204
3.01998
2.35308
1.90953
1.58772
1.30507
1.1113
1.00851
0.977134
0.967753
0.930651
0.879228
0.844599
0.810491
0.761326
0.733211
0.718659
0.691586
0.69553
0.831786
3.29754
3.2696
3.11861
2.66301
2.17848
1.81831
1.53723
1.27222
1.19162
1.16255
1.0939
1.00197
0.91572
0.862979
0.829035
0.809587
0.784979
0.757714
0.722907
0.700278
2.3489
2.98227
3.09947
3.05702
2.87507
2.49695
2.08626
1.73499
1.48873
1.31402
1.21179
1.12677
1.05504
0.987715
0.964689
0.934681
0.887162
0.842115
0.79258
0.723591
1.55141
2.0066
2.58004
2.94882
2.94784
2.89665
2.68666
2.35906
2.01084
1.68513
1.50397
1.37822
1.28594
1.20501
1.1216
1.02543
0.948927
0.898452
0.856215
0.78687
1.4063
1.46164
1.68763
2.16325
2.60586
2.82191
2.80946
2.74897
2.55868
2.26305
1.95656
1.70629
1.48587
1.36935
1.25705
1.13807
1.0519
0.993024
0.957604
0.896333
1.40013
1.40155
1.41487
1.50964
1.77527
2.19889
2.54394
2.70358
2.69416
2.63574
2.46536
2.21366
1.92746
1.70333
1.52546
1.39247
1.31231
1.20158
1.07975
0.973327
1.40001
1.40002
1.40021
1.40353
1.4261
1.54146
1.80689
2.17566
2.47166
2.59472
2.58494
2.5348
2.40633
2.16684
1.91907
1.70913
1.52459
1.37369
1.24841
1.07519
1.40001
1.40001
1.40001
1.40004
1.40045
1.40553
1.43495
1.55067
1.79708
2.12871
2.3775
2.49888
2.49472
2.45353
2.34322
2.1479
1.89258
1.67434
1.54489
1.32574
1.40001
1.40001
1.40001
1.40001
1.40001
1.40007
1.4007
1.40662
1.43622
1.54737
1.76975
2.05944
2.29433
2.41065
2.40438
2.36495
2.27017
2.09792
1.9002
1.59781
1.40001
1.40001
1.40001
1.40001
1.40001
1.40001
1.40001
1.40009
1.4008
1.4067
1.43542
1.53172
1.72412
1.99093
2.20577
2.3104
2.2935
2.24915
2.17162
1.9512
1.40001
1.40001
1.40001
1.40001
1.40001
1.40001
1.40001
1.40001
1.40001
1.40009
1.40082
1.40592
1.43028
1.51185
1.68197
1.90934
2.0885
2.17673
2.16214
2.07708
1.40001
1.40001
1.40001
1.40001
1.40001
1.40001
1.40001
1.40001
1.40001
1.40001
1.40001
1.40008
1.40071
1.40481
1.42537
1.48944
1.61874
1.79062
1.93611
1.99421
1.40001
1.40001
1.40001
1.40001
1.40001
1.40001
1.40001
1.40001
1.40001
1.40001
1.40001
1.40001
1.40001
1.40007
1.40059
1.40355
1.41793
1.45822
1.54484
1.72088
2.25495
3.42074
3.59331
2.91132
1.83385
1.45161
1.40261
1.40007
1.40001
1.40001
1.40001
1.40001
1.40001
1.40001
1.40001
3.25075
3.91036
3.52069
2.15768
1.46823
1.40116
1.40001
1.4
1.40001
1.40001
1.40001
1.40001
1.40001
1.40001
1.40001
4.07196
3.98707
2.76589
1.61408
1.40736
1.40008
1.40001
1.40001
1.40001
1.40001
1.40001
1.40001
1.40001
1.40001
1.40001
4.51836
3.56244
1.90823
1.42705
1.40027
1.40001
1.40001
1.40001
1.40001
1.40001
1.40001
1.40001
1.40001
1.40001
1.40001
4.62251
2.3485
1.46578
1.40074
1.40001
1.4
1.40001
1.40001
1.40001
1.40001
1.40001
1.40001
1.40001
1.40001
1.40001
2.87967
1.5014
1.40066
1.4
1.4
1.4
1.40001
1.40001
1.40001
1.40001
1.40001
1.40001
1.40001
1.40001
1.40001
1.53951
1.40075
1.4
1.4
1.40001
1.40001
1.40001
1.40001
1.40001
1.40001
1.40001
1.40001
1.40001
1.40001
1.40001
1.39745
1.39982
1.4
1.4
1.40001
1.40001
1.40001
1.40001
1.40001
1.40001
1.40001
1.40001
1.40001
1.40001
1.40001
1.39996
1.40001
1.40001
1.40001
1.40001
1.40001
1.40001
1.40001
1.40001
1.40001
1.40001
1.40001
1.40001
1.40001
1.40001
1.40001
1.40001
1.40001
1.40001
1.40001
1.40001
1.40001
1.40001
1.40001
1.40001
1.40001
1.40001
1.40001
1.40001
1.40001
1.40001
1.40001
1.40001
1.40001
1.40001
1.40001
1.40001
1.40001
1.40001
1.40001
1.40001
1.40001
1.40001
1.40001
1.40001
1.40001
1.40001
1.40001
1.40001
1.40001
1.40001
1.40001
1.40001
1.40001
1.40001
1.40001
1.40001
1.40001
1.40001
1.40001
1.40001
1.40001
1.40001
1.40001
1.40001
1.40001
1.40001
1.40001
1.40001
1.40001
1.40001
1.40001
1.40001
1.40001
1.40001
1.40001
1.40001
1.40001
1.40001
1.40001
1.40001
1.40001
1.40001
1.40001
1.40001
1.40001
1.40001
1.40001
1.40001
1.40001
1.40001
1.40001
1.40001
1.40001
1.40001
1.40001
1.40001
1.40001
1.40001
1.40001
1.40001
1.40001
1.40001
1.40001
1.40001
1.40001
1.40001
1.40001
1.40001
1.40001
1.40001
1.40001
1.40001
1.40001
1.40001
1.40001
1.40001
1.40001
1.40001
1.40001
1.40001
1.40001
1.40001
1.40001
1.40001
1.40001
1.40001
1.40001
1.40001
1.40001
1.40001
1.40001
1.40001
1.40001
1.40001
1.40001
1.40001
1.40001
1.40001
1.40001
1.40001
1.40001
1.40001
1.40001
1.40001
1.40001
1.40001
1.40001
1.40001
1.40001
1.40001
1.40001
1.40001
1.40001
1.40001
1.40001
1.40001
1.40001
1.40001
1.40001
1.40001
1.40001
1.40001
1.40001
1.40001
1.40001
1.40001
1.40001
1.40001
1.40001
1.40001
1.40001
1.40001
1.40001
1.40001
1.40001
1.40001
1.40001
1.40001
1.40001
1.40001
1.40001
1.40001
1.40001
1.40001
1.40001
1.40001
1.40001
1.40001
1.40001
1.40001
1.40001
1.40001
1.40001
1.40001
1.40001
1.40001
1.40001
1.40001
1.40001
1.40001
1.40001
1.40001
1.40001
1.40001
1.40001
1.40001
1.40001
1.40001
1.40001
1.40001
1.40001
1.40001
1.40001
1.40001
1.40001
1.40001
1.40001
1.40001
1.40001
1.40001
1.40001
1.40001
1.40001
1.40001
1.40001
1.40001
1.40001
1.40001
1.40001
1.40001
1.40001
1.40001
1.40001
1.40001
1.40001
1.40001
1.40001
1.40001
1.40001
1.40001
1.40001
1.40001
1.40001
1.40001
1.40001
1.40001
1.40001
1.40001
1.40001
1.40001
1.40001
1.40001
1.40001
1.40001
1.40001
1.40001
1.40001
1.40001
1.40001
1.40001
1.40001
1.40001
1.40001
1.40001
1.40001
1.40001
1.40001
1.40001
1.40001
1.40001
1.40001
1.40001
1.40001
1.40001
1.40001
1.40001
1.40001
1.40001
1.40001
1.40001
1.40001
1.40001
1.40001
1.40001
1.40001
1.40001
1.40001
1.40001
1.40001
1.40001
1.40001
1.40001
1.40001
1.40001
1.40001
1.40001
1.40001
1.40001
1.40001
1.40001
1.40001
1.40001
1.40001
1.40001
1.40001
1.40001
1.40001
1.40001
1.40001
1.40001
1.40001
1.40001
1.40001
1.40001
1.40001
1.40001
1.40001
1.40001
1.40001
1.40001
1.40001
1.40001
1.40001
1.40001
1.40001
1.40001
1.40001
1.40001
1.40001
1.40001
1.40001
1.40001
1.40001
1.40001
1.40001
1.40001
1.40001
1.40001
1.40001
1.40001
1.40001
1.40001
1.40001
1.40001
1.40001
1.40001
1.40001
1.40001
1.40001
1.40001
1.40001
1.40001
1.40001
1.40001
1.40001
1.40001
1.40001
1.40001
1.40001
1.40001
1.40001
1.40001
1.40001
1.40001
1.40001
1.40001
1.40001
1.40001
1.40001
1.40001
1.40001
1.40001
1.40001
1.40001
1.40001
1.40001
1.40001
1.40001
1.40001
1.40001
1.40001
1.40001
1.40001
1.40001
1.40001
1.40001
1.40001
1.40001
1.40001
1.40001
1.40001
1.40001
1.40001
1.40001
1.40001
1.40001
1.40001
1.40001
1.40001
1.40001
1.40001
1.40001
1.40001
1.40001
1.40001
1.40001
1.40001
1.40001
1.40001
1.40001
1.40001
1.40001
1.40001
1.40001
1.40001
1.40001
1.40001
1.40001
1.40001
1.40001
1.40001
1.40001
1.40001
1.40001
1.40001
1.40001
1.40001
1.40001
1.40001
1.40001
1.40001
1.40001
1.40001
1.40001
1.40001
1.40001
1.40001
1.40001
1.40001
1.40001
1.40001
1.40001
1.40001
1.40001
1.40001
1.40001
1.40001
1.40001
1.40001
1.40001
1.40001
1.40001
1.40001
1.40001
1.40001
1.40001
1.40001
1.40001
1.40001
1.40001
1.40001
1.40001
1.40001
1.40001
1.40001
1.40001
1.40001
1.40001
1.40001
1.40001
1.40001
1.40001
1.40001
1.40001
1.40001
1.40001
1.40001
1.40001
1.40001
1.40001
1.40001
1.40001
1.40001
1.40001
1.40001
1.40001
1.40001
1.40001
1.40001
1.40001
1.40001
1.40001
1.40001
1.40001
1.40001
1.40001
1.40001
1.40001
1.40001
1.40001
1.40001
1.40001
1.40001
1.40001
1.40001
1.40001
1.40001
1.40001
1.40001
1.40001
1.40001
1.40001
1.40001
1.40001
1.40001
1.40001
1.40001
1.40001
1.40001
1.40001
1.40001
1.40001
1.40001
1.40001
1.40001
1.40001
1.40001
1.40001
1.40001
1.40001
1.40001
1.40001
1.40001
1.40001
1.40001
1.40001
1.40001
1.40001
1.40001
1.40001
1.40001
1.40001
1.40001
1.40001
1.40001
1.40001
1.40001
1.40001
1.40001
1.40001
1.40001
1.40001
1.40001
1.40001
1.40001
1.40001
1.40001
1.40001
1.40001
1.40001
1.40001
1.40001
1.40001
1.40001
1.40001
1.40001
1.40001
1.40001
1.40001
1.40001
1.40001
1.40001
1.40001
1.40001
1.40001
1.40001
1.40001
1.40001
1.40001
1.40001
1.40001
1.40001
1.40001
1.40001
1.40001
1.40001
1.40001
1.40001
1.40001
1.40001
1.40001
1.40001
1.40001
1.40001
1.40001
1.40001
1.40001
1.40001
1.40001
1.40001
1.40001
1.40001
1.40001
1.40001
1.40001
1.40001
1.40001
1.40001
1.40001
1.40001
1.40001
1.40001
1.40001
1.40001
1.40001
1.40001
1.40001
1.40001
1.40001
1.40001
1.40001
1.40001
1.40001
1.40001
1.40001
1.40001
1.40001
1.40001
1.40001
1.40001
1.40001
1.40001
1.40001
1.40001
1.40001
1.40001
1.40001
1.40001
1.40001
1.40001
1.40001
1.40001
1.40001
1.40001
1.40001
1.40001
1.40001
1.40001
1.40001
1.40001
1.40001
1.40001
1.40001
1.40001
1.40001
1.40001
1.40001
1.40001
1.40001
1.40001
1.40001
1.40001
1.40001
1.40001
1.40001
1.40001
1.40001
1.40001
1.40001
1.40001
1.40001
1.40001
1.40001
1.40001
1.40001
1.40001
1.40001
1.40001
1.40001
1.40001
1.40001
1.40001
1.40001
1.40001
1.40001
1.40001
1.40001
1.40001
1.40001
1.40001
1.40001
1.40001
1.40001
1.40001
1.40001
1.40001
1.40001
1.40001
1.40001
1.40001
1.40001
1.40001
1.40001
1.40001
1.40001
1.40001
1.40001
1.40001
1.40001
1.40001
1.40001
1.40001
1.40001
1.40001
1.40001
1.40001
1.40001
1.40001
1.40001
1.40001
1.40001
1.40001
1.40001
1.40001
1.40001
1.40001
1.40001
1.40001
1.40001
1.40001
1.40001
1.40001
1.40001
1.40001
1.40001
1.40001
1.40001
1.40001
1.40001
1.40001
1.40001
1.40001
1.40001
1.40001
1.40001
1.40001
1.40001
1.40001
1.40001
1.40001
1.40001
1.40001
1.40001
1.40001
1.40001
1.40001
1.40001
1.40001
1.40001
1.40001
1.40001
1.40001
1.40001
1.40001
1.40001
1.40001
1.40001
1.40001
1.40001
1.40001
1.40001
1.40001
1.40001
1.40001
1.40001
1.40001
1.40001
1.40001
1.40001
1.40001
1.40001
1.40001
1.40001
1.40001
1.40001
1.40001
1.40001
1.40001
1.40001
1.40001
1.40001
1.40001
1.40001
1.40001
1.40001
1.40001
1.40001
1.40001
1.40001
1.40001
1.40001
1.40001
1.40001
1.40001
1.40001
1.40001
1.40001
1.40001
1.40001
1.40001
1.40001
1.40001
1.40001
1.40001
1.40001
1.40001
1.40001
1.40001
1.40001
1.40001
1.40001
1.40001
1.40001
1.40001
1.40001
1.40001
1.40001
1.40001
1.40001
1.40001
1.40001
1.40001
1.40001
1.40001
1.40001
1.40001
1.40001
1.40001
1.40001
1.40001
1.40001
1.40001
1.40001
1.40001
1.39996
1.40001
1.40001
1.40001
1.40001
1.40001
1.40001
1.40001
1.40001
1.40001
1.40001
1.40001
1.40001
1.40001
1.40001
1.39745
1.39982
1.4
1.4
1.40001
1.40001
1.40001
1.40001
1.40001
1.40001
1.40001
1.40001
1.40001
1.40001
1.40001
1.53927
1.40075
1.4
1.4
1.40001
1.40001
1.40001
1.40001
1.40001
1.40001
1.40001
1.40001
1.40001
1.40001
1.40001
2.87949
1.50135
1.40066
1.4
1.4
1.4
1.40001
1.40001
1.40001
1.40001
1.40001
1.40001
1.40001
1.40001
1.40001
4.62342
2.34867
1.46577
1.40074
1.40001
1.4
1.40001
1.40001
1.40001
1.40001
1.40001
1.40001
1.40001
1.40001
1.40001
4.51936
3.56286
1.9084
1.42709
1.40027
1.40001
1.40001
1.40001
1.40001
1.40001
1.40001
1.40001
1.40001
1.40001
1.40001
4.07219
3.98702
2.76545
1.61398
1.40735
1.40008
1.40001
1.40001
1.40001
1.40001
1.40001
1.40001
1.40001
1.40001
1.40001
3.25163
3.91017
3.52076
2.15764
1.46822
1.40116
1.40001
1.4
1.40001
1.40001
1.40001
1.40001
1.40001
1.40001
1.40001
2.255
3.42116
3.59342
2.91154
1.83397
1.45164
1.40261
1.40007
1.40001
1.40001
1.40001
1.40001
1.40001
1.40001
1.40001
1.72865
2.83008
3.49218
3.29768
2.34919
1.55144
1.4063
1.40013
1.40001
1.40001
1.40001
1.40001
1.40001
1.40001
1.40001
1.3743
2.0439
3.02057
3.26958
2.98193
2.0065
1.46163
1.40155
1.40002
1.40001
1.40001
1.40001
1.40001
1.40001
1.40001
1.16267
1.66176
2.35149
3.11833
3.09941
2.57998
1.68759
1.41486
1.40021
1.40001
1.40001
1.40001
1.40001
1.40001
1.40001
0.951381
1.44078
1.9091
2.66317
3.057
2.94883
2.16324
1.50964
1.40353
1.40004
1.40001
1.40001
1.40001
1.40001
1.40001
0.812116
1.15857
1.58778
2.17733
2.87525
2.94789
2.60588
1.77528
1.42611
1.40045
1.40001
1.40001
1.40001
1.40001
1.40001
0.791159
0.964258
1.30821
1.81774
2.49656
2.89662
2.82194
2.19889
1.54145
1.40553
1.40007
1.40001
1.40001
1.40001
1.40001
0.818254
0.943992
1.1128
1.53752
2.0861
2.68683
2.80953
2.54407
1.80689
1.43495
1.4007
1.40001
1.40001
1.40001
1.40001
0.824328
0.933878
1.00741
1.27235
1.73496
2.35942
2.74899
2.70356
2.1757
1.55068
1.40662
1.40009
1.40001
1.40001
1.40001
0.803949
0.895231
0.976012
1.19282
1.48902
2.01068
2.55871
2.69408
2.47153
1.79709
1.43623
1.4008
1.40001
1.40001
1.40001
0.753032
0.836327
0.966831
1.16323
1.31435
1.68483
2.26292
2.63563
2.59466
2.12864
1.54736
1.40669
1.40009
1.40001
1.40001
0.682676
0.767347
0.929518
1.09334
1.21165
1.50484
1.95681
2.46533
2.58492
2.3775
1.7697
1.43542
1.40082
1.40001
1.40001
0.650895
0.733788
0.87892
1.00088
1.1261
1.37895
1.70645
2.2138
2.53487
2.49891
2.05945
1.53171
1.40592
1.40008
1.40001
0.648462
0.730784
0.844752
0.915118
1.05471
1.28596
1.48554
1.92765
2.40646
2.49476
2.29439
1.72417
1.43029
1.40071
1.40001
0.65707
0.711558
0.810496
0.862683
0.987795
1.20497
1.36902
1.70346
2.16686
2.45355
2.41065
1.99096
1.51187
1.40482
1.40007
0.67802
0.692245
0.761085
0.828429
0.964921
1.12183
1.25689
1.52539
1.91919
2.3431
2.40436
2.20577
1.68199
1.42538
1.40059
0.768561
0.683072
0.732965
0.808913
0.93509
1.02574
1.13776
1.39171
1.70901
2.14798
2.36499
2.31044
1.90937
1.48945
1.40355
0.93835
0.692822
0.719005
0.784256
0.887232
0.948997
1.05247
1.31216
1.52459
1.89308
2.27015
2.29355
2.08855
1.61875
1.41793
1.06932
0.751442
0.691948
0.757211
0.841678
0.898191
0.993878
1.20279
1.3734
1.67365
2.09804
2.24923
2.17681
1.79065
1.45822
1.15685
0.877315
0.695515
0.722771
0.792262
0.855875
0.957355
1.08046
1.24889
1.54461
1.90044
2.17174
2.16223
1.93615
1.54484
1.17432
1.06155
0.830793
0.700376
0.72373
0.786823
0.895603
0.972441
1.07554
1.3265
1.59802
1.95128
2.07713
1.99423
1.72087
1.21458
1.07614
0.906863
0.777723
0.74158
0.733879
0.728404
0.708511
0.685242
0.635808
0.604606
0.587438
0.595665
0.650918
0.865137
1.12712
1.14606
1.15149
1.18671
1.1927
0.95822
0.867524
0.753526
0.662934
0.655672
0.664453
0.666636
0.650827
0.614049
0.58154
0.550233
0.557535
0.619928
0.880788
1.14931
1.24531
1.20642
1.1797
1.19321
1.1895
0.740028
0.694872
0.636593
0.603811
0.605513
0.607218
0.601721
0.582211
0.557255
0.52674
0.530658
0.609591
0.883626
1.17983
1.27003
1.25583
1.21786
1.2045
1.20338
1.18984
0.557535
0.555298
0.536659
0.538104
0.543588
0.541398
0.535059
0.522533
0.501119
0.505884
0.611956
0.911078
1.21004
1.30839
1.28562
1.25009
1.21717
1.21088
1.21088
1.19008
0.425241
0.451186
0.469532
0.480712
0.478115
0.474143