/*--------------------------------*- C++ -*----------------------------------*\
  =========                 |
  \\      /  F ield         | OpenFOAM: The Open Source CFD Toolbox
   \\    /   O peration     | Website:  https://openfoam.org
    \\  /    A nd           | Version:  7
     \\/     M anipulation  |
\*---------------------------------------------------------------------------*/
FoamFile
{
    version     2.0;
    format      ascii;
    class       volScalarField;
    location    "3.2";
    object      T;
}
// * * * * * * * * * * * * * * * * * * * * * * * * * * * * * * * * * * * * * //

dimensions      [0 0 0 1 0 0 0];

internalField   nonuniform List<scalar> 
3700
(
100.669
100.817
100.913
100.926
100.921
100.901
100.89
100.923
101.024
101.143
101.189
101.188
101.172
101.152
101.143
101.136
101.127
101.118
101.109
101.096
100.292
100.255
100.237
100.131
100.027
99.9845
100.05
100.19
100.357
100.561
100.696
100.701
100.632
100.555
100.557
100.55
100.526
100.523
100.531
100.514
100.291
100.23
100.136
100.009
99.9055
99.9251
99.9751
100.031
100.058
100.055
100.033
100.008
99.977
99.96
99.9633
99.99
100.018
100.038
100.049
100.05
100.278
100.2
100.092
99.9293
99.841
99.879
99.9489
100.026
100.063
100.088
100.107
100.099
100.087
100.063
100.033
100.017
100.014
100.033
100.059
100.091
100.232
100.14
100.026
99.8552
99.8131
99.864
99.929
99.9847
100.021
100.073
100.114
100.121
100.134
100.139
100.13
100.116
100.085
100.063
100.06
100.102
100.153
100.076
99.9276
99.8224
99.8065
99.8709
99.9288
99.9746
100.007
100.048
100.078
100.107
100.139
100.162
100.171
100.175
100.175
100.17
100.157
100.162
100.035
99.981
99.8733
99.8409
99.8634
99.9675
100.008
100.017
100.029
100.059
100.071
100.092
100.124
100.155
100.18
100.203
100.224
100.235
100.238
100.254
99.9383
99.9134
99.8835
99.8779
99.9551
100.052
100.082
100.106
100.133
100.152
100.139
100.143
100.143
100.156
100.18
100.214
100.247
100.279
100.294
100.329
99.8488
99.8986
99.9272
99.927
100.027
100.109
100.108
100.14
100.199
100.222
100.24
100.245
100.256
100.262
100.265
100.271
100.283
100.315
100.342
100.391
99.7731
99.9007
99.9682
99.9865
100.097
100.171
100.124
100.145
100.216
100.256
100.285
100.303
100.33
100.338
100.35
100.361
100.373
100.388
100.41
100.449
99.7313
99.8995
99.9795
100.014
100.131
100.2
100.173
100.207
100.247
100.27
100.304
100.334
100.371
100.388
100.409
100.43
100.449
100.466
100.502
100.493
99.7265
99.8946
99.9442
100.008
100.16
100.218
100.241
100.302
100.348
100.383
100.397
100.41
100.425
100.438
100.458
100.487
100.518
100.543
100.581
100.57
99.8182
99.8646
99.9115
100.058
100.199
100.273
100.328
100.39
100.439
100.479
100.494
100.51
100.519
100.528
100.54
100.561
100.59
100.619
100.657
100.656
99.8781
99.8177
99.909
100.112
100.225
100.303
100.386
100.447
100.502
100.545
100.562
100.58
100.595
100.611
100.635
100.661
100.686
100.709
100.726
100.735
99.8821
99.8979
99.9457
100.119
100.238
100.326
100.438
100.512
100.578
100.61
100.63
100.648
100.669
100.694
100.726
100.752
100.772
100.784
100.78
100.776
99.6946
99.9498
100.006
100.131
100.317
100.539
100.612
100.661
100.7
100.719
100.732
100.748
100.768
100.792
100.812
100.823
100.82
100.814
100.789
100.744
99.3005
99.8358
100.119
100.422
100.61
100.7
100.743
100.776
100.798
100.81
100.82
100.836
100.852
100.857
100.855
100.844
100.792
100.678
100.514
100.274
99.5686
100.142
100.474
100.669
100.777
100.812
100.838
100.86
100.875
100.88
100.88
100.882
100.882
100.858
100.772
100.622
100.359
100.101
100.006
99.9979
100.126
100.518
100.741
100.838
100.886
100.906
100.923
100.922
100.917
100.906
100.892
100.838
100.726
100.47
100.147
100.01
99.9967
99.9985
99.9992
99.9998
100.695
100.836
100.911
100.947
100.965
100.957
100.954
100.93
100.84
100.758
100.572
100.231
100.029
99.9957
99.9977
99.9989
99.9998
100
100
100
100.997
100.994
100.99
100.99
100.984
100.952
100.882
100.457
99.8428
100
100
100
100
100
100
100
100
100
100
100
100.997
100.993
100.985
100.973
100.958
100.869
100.511
100.019
100
100
100
100
100
100
100
100
100
100
100
100
100.992
100.992
100.987
100.963
100.91
100.627
100.034
99.9994
100
100
100
100
100
100
100
100
100
100
100
100
100.986
100.991
100.986
100.953
100.78
100.233
99.9965
100
100
100
100
100
100
100
100
100
100
100
100
100
100.98
100.988
100.984
100.924
100.559
99.9922
100
100
100
100
100
100
100
100
100
100
100
100
100
100
100.977
100.987
100.981
100.835
100.283
100
100
100
100
100
100
100
100
100
100
100
100
100
100
100
100.975
100.988
100.977
100.7
99.9928
100
100
100
100
100
100
100
100
100
100
100
100
100
100
100
100.98
100.975
100.919
100.463
99.9999
100
100
100
100
100
100
100
100
100
100
100
100
100
100
100
101.002
100.964
100.819
100.155
100
100
100
100
100
100
100
100
100
100
100
100
100
100
100
100
101.016
100.942
100.676
99.9964
100
100
100
100
100
100
100
100
100
100
100
100
100
100
100
100
101.025
100.904
100.501
100
100
100
100
100
100
100
100
100
100
100
100
100
100
100
100
100
101.03
100.855
100.326
100
100
100
100
100
100
100
100
100
100
100
100
100
100
100
100
100
101.034
100.808
100.129
100
100
100
100
100
100
100
100
100
100
100
100
100
100
100
100
100
101.026
100.745
100.013
100
100
100
100
100
100
100
100
100
100
100
100
100
100
100
100
100
101.008
100.659
100
100
100
100
100
100
100
100
100
100
100
100
100
100
100
100
100
100
100.98
100.555
100
100
100
100
100
100
100
100
100
100
100
100
100
100
100
100
100
100
100.953
100.431
100
100
100
100
100
100
100
100
100
100
100
100
100
100
100
100
100
100
100.916
100.245
100
100
100
100
100
100
100
100
100
100
100
100
100
100
100
100
100
100
100.864
100.005
100
100
100
100
100
100
100
100
100
100
100
100
100
100
100
100
100
100
100.807
100
100
100
100
100
100
100
100
100
100
100
100
100
100
100
100
100
100
100
100.808
100
100
100
100
100
100
100
100
100
100
100
100
100
100
100
100
100
100
100
100.86
100.005
100
100
100
100
100
100
100
100
100
100
100
100
100
100
100
100
100
100
100.915
100.242
100
100
100
100
100
100
100
100
100
100
100
100
100
100
100
100
100
100
100.956
100.437
100
100
100
100
100
100
100
100
100
100
100
100
100
100
100
100
100
100
100.981
100.558
100
100
100
100
100
100
100
100
100
100
100
100
100
100
100
100
100
100
101.007
100.657
100
100
100
100
100
100
100
100
100
100
100
100
100
100
100
100
100
100
101.025
100.743
100.012
100
100
100
100
100
100
100
100
100
100
100
100
100
100
100
100
100
101.034
100.808
100.128
100
100
100
100
100
100
100
100
100
100
100
100
100
100
100
100
100
101.031
100.856
100.326
100
100
100
100
100
100
100
100
100
100
100
100
100
100
100
100
100
101.025
100.904
100.502
100
100
100
100
100
100
100
100
100
100
100
100
100
100
100
100
100
101.016
100.942
100.676
99.9964
100
100
100
100
100
100
100
100
100
100
100
100
100
100
100
100
101.002
100.964
100.819
100.156
100
100
100
100
100
100
100
100
100
100
100
100
100
100
100
100
100.979
100.974
100.918
100.464
99.9999
100
100
100
100
100
100
100
100
100
100
100
100
100
100
100
100.975
100.988
100.976
100.7
99.9927
100
100
100
100
100
100
100
100
100
100
100
100
100
100
100
100.977
100.988
100.981
100.834
100.281
100
100
100
100
100
100
100
100
100
100
100
100
100
100
100
100.98
100.988
100.984
100.923
100.557
99.9922
100
100
100
100
100
100
100
100
100
100
100
100
100
100
100.987
100.991
100.986
100.954
100.779
100.232
99.9965
100
100
100
100
100
100
100
100
100
100
100
100
100
100.992
100.993
100.987
100.964
100.91
100.627
100.033
99.9994
100
100
100
100
100
100
100
100
100
100
100
100
100.997
100.993
100.986
100.973
100.958
100.867
100.51
100.019
100
100
100
100
100
100
100
100
100
100
100
100
100.997
100.994
100.99
100.989
100.984
100.951
100.882
100.457
99.8433
100
100
100
100
100
100
100
100
100
100
100
100.695
100.836
100.911
100.947
100.964
100.956
100.954
100.93
100.841
100.759
100.574
100.233
100.03
99.9957
99.9977
99.9989
99.9998
100
100
100
100.122
100.523
100.741
100.837
100.885
100.906
100.923
100.922
100.917
100.906
100.892
100.839
100.726
100.471
100.147
100.01
99.9967
99.9985
99.9992
99.9998
99.5281
100.119
100.479
100.672
100.777
100.812
100.838
100.86
100.875
100.88
100.88
100.882
100.881
100.858
100.772
100.622
100.358
100.101
100.005
99.9979
99.3462
99.7837
100.094
100.424
100.614
100.7
100.742
100.776
100.797
100.809
100.82
100.836
100.852
100.857
100.855
100.844
100.792
100.677
100.514
100.274
99.7226
99.9055
99.9548
100.114
100.327
100.545
100.614
100.663
100.702
100.72
100.732
100.748
100.768
100.792
100.812
100.822
100.82
100.814
100.789
100.744
99.8502
99.8815
99.9513
100.121
100.235
100.333
100.443
100.513
100.578
100.61
100.629
100.648
100.668
100.694
100.726
100.752
100.772
100.784
100.78
100.776
99.837
99.8721
99.9454
100.122
100.231
100.302
100.387
100.447
100.5
100.543
100.561
100.579
100.594
100.611
100.635
100.661
100.686
100.709
100.726
100.735
99.7372
99.905
99.9429
100.08
100.209
100.272
100.327
100.39
100.438
100.478
100.494
100.51
100.52
100.529
100.541
100.562
100.59
100.619
100.657
100.656
99.6334
99.8702
99.9573
100.028
100.173
100.219
100.24
100.301
100.347
100.384
100.399
100.413
100.427
100.439
100.459
100.487
100.518
100.542
100.581
100.57
99.6365
99.8361
99.9533
100.018
100.143
100.198
100.171
100.208
100.253
100.275
100.306
100.336
100.372
100.389
100.41
100.43
100.449
100.466
100.502
100.492
99.685
99.8315
99.9253
99.9769
100.107
100.168
100.125
100.145
100.218
100.26
100.288
100.305
100.332
100.34
100.352
100.362
100.373
100.388
100.409
100.449
99.7796
99.8321
99.8759
99.9094
100.038
100.107
100.105
100.142
100.202
100.228
100.244
100.249
100.26
100.265
100.267
100.272
100.282
100.314
100.341
100.39
99.8893
99.8564
99.8228
99.857
99.9727
100.052
100.085
100.114
100.142
100.16
100.147
100.15
100.147
100.156
100.178
100.21
100.245
100.277
100.293
100.329
99.9801
99.9153
99.8217
99.8192
99.8884
99.9731
100.016
100.03
100.039
100.065
100.074
100.091
100.121
100.151
100.176
100.2
100.222
100.234
100.238
100.256
100.052
100.012
99.885
99.8163
99.8386
99.8806
99.9358
99.9843
100.013
100.051
100.08
100.105
100.135
100.158
100.168
100.175
100.175
100.171
100.158
100.163
100.144
100.105
100.016
99.8617
99.8457
99.876
99.9353
99.9964
100.026
100.074
100.113
100.118
100.131
100.137
100.13
100.117
100.086
100.063
100.059
100.1
100.292
100.209
100.108
99.9484
99.8756
99.8994
99.9564
100.038
100.066
100.088
100.104
100.097
100.087
100.067
100.039
100.016
100.009
100.027
100.055
100.089
100.344
100.237
100.146
100.017
99.9314
99.948
99.9879
100.04
100.061
100.05
100.028
100.005
99.9788
99.9629
99.9627
99.984
100.011
100.031
100.042
100.046
100.348
100.327
100.39
100.482
100.581
100.671
100.711
100.707
100.681
100.628
100.571
100.574
100.61
100.614
100.555
100.468
100.422
100.365
100.354
100.347
100.722
100.846
100.94
101.019
101.021
101.03
101.028
101.043
101.086
101.132
101.162
101.176
101.173
101.164
101.146
101.118
101.092
101.064
101.048
101.046
101.06
101.023
101.001
100.991
100.966
100.937
100.906
100.896
100.89
100.878
100.866
100.855
100.844
100.839
100.835
100.823
100.801
100.772
100.758
100.745
100.587
100.616
100.676
100.73
100.778
100.794
100.794
100.796
100.803
100.808
100.807
100.803
100.796
100.792
100.787
100.776
100.758
100.738
100.732
100.725
100.033
100.042
100.163
100.281
100.435
100.514
100.571
100.61
100.634
100.663
100.683
100.686
100.689
100.689
100.685
100.676
100.664
100.656
100.658
100.671
100.087
100.094
100.105
100.098
100.125
100.211
100.361
100.442
100.478
100.524
100.565
100.573
100.578
100.58
100.576
100.569
100.562
100.561
100.565
100.59
100.131
100.139
100.129
100.137
100.137
100.133
100.161
100.243
100.343
100.422
100.478
100.505
100.514
100.512
100.503
100.492
100.489
100.489
100.492
100.514
100.18
100.18
100.176
100.177
100.175
100.176
100.177
100.167
100.182
100.264
100.373
100.457
100.48
100.479
100.47
100.455
100.448
100.447
100.448
100.461
100.24
100.226
100.212
100.212
100.214
100.213
100.211
100.203
100.178
100.174
100.227
100.348
100.44
100.458
100.451
100.439
100.427
100.422
100.423
100.431
100.306
100.284
100.256
100.237
100.237
100.24
100.239
100.23
100.21
100.175
100.172
100.21
100.323
100.413
100.43
100.424
100.41
100.403
100.404
100.412
100.369
100.343
100.307
100.275
100.263
100.264
100.263
100.253
100.234
100.206
100.173
100.173
100.197
100.306
100.385
100.402
100.389
100.379
100.385
100.397
100.432
100.406
100.36
100.317
100.294
100.283
100.278
100.267
100.254
100.227
100.199
100.175
100.176
100.197
100.282
100.358
100.355
100.353
100.366
100.382
100.526
100.462
100.416
100.361
100.309
100.29
100.294
100.291
100.279
100.258
100.224
100.198
100.184
100.184
100.183
100.218
100.274
100.304
100.323
100.343
100.619
100.539
100.482
100.446
100.392
100.334
100.314
100.303
100.286
100.266
100.241
100.217
100.202
100.181
100.164
100.154
100.15
100.168
100.205
100.266
100.609
100.587
100.532
100.481
100.436
100.388
100.338
100.299
100.285
100.281
100.267
100.242
100.218
100.195
100.169
100.148
100.133
100.116
100.106
100.154
100.488
100.546
100.541
100.514
100.47
100.427
100.384
100.332
100.308
100.295
100.272
100.242
100.211
100.187
100.168
100.149
100.128
100.107
100.09
100.065
100.25
100.376
100.446
100.482
100.474
100.449
100.41
100.366
100.324
100.286
100.26
100.237
100.215
100.193
100.176
100.157
100.133
100.108
100.083
100.045
100.043
100.145
100.254
100.336
100.389
100.415
100.405
100.381
100.345
100.3
100.269
100.243
100.222
100.2
100.174
100.143
100.115
100.093
100.072
100.036
100.002
100.015
100.066
100.155
100.233
100.29
100.328
100.349
100.339
100.316
100.282
100.247
100.211
100.188
100.162
100.133
100.109
100.087
100.07
100.039
100
100
100.003
100.025
100.078
100.149
100.208
100.25
100.28
100.291
100.281
100.26
100.228
100.197
100.168
100.144
100.127
100.1
100.067
100.027
100
100
100
100.001
100.006
100.031
100.081
100.139
100.187
100.217
100.24
100.244
100.237
100.215
100.185
100.157
100.126
100.097
100.071
100.024
100
100
100
100
100
100.001
100.008
100.032
100.078
100.129
100.169
100.192
100.211
100.209
100.201
100.183
100.151
100.118
100.094
100.05
100
100
100
100
100
100
100
100.001
100.008
100.032
100.073
100.117
100.154
100.174
100.186
100.183
100.174
100.155
100.128
100.081
100
100
100
100
100
100
100
100
100
100.002
100.008
100.028
100.065
100.108
100.14
100.162
100.162
100.158
100.148
100.12
100
100
100
100
100
100
100
100
100
100
100
100.001
100.007
100.024
100.057
100.097
100.123
100.139
100.138
100.127
100
100
100
100
100
100
100
100
100
100
100
100
100
100.001
100.006
100.02
100.046
100.077
100.1
100.11
100
100
100
100
100
100
100
100
100
100
100
100
100
100
100
100.001
100.004
100.013
100.032
100.066
100.596
100.652
100.61
100.417
100.143
100.017
100.001
100
100
100
100
100
100
100
100
100.671
100.662
100.52
100.22
100.022
100
100
100
100
100
100
100
100
100
100
100.705
100.637
100.375
100.075
100.002
100
100
100
100
100
100
100
100
100
100
100.719
100.518
100.167
100.009
100
100
100
100
100
100
100
100
100
100
100
100.651
100.283
100.024
100
100
100
100
100
100
100
100
100
100
100
100
100.393
100.038
100
100
100
100
100
100
100
100
100
100
100
100
100
100.041
100
100
100
100
100
100
100
100
100
100
100
100
100
100
99.9995
100
100
100
100
100
100
100
100
100
100
100
100
100
100
100
100
100
100
100
100
100
100
100
100
100
100
100
100
100
100
100
100
100
100
100
100
100
100
100
100
100
100
100
100
100
100
100
100
100
100
100
100
100
100
100
100
100
100
100
100
100
100
100
100
100
100
100
100
100
100
100
100
100
100
100
100
100
100
100
100
100
100
100
100
100
100
100
100
100
100
100
100
100
100
100
100
100
100
100
100
100
100
100
100
100
100
100
100
100
100
100
100
100
100
100
100
100
100
100
100
100
100
100
100
100
100
100
100
100
100
100
100
100
100
100
100
100
100
100
100
100
100
100
100
100
100
100
100
100
100
100
100
100
100
100
100
100
100
100
100
100
100
100
100
100
100
100
100
100
100
100
100
100
100
100
100
100
100
100
100
100
100
100
100
100
100
100
100
100
100
100
100
100
100
100
100
100
100
100
100
100
100
100
100
100
100
100
100
100
100
100
100
100
100
100
100
100
100
100
100
100
100
100
100
100
100
100
100
100
100
100
100
100
100
100
100
100
100
100
100
100
100
100
100
100
100
100
100
100
100
100
100
100
100
100
100
100
100
100
100
100
100
100
100
100
100
100
100
100
100
100
100
100
100
100
100
100
100
100
100
100
100
100
100
100
100
100
100
100
100
100
100
100
100
100
100
100
100
100
100
100
100
100
100
100
100
100
100
100
100
100
100
100
100
100
100
100
100
100
100
100
100
100
100
100
100
100
100
100
100
100
100
100
100
100
100
100
100
100
100
100
100
100
100
100
100
100
100
100
100
100
100
100
100
100
100
100
100
100
100
100
100
100
100
100
100
100
100
100
100
100
100
100
100
100
100
100
100
100
100
100
100
100
100
100
100
100
100
100
100
100
100
100
100
100
100
100
100
100
100
100
100
100
100
100
100
100
100
100
100
100
100
100
100
100
100
100
100
100
100
100
100
100
100
100
100
100
100
100
100
100
100
100
100
100
100
100
100
100
100
100
100
100
100
100
100
100
100
100
100
100
100
100
100
100
100
100
100
100
100
100
100
100
100
100
100
100
100
100
100
100
100
100
100
100
100
100
100
100
100
100
100
100
100
100
100
100
100
100
100
100
100
100
100
100
100
100
100
100
100
100
100
100
100
100
100
100
100
100
100
100
100
100
100
100
100
100
100
100
100
100
100
100
100
100
100
100
100
100
100
100
100
100
100
100
100
100
100
100
100
100
100
100
100
100
100
100
100
100
100
100
100
100
100
100
100
100
100
100
100
100
100
100
100
100
100
100
100
100
100
100
100
100
100
100
100
100
100
100
100
100
100
100
100
100
100
100
100
100
100
100
100
100
100
100
100
100
100
100
100
100
100
100
100
100
100
100
100
100
100
100
100
100
100
100
100
100
100
100
100
100
100
100
100
100
100
100
100
100
100
100
100
100
100
100
100
100
100
100
100
100
100
100
100
100
100
100
100
100
100
100
100
100
100
100
100
100
100
100
100
100
100
100
100
100
100
100
100
100
100
100
100
100
100
100
100
100
100
100
100
100
100
100
100
100
100
100
100
100
100
100
100
100
100
100
100
100
100
100
100
100
100
100
100
100
100
100
100
100
100
100
100
100
100
100
100
100
100
100
100
100
100
100
100
100
100
100
100
100
100
100
100
100
100
100
100
100
100
100
100
100
100
100
100
100
100
100
100
100
100
100
100
100
100
100
100
100
100
100
100
100
100
100
100
100
100
100
100
100
100
100
100
100
100
100
100
100
100
100
100
100
100
100
100
100
100
100
100
100
100
100
100
100
100
100
100
100
100
100
100
100
100
100
100
100
100
100
100
100
100
100
100
100
100
100
100
100
100
100
100
100
100
100
100
100
100
100
100
100
100
100
100
100
100
100
100
100
100
100
100
100
100
100
100
100
100
100
100
100
100
100
100
100
100
100
100
100
100
100
100
100
100
100
100
100
100
100
100
100
100
100
100
100
100
99.9995
100
100
100
100
100
100
100
100
100
100
100
100
100
100
100.041
100
100
100
100
100
100
100
100
100
100
100
100
100
100
100.393
100.038
100
100
100
100
100
100
100
100
100
100
100
100
100
100.651
100.284
100.024
100
100
100
100
100
100
100
100
100
100
100
100
100.719
100.518
100.167
100.009
100
100
100
100
100
100
100
100
100
100
100
100.705
100.637
100.375
100.075
100.002
100
100
100
100
100
100
100
100
100
100
100.671
100.662
100.52
100.22
100.022
100
100
100
100
100
100
100
100
100
100
100.596
100.652
100.61
100.417
100.143
100.017
100.001
100
100
100
100
100
100
100
100
100.527
100.619
100.609
100.488
100.25
100.043
100.002
100
100
100
100
100
100
100
100
100.462
100.539
100.587
100.546
100.376
100.145
100.015
100
100
100
100
100
100
100
100
100.416
100.482
100.532
100.541
100.446
100.254
100.066
100.003
100
100
100
100
100
100
100
100.36
100.446
100.481
100.514
100.482
100.336
100.155
100.025
100.001
100
100
100
100
100
100
100.309
100.392
100.436
100.47
100.474
100.389
100.233
100.078
100.006
100
100
100
100
100
100
100.29
100.334
100.389
100.427
100.449
100.415
100.29
100.149
100.031
100.001
100
100
100
100
100
100.295
100.315
100.338
100.385
100.41
100.405
100.328
100.208
100.081
100.008
100
100
100
100
100
100.292
100.303
100.299
100.333
100.366
100.381
100.349
100.25
100.139
100.032
100.001
100
100
100
100
100.28
100.286
100.285
100.308
100.324
100.345
100.339
100.28
100.187
100.078
100.008
100
100
100
100
100.258
100.266
100.281
100.295
100.286
100.3
100.316
100.291
100.217
100.129
100.032
100.002
100
100
100
100.225
100.241
100.266
100.272
100.259
100.269
100.282
100.281
100.24
100.169
100.073
100.008
100
100
100
100.198
100.217
100.242
100.242
100.237
100.244
100.247
100.26
100.244
100.192
100.117
100.028
100.001
100
100
100.185
100.202
100.218
100.211
100.215
100.222
100.211
100.228
100.237
100.211
100.154
100.065
100.007
100
100
100.184
100.182
100.195
100.187
100.193
100.2
100.187
100.197
100.215
100.209
100.174
100.108
100.024
100.001
100
100.183
100.165
100.169
100.168
100.176
100.174
100.162
100.168
100.186
100.201
100.186
100.14
100.057
100.006
100
100.218
100.154
100.148
100.149
100.158
100.143
100.133
100.144
100.157
100.183
100.183
100.162
100.097
100.02
100.001
100.274
100.15
100.133
100.128
100.133
100.115
100.109
100.127
100.126
100.151
100.174
100.162
100.124
100.046
100.004
100.304
100.168
100.116
100.106
100.108
100.093
100.087
100.101
100.097
100.118
100.155
100.158
100.139
100.077
100.013
100.323
100.205
100.106
100.089
100.083
100.072
100.07
100.068
100.071
100.094
100.128
100.148
100.139
100.1
100.032
100.343
100.265
100.154
100.065
100.045
100.036
100.039
100.027
100.024
100.05
100.081
100.12
100.127
100.11
100.066
100.432
100.406
100.361
100.317
100.294
100.282
100.275
100.266
100.254
100.227
100.199
100.176
100.177
100.196
100.28
100.357
100.356
100.353
100.366
100.382
100.369
100.344
100.307
100.273
100.263
100.261
100.259
100.25
100.232
100.205
100.173
100.173
100.198
100.305
100.383
100.402
100.389
100.379
100.385
100.397
100.307
100.283
100.256
100.243
100.242
100.241
100.238
100.228
100.209
100.176
100.173
100.21
100.323
100.414
100.43
100.424
100.41
100.403
100.404
100.412
100.239
100.228
100.209
100.209
100.211
100.211
100.209
100.202
100.179
100.175
100.227
100.347
100.44
100.458
100.451
100.439
100.427
100.422
100.422
100.431
100.179
100.179
100.179
100.179
100.176
100.176
100.177
100.168
100.184
100.267
100.373
100.456
100.48
100.478
100.47
100.455
100.447
100.445
100.447
100.461
100.134
100.133
100.134
100.14
100.141
100.136
100.16
100.243
100.346
100.424
100.478
100.504
100.514
100.512
100.504
100.493
100.489
100.489
100.492
100.514
100.087
100.087
100.094
100.095
100.116
100.204
100.361
100.444
100.48
100.524
100.564
100.574
100.58
100.582
100.578
100.57
100.564
100.564
100.568
100.592
100.029
100.078
100.199
100.283
100.412
100.507
100.574
100.615
100.637
100.661
100.682
100.689
100.694
100.694
100.691
100.681
100.669
100.661
100.664
100.675
100.562
100.66
100.73
100.737
100.755
100.78
100.796
100.801
100.805
100.808
100.809
100.807
100.802
100.797
100.792
100.782
100.765
100.745
100.738
100.728
101.05
101.038
101.02
100.997
100.959
100.933
100.907
100.897
100.894
100.885
100.874
100.861
100.847
100.842
100.837
100.829
100.81
100.781
100.761
100.746
)
;

boundaryField
{
    inlet
    {
        type            fixedValue;
        value           uniform 100;
    }
    outlet
    {
        type            inletOutlet;
        inletValue      uniform 100;
        value           nonuniform List<scalar> 
50
(
100.343
100.266
100.154
100.065
100.045
100.036
100.039
100.027
100.024
100.05
100.081
100.12
100.127
100.11
100.066
100.745
100.725
100.671
100.59
100.514
100.461
100.431
100.412
100.397
100.382
100.382
100.397
100.412
100.431
100.461
100.514
100.592
100.675
100.728
100.746
100.343
100.265
100.154
100.065
100.045
100.036
100.039
100.027
100.024
100.05
100.081
100.12
100.127
100.11
100.066
)
;
    }
    airfoil
    {
        type            zeroGradient;
    }
    top
    {
        type            symmetryPlane;
    }
    bottom
    {
        type            symmetryPlane;
    }
    defaultFaces
    {
        type            empty;
    }
}


// ************************************************************************* //
