/*--------------------------------*- C++ -*----------------------------------*\
  =========                 |
  \\      /  F ield         | OpenFOAM: The Open Source CFD Toolbox
   \\    /   O peration     | Website:  https://openfoam.org
    \\  /    A nd           | Version:  7
     \\/     M anipulation  |
\*---------------------------------------------------------------------------*/
FoamFile
{
    version     2.0;
    format      ascii;
    class       volVectorField;
    location    "3.2";
    object      U;
}
// * * * * * * * * * * * * * * * * * * * * * * * * * * * * * * * * * * * * * //

dimensions      [0 1 -1 0 0 0 0];

internalField   nonuniform List<vector> 
3700
(
(1.43709 -0.453577 0)
(1.42404 -0.564198 0)
(1.49305 -0.470703 0)
(1.62437 -0.495255 0)
(1.66632 -0.46363 0)
(1.6805 -0.509739 0)
(1.64757 -0.517481 0)
(1.56552 -0.497651 0)
(1.49285 -0.42244 0)
(1.44282 -0.262418 0)
(1.46737 -0.107311 0)
(1.54134 -0.0759172 0)
(1.59442 -0.147342 0)
(1.61728 -0.215205 0)
(1.62151 -0.201969 0)
(1.6542 -0.206073 0)
(1.70264 -0.226797 0)
(1.74241 -0.187651 0)
(1.82666 -0.139277 0)
(1.88686 -0.122452 0)
(1.69464 -1.38953 0)
(1.85419 -1.45973 0)
(2.11868 -1.78246 0)
(2.26744 -2.29243 0)
(2.14132 -2.4357 0)
(1.98928 -2.36011 0)
(1.92377 -2.17838 0)
(1.81323 -2.02751 0)
(1.76564 -1.78506 0)
(1.68836 -1.35135 0)
(1.71476 -0.98994 0)
(1.8484 -0.942024 0)
(1.9504 -1.00572 0)
(1.99268 -1.09245 0)
(2.01573 -1.13991 0)
(2.06543 -1.15504 0)
(2.09629 -1.20662 0)
(2.12644 -1.15413 0)
(2.1886 -1.07239 0)
(2.28465 -1.0132 0)
(1.72807 -1.3482 0)
(1.93371 -1.33501 0)
(2.25963 -1.75453 0)
(2.41719 -2.11859 0)
(2.19706 -2.27152 0)
(2.07297 -2.32826 0)
(2.00096 -2.28635 0)
(1.94837 -2.21812 0)
(1.99534 -2.14076 0)
(2.06363 -2.04636 0)
(2.15616 -1.97584 0)
(2.26402 -1.94021 0)
(2.36582 -1.87589 0)
(2.43095 -1.82488 0)
(2.47962 -1.80309 0)
(2.54231 -1.76201 0)
(2.51275 -1.78408 0)
(2.50674 -1.6735 0)
(2.48834 -1.65625 0)
(2.52927 -1.57335 0)
(1.82634 -1.41361 0)
(2.02094 -1.38182 0)
(2.24199 -1.8322 0)
(2.22212 -2.22513 0)
(2.11973 -2.26762 0)
(2.08675 -2.30576 0)
(2.04485 -2.2606 0)
(2.01688 -2.16321 0)
(2.04939 -2.10229 0)
(2.15128 -1.99701 0)
(2.2242 -1.9438 0)
(2.31098 -1.82388 0)
(2.39728 -1.73217 0)
(2.49829 -1.61894 0)
(2.63935 -1.51973 0)
(2.76914 -1.41425 0)
(2.76724 -1.42471 0)
(2.772 -1.39963 0)
(2.68746 -1.45247 0)
(2.60414 -1.40648 0)
(1.87358 -1.47749 0)
(2.06175 -1.41449 0)
(2.12034 -1.88866 0)
(2.01719 -2.19713 0)
(2.04581 -2.21798 0)
(2.07952 -2.28854 0)
(2.07413 -2.24925 0)
(2.1003 -2.09708 0)
(2.17181 -2.00485 0)
(2.32311 -1.84144 0)
(2.31517 -1.9259 0)
(2.39268 -1.76364 0)
(2.42589 -1.69287 0)
(2.47297 -1.61682 0)
(2.57652 -1.52244 0)
(2.67861 -1.38437 0)
(2.73769 -1.18075 0)
(2.84051 -1.0233 0)
(2.87533 -0.950266 0)
(2.76443 -1.01925 0)
(1.82718 -1.56928 0)
(1.94432 -1.58336 0)
(1.8185 -2.02021 0)
(1.8218 -2.224 0)
(1.96321 -2.17263 0)
(1.98368 -2.18 0)
(2.09153 -2.15951 0)
(2.24472 -1.94199 0)
(2.28863 -1.93983 0)
(2.402 -1.74899 0)
(2.46513 -1.74033 0)
(2.57983 -1.58958 0)
(2.5803 -1.5473 0)
(2.57923 -1.47333 0)
(2.59599 -1.38913 0)
(2.62325 -1.30395 0)
(2.66103 -1.18833 0)
(2.78217 -1.10329 0)
(2.8186 -0.87777 0)
(2.85055 -0.707577 0)
(1.64 -1.44825 0)
(1.63638 -1.62056 0)
(1.6 -1.9969 0)
(1.67428 -2.17526 0)
(1.78463 -2.08703 0)
(1.87391 -2.08374 0)
(2.00011 -2.02776 0)
(2.20333 -1.72778 0)
(2.33846 -1.69022 0)
(2.49453 -1.58982 0)
(2.55618 -1.4997 0)
(2.6571 -1.36783 0)
(2.70634 -1.27787 0)
(2.70833 -1.24712 0)
(2.71641 -1.13372 0)
(2.7007 -1.07398 0)
(2.69047 -0.969991 0)
(2.7244 -0.965867 0)
(2.74674 -0.851899 0)
(2.77772 -0.617897 0)
(1.46329 -1.28605 0)
(1.43282 -1.52799 0)
(1.51097 -1.98615 0)
(1.62667 -2.14678 0)
(1.73215 -2.09386 0)
(1.82516 -2.06209 0)
(1.98045 -1.95401 0)
(2.14235 -1.67802 0)
(2.2266 -1.59844 0)
(2.38539 -1.5246 0)
(2.49496 -1.27042 0)
(2.64188 -1.16879 0)
(2.68794 -0.923009 0)
(2.7418 -0.8575 0)
(2.77446 -0.717889 0)
(2.77302 -0.727743 0)
(2.76117 -0.636838 0)
(2.73203 -0.646031 0)
(2.73132 -0.689677 0)
(2.70576 -0.47708 0)
(1.30226 -1.1419 0)
(1.31465 -1.48683 0)
(1.50727 -1.935 0)
(1.65533 -2.13905 0)
(1.77044 -2.08585 0)
(1.89157 -2.05408 0)
(2.10006 -1.85217 0)
(2.22326 -1.60706 0)
(2.25959 -1.55119 0)
(2.32631 -1.50623 0)
(2.44378 -1.27741 0)
(2.56024 -1.17641 0)
(2.61154 -0.911714 0)
(2.73536 -0.801316 0)
(2.72983 -0.515666 0)
(2.75282 -0.397856 0)
(2.74951 -0.261149 0)
(2.73091 -0.216201 0)
(2.70922 -0.346014 0)
(2.6678 -0.248855 0)
(1.17643 -1.0204 0)
(1.2942 -1.48309 0)
(1.65315 -1.95249 0)
(1.75221 -2.18436 0)
(2.1129 -1.99082 0)
(2.2499 -1.96921 0)
(2.26199 -1.62189 0)
(2.37055 -1.37267 0)
(2.4878 -1.30662 0)
(2.5123 -1.31556 0)
(2.54943 -1.15755 0)
(2.59642 -1.00132 0)
(2.60367 -0.822211 0)
(2.67315 -0.732964 0)
(2.66782 -0.510022 0)
(2.70511 -0.373294 0)
(2.70452 -0.175208 0)
(2.68397 -0.00755522 0)
(2.63831 0.026718 0)
(2.62082 -0.00309449 0)
(1.08563 -0.974165 0)
(1.38987 -1.58181 0)
(1.87187 -2.10703 0)
(2.06028 -2.35618 0)
(2.56048 -1.95818 0)
(2.57899 -1.88533 0)
(2.64696 -1.37578 0)
(2.72962 -1.13874 0)
(2.7647 -0.966068 0)
(2.76472 -0.754164 0)
(2.76408 -0.674468 0)
(2.74053 -0.499458 0)
(2.70859 -0.434531 0)
(2.69871 -0.351436 0)
(2.6638 -0.255224 0)
(2.64211 -0.199266 0)
(2.63717 -0.11894 0)
(2.60914 0.0290247 0)
(2.55306 0.195385 0)
(2.56286 0.169823 0)
(1.05875 -1.00573 0)
(1.51242 -1.73814 0)
(2.05769 -2.21595 0)
(2.33837 -2.28592 0)
(2.46191 -1.7844 0)
(2.4082 -1.70346 0)
(2.55024 -1.20911 0)
(2.63417 -0.98387 0)
(2.68791 -0.892907 0)
(2.69685 -0.546762 0)
(2.73161 -0.358356 0)
(2.68999 -0.112185 0)
(2.67958 -0.00787777 0)
(2.64502 0.114468 0)
(2.6125 0.173086 0)
(2.57184 0.192605 0)
(2.54272 0.177444 0)
(2.52769 0.179035 0)
(2.45224 0.326689 0)
(2.46525 0.317635 0)
(1.08575 -1.25575 0)
(1.81364 -2.2263 0)
(2.18571 -2.23074 0)
(2.09773 -1.92062 0)
(2.18326 -1.67802 0)
(2.23792 -1.45901 0)
(2.3604 -1.14339 0)
(2.4398 -0.901233 0)
(2.46894 -0.744779 0)
(2.51979 -0.549965 0)
(2.58544 -0.352243 0)
(2.57372 -0.0949245 0)
(2.58368 0.0831135 0)
(2.54029 0.27164 0)
(2.48641 0.422396 0)
(2.44368 0.483475 0)
(2.3822 0.549457 0)
(2.37611 0.49059 0)
(2.32571 0.544709 0)
(2.33146 0.506092 0)
(1.12791 -1.4595 0)
(1.74719 -2.27942 0)
(1.90614 -2.02506 0)
(1.95565 -1.66101 0)
(2.12767 -1.5658 0)
(2.31995 -1.07875 0)
(2.39419 -0.896862 0)
(2.46639 -0.634603 0)
(2.47619 -0.326908 0)
(2.51014 -0.200274 0)
(2.51224 -0.00311024 0)
(2.47926 0.165378 0)
(2.45438 0.288945 0)
(2.41289 0.407894 0)
(2.35682 0.527251 0)
(2.32333 0.590303 0)
(2.23612 0.702313 0)
(2.18661 0.755496 0)
(2.16682 0.780854 0)
(2.14685 0.785375 0)
(1.05185 -1.53798 0)
(1.60385 -2.02677 0)
(1.81051 -1.87774 0)
(2.15989 -1.07862 0)
(2.34985 -1.19701 0)
(2.38324 -0.249556 0)
(2.50473 -0.151811 0)
(2.52352 0.0621188 0)
(2.46757 0.212494 0)
(2.45419 0.337623 0)
(2.39685 0.495057 0)
(2.32705 0.619526 0)
(2.27356 0.691538 0)
(2.22054 0.75454 0)
(2.1809 0.772796 0)
(2.14005 0.796283 0)
(2.0866 0.851841 0)
(2.0604 0.88831 0)
(2.02932 0.938498 0)
(2.05757 0.956938 0)
(1.1371 -1.1468 0)
(1.88962 -1.55045 0)
(2.09141 -1.41383 0)
(2.24205 -0.195446 0)
(2.40781 0.010261 0)
(2.48432 -0.0702669 0)
(2.48476 0.151564 0)
(2.40555 0.401413 0)
(2.34039 0.487701 0)
(2.30977 0.616896 0)
(2.2178 0.758484 0)
(2.12639 0.872345 0)
(2.06374 0.935846 0)
(2.00869 0.992271 0)
(1.97824 0.988218 0)
(1.95577 0.994921 0)
(1.95668 1.01492 0)
(1.97178 0.993361 0)
(1.99643 0.993275 0)
(2.07135 0.976895 0)
(1.38366 -0.331868 0)
(1.95267 -0.927847 0)
(2.27228 -0.297594 0)
(2.38928 -0.110576 0)
(2.3704 0.273837 0)
(2.35395 0.341458 0)
(2.28911 0.497802 0)
(2.22404 0.619533 0)
(2.14173 0.747335 0)
(2.09386 0.888252 0)
(1.9803 0.994781 0)
(1.92049 1.05007 0)
(1.88437 1.07501 0)
(1.8683 1.08925 0)
(1.87215 1.05897 0)
(1.89738 1.05109 0)
(1.96267 1.02352 0)
(2.16576 0.905487 0)
(2.38622 0.790472 0)
(2.78445 0.434779 0)
(1.20056 -0.0966198 0)
(1.96027 -0.424225 0)
(2.21147 0.4059 0)
(2.21482 0.597722 0)
(2.21059 0.558305 0)
(2.15065 0.725664 0)
(2.03285 0.906893 0)
(1.96205 0.980478 0)
(1.90329 1.04047 0)
(1.85152 1.12731 0)
(1.79066 1.1556 0)
(1.79034 1.14859 0)
(1.80851 1.12873 0)
(1.85071 1.08608 0)
(2.04096 0.950125 0)
(2.25799 0.830263 0)
(2.66389 0.506004 0)
(3.03608 0.0935663 0)
(3.05447 -0.0230845 0)
(3.00387 -0.00454362 0)
(1.01174 0.0175426 0)
(1.89868 0.887765 0)
(2.10817 0.826525 0)
(2.01622 0.925013 0)
(1.94967 0.991084 0)
(1.85472 1.0928 0)
(1.79507 1.12981 0)
(1.7638 1.14391 0)
(1.76038 1.16198 0)
(1.7356 1.203 0)
(1.7159 1.19432 0)
(1.86151 1.06814 0)
(2.09746 0.883589 0)
(2.50534 0.57359 0)
(2.98909 0.132824 0)
(3.07388 -0.0299083 0)
(3.00808 -0.00770474 0)
(3.00288 -0.00382724 0)
(3.0012 -0.00218091 0)
(3.00008 -0.00048742 0)
(1.1532 0.787599 0)
(1.83771 1.14414 0)
(1.84261 1.15396 0)
(1.73486 1.20022 0)
(1.70356 1.19376 0)
(1.65829 1.23776 0)
(1.65756 1.21197 0)
(1.72827 1.16455 0)
(1.76043 1.2321 0)
(1.79319 1.13962 0)
(2.27206 0.737707 0)
(2.861 0.207334 0)
(3.09794 -0.0287095 0)
(3.02055 -0.0123881 0)
(3.00458 -0.00544779 0)
(3.00185 -0.00301803 0)
(3.00006 -0.000592846 0)
(2.99998 -2.33654e-05 0)
(2.99999 1.41892e-05 0)
(3 5.8536e-06 0)
(1.5829 1.25962 0)
(1.5867 1.26666 0)
(1.59072 1.27223 0)
(1.59493 1.26394 0)
(1.60073 1.24452 0)
(1.58709 1.26796 0)
(1.89947 1.17574 0)
(2.96962 0.40616 0)
(3.34807 -0.628128 0)
(3 1.31854e-11 0)
(3 4.93681e-11 0)
(3 -3.32097e-13 0)
(3 2.01146e-11 0)
(3 -1.86984e-11 0)
(3 3.36961e-14 0)
(3 3.02192e-14 0)
(3 1.0793e-14 0)
(3 3.96764e-15 0)
(3 9.75215e-16 0)
(3 -1.90432e-15 0)
(1.588 1.25057 0)
(1.59784 1.25907 0)
(1.60327 1.27174 0)
(1.60509 1.28105 0)
(1.66172 1.26785 0)
(1.7266 1.23014 0)
(2.2501 0.755931 0)
(2.99431 0.0173613 0)
(3 4.79437e-08 0)
(3 8.77688e-11 0)
(3 -6.17297e-17 0)
(3 2.62102e-15 0)
(3 -4.14944e-15 0)
(3 7.0549e-15 0)
(3 7.09986e-16 0)
(3 4.12492e-16 0)
(3 4.39938e-16 0)
(3 1.46612e-16 0)
(3 1.07518e-15 0)
(3 5.75671e-16 0)
(1.58449 1.24642 0)
(1.60563 1.2544 0)
(1.61556 1.25833 0)
(1.60494 1.28478 0)
(1.69342 1.22091 0)
(2.2413 0.774349 0)
(3.00056 -0.00499508 0)
(3.00019 -0.000563576 0)
(3 8.9683e-07 0)
(3 5.24619e-11 0)
(3 -5.2461e-14 0)
(3 1.5584e-15 0)
(3 2.33209e-15 0)
(3 -8.5736e-16 0)
(3 -7.6047e-16 0)
(3 1.50785e-16 0)
(3 5.16374e-16 0)
(3 4.30596e-16 0)
(3 7.62616e-16 0)
(3 1.51411e-17 0)
(1.58074 1.25244 0)
(1.60175 1.25565 0)
(1.623 1.25473 0)
(1.64146 1.26664 0)
(1.85563 1.09075 0)
(2.74379 0.221938 0)
(3.00501 -0.00144279 0)
(2.99991 7.94754e-05 0)
(3 -1.00033e-06 0)
(3 9.26483e-10 0)
(3 -2.3903e-14 0)
(3 1.62623e-15 0)
(3 1.50037e-15 0)
(3 -9.74751e-16 0)
(3 -8.21297e-16 0)
(3 2.11194e-17 0)
(3 7.0451e-17 0)
(3 -4.40663e-16 0)
(3 8.40511e-17 0)
(3 -5.25621e-16 0)
(1.58225 1.26569 0)
(1.59184 1.26326 0)
(1.62678 1.26041 0)
(1.72468 1.20599 0)
(2.38086 0.628663 0)
(3.01923 -0.0184913 0)
(2.99976 0.000161476 0)
(3 -4.32397e-06 0)
(3 8.59427e-08 0)
(3 -9.40496e-10 0)
(3 1.93068e-13 0)
(3 1.68289e-15 0)
(3 1.28323e-15 0)
(3 -1.24004e-15 0)
(3 -1.1216e-15 0)
(3 -8.94629e-16 0)
(3 -1.77126e-16 0)
(3 -3.86533e-16 0)
(3 -4.86652e-16 0)
(3 -4.5159e-16 0)
(1.58287 1.27679 0)
(1.57937 1.27641 0)
(1.64026 1.26102 0)
(1.75348 1.17514 0)
(2.67097 0.282141 0)
(3 -6.12239e-10 0)
(3 1.44633e-08 0)
(3 -1.30489e-08 0)
(3 5.63928e-10 0)
(3 3.05541e-12 0)
(3 -1.0194e-13 0)
(3 1.61582e-15 0)
(3 2.69605e-16 0)
(3 -7.39751e-16 0)
(3 -1.22693e-15 0)
(3 -1.34625e-15 0)
(3 -7.74804e-16 0)
(3 -6.39851e-16 0)
(3 -1.11675e-15 0)
(3 -4.50975e-16 0)
(1.58082 1.29942 0)
(1.5635 1.29892 0)
(1.6787 1.23901 0)
(2.19185 0.827379 0)
(3.02274 -0.0225942 0)
(3 -6.78261e-12 0)
(3 -1.20218e-11 0)
(3 2.36853e-11 0)
(3 -3.83942e-12 0)
(3 1.54964e-15 0)
(3 2.84184e-15 0)
(3 7.68944e-16 0)
(3 -9.03827e-16 0)
(3 -1.10993e-15 0)
(3 -1.17824e-15 0)
(3 -1.3002e-15 0)
(3 -1.60462e-15 0)
(3 -9.93461e-16 0)
(3 -1.00341e-15 0)
(3 -5.83515e-16 0)
(1.59168 1.32582 0)
(1.4956 1.332 0)
(1.76705 1.18064 0)
(2.42214 0.548162 0)
(3 -7.70013e-07 0)
(3 7.98544e-12 0)
(3 -1.3948e-14 0)
(3 2.12583e-14 0)
(3 -4.1532e-15 0)
(3 1.9971e-15 0)
(3 1.63416e-15 0)
(3 1.61508e-15 0)
(3 -2.72277e-16 0)
(3 -7.06171e-16 0)
(3 -1.06757e-15 0)
(3 -1.17181e-15 0)
(3 -1.46649e-15 0)
(3 -2.52493e-15 0)
(3 -1.30125e-15 0)
(3 -9.42167e-16 0)
(1.58948 1.30716 0)
(1.46328 1.36144 0)
(1.92306 1.0462 0)
(2.85406 0.127661 0)
(3 -1.55786e-08 0)
(3 -3.05019e-12 0)
(3 1.40956e-14 0)
(3 1.23775e-15 0)
(3 1.6623e-15 0)
(3 2.03683e-15 0)
(3 1.57296e-15 0)
(3 7.03604e-16 0)
(3 -4.8659e-17 0)
(3 -1.0437e-15 0)
(3 -9.91628e-16 0)
(3 -9.60466e-16 0)
(3 -8.22515e-16 0)
(3 -1.89293e-15 0)
(3 -2.41972e-15 0)
(3 -1.44543e-15 0)
(1.60647 1.29482 0)
(1.4806 1.37695 0)
(2.17493 0.815579 0)
(3.01078 -0.00901241 0)
(3 2.01132e-08 0)
(3 2.80702e-13 0)
(3 -4.94439e-15 0)
(3 1.52827e-15 0)
(3 2.12935e-15 0)
(3 2.0865e-15 0)
(3 1.43981e-15 0)
(3 7.71317e-16 0)
(3 4.13382e-17 0)
(3 -7.30835e-16 0)
(3 -1.08851e-15 0)
(3 -1.54135e-15 0)
(3 -1.80089e-15 0)
(3 -1.77601e-15 0)
(3 -2.20714e-15 0)
(3 -3.10894e-15 0)
(1.62314 1.27992 0)
(1.58282 1.31435 0)
(2.42202 0.542211 0)
(3 -2.32602e-12 0)
(3 -1.65239e-11 0)
(3 -1.02517e-14 0)
(3 7.5609e-16 0)
(3 1.10314e-15 0)
(3 1.60551e-15 0)
(3 1.2632e-15 0)
(3 9.79928e-16 0)
(3 2.22992e-16 0)
(3 -4.19853e-17 0)
(3 -1.94038e-16 0)
(3 -6.1712e-16 0)
(3 -1.26968e-15 0)
(3 -2.16247e-15 0)
(3 -2.46476e-15 0)
(3 -2.51454e-15 0)
(3 -2.52961e-15 0)
(1.63518 1.25713 0)
(1.62666 1.25309 0)
(2.64547 0.304319 0)
(3 1.60501e-13 0)
(3 -8.37831e-15 0)
(3 2.77439e-16 0)
(3 5.75857e-16 0)
(3 8.00625e-16 0)
(3 1.31242e-15 0)
(3 9.65808e-16 0)
(3 5.05207e-16 0)
(3 3.50703e-16 0)
(3 6.78276e-17 0)
(3 2.19464e-16 0)
(3 -2.46253e-16 0)
(3 -5.72037e-16 0)
(3 -1.84277e-15 0)
(3 -1.6351e-15 0)
(3 -2.36808e-15 0)
(3 -3.02893e-15 0)
(1.64632 1.24471 0)
(1.81241 1.10795 0)
(2.85812 0.106373 0)
(3 1.43152e-15 0)
(3 3.27193e-17 0)
(3 2.89314e-16 0)
(3 6.27498e-16 0)
(3 7.23297e-16 0)
(3 1.39444e-15 0)
(3 1.58279e-15 0)
(3 1.14376e-15 0)
(3 5.47157e-16 0)
(3 1.29707e-16 0)
(3 1.82391e-16 0)
(3 2.27831e-16 0)
(3 1.8451e-16 0)
(3 -2.05911e-16 0)
(3 -1.92742e-15 0)
(3 -1.86483e-15 0)
(3 -2.72037e-15 0)
(1.66508 1.20753 0)
(1.88307 0.978699 0)
(2.97697 0.0146661 0)
(3 -5.63522e-16 0)
(3 -2.76031e-16 0)
(3 4.23957e-16 0)
(3 8.3695e-16 0)
(3 6.73371e-16 0)
(3 8.82943e-16 0)
(3 1.03537e-15 0)
(3 9.72905e-16 0)
(3 9.27283e-16 0)
(3 5.73573e-16 0)
(3 2.34596e-16 0)
(3 2.64783e-16 0)
(3 3.99022e-16 0)
(3 5.55665e-16 0)
(3 -2.67019e-16 0)
(3 -6.9867e-16 0)
(3 -1.99205e-15 0)
(1.726 1.17155 0)
(2.06852 0.816075 0)
(3 -1.03679e-15 0)
(3 -7.26791e-16 0)
(3 -9.38385e-16 0)
(3 -4.8509e-16 0)
(3 1.05612e-16 0)
(3 -6.62537e-18 0)
(3 2.18168e-16 0)
(3 3.52734e-16 0)
(3 1.4831e-16 0)
(3 -4.87887e-17 0)
(3 3.23321e-16 0)
(3 3.44804e-16 0)
(3 2.21892e-16 0)
(3 3.02811e-16 0)
(3 6.00325e-16 0)
(3 8.79726e-16 0)
(3 5.6164e-16 0)
(3 3.101e-16 0)
(1.76582 1.09368 0)
(2.24401 0.640495 0)
(3 6.11713e-16 0)
(3 -3.30209e-16 0)
(3 -4.96056e-16 0)
(3 -7.34849e-16 0)
(3 -3.95105e-16 0)
(3 -5.21906e-16 0)
(3 -6.43049e-16 0)
(3 -2.4497e-16 0)
(3 -3.64241e-17 0)
(3 -2.16487e-16 0)
(3 4.2801e-17 0)
(3 1.17058e-16 0)
(3 2.04834e-17 0)
(3 -3.44926e-17 0)
(3 4.87778e-16 0)
(3 2.00382e-16 0)
(3 6.75038e-17 0)
(3 -5.43811e-17 0)
(1.82618 1.006 0)
(2.45365 0.4429 0)
(3 -9.99375e-17 0)
(3 -1.07037e-16 0)
(3 -3.34432e-17 0)
(3 -1.33405e-16 0)
(3 -1.21599e-16 0)
(3 -5.53213e-17 0)
(3 1.55866e-17 0)
(3 2.32788e-16 0)
(3 3.58363e-16 0)
(3 4.7085e-16 0)
(3 5.62426e-16 0)
(3 6.50845e-16 0)
(3 6.69349e-16 0)
(3 5.52331e-16 0)
(3 5.76583e-16 0)
(3 7.53227e-16 0)
(3 7.77801e-16 0)
(3 5.50688e-16 0)
(1.92056 0.873451 0)
(2.69769 0.216149 0)
(3 1.05637e-15 0)
(3 -6.77766e-16 0)
(3 -3.75501e-16 0)
(3 -1.22591e-16 0)
(3 6.38527e-17 0)
(3 -2.13826e-16 0)
(3 -1.84143e-16 0)
(3 -3.4704e-16 0)
(3 -6.8374e-16 0)
(3 -8.29175e-16 0)
(3 -9.78758e-16 0)
(3 -6.81097e-16 0)
(3 -5.12279e-16 0)
(3 -3.69658e-16 0)
(3 -4.97428e-17 0)
(3 -3.95536e-17 0)
(3 2.47179e-16 0)
(3 5.60689e-16 0)
(2.09947 0.665956 0)
(2.98987 6.15614e-05 0)
(3 -1.02226e-15 0)
(3 -1.69518e-15 0)
(3 -1.82115e-15 0)
(3 -1.58883e-15 0)
(3 -1.3436e-15 0)
(3 -1.24782e-15 0)
(3 -1.26492e-15 0)
(3 -1.06157e-15 0)
(3 -8.04537e-16 0)
(3 -7.86184e-16 0)
(3 -6.64448e-16 0)
(3 -6.6651e-16 0)
(3 -6.87286e-16 0)
(3 -8.93442e-16 0)
(3 -9.15016e-16 0)
(3 -6.78564e-16 0)
(3 -9.18644e-16 0)
(3 -8.91762e-16 0)
(1.99393 0.370936 0)
(2.99991 -1.00455e-05 0)
(3 -8.42944e-16 0)
(3 -2.03979e-15 0)
(3 -1.63444e-15 0)
(3 -1.14244e-15 0)
(3 -6.54526e-16 0)
(3 1.20988e-16 0)
(3 4.05695e-16 0)
(3 6.56145e-16 0)
(3 8.60538e-16 0)
(3 9.43312e-16 0)
(3 1.06714e-15 0)
(3 1.09893e-15 0)
(3 1.09998e-15 0)
(3 1.19524e-15 0)
(3 1.14397e-15 0)
(3 1.11559e-15 0)
(3 1.11355e-15 0)
(3 1.06234e-15 0)
(1.99361 -0.373146 0)
(2.99992 8.1895e-06 0)
(3 -3.31677e-15 0)
(3 -2.26615e-15 0)
(3 -1.32833e-15 0)
(3 -7.32694e-16 0)
(3 -1.28228e-16 0)
(3 3.3739e-17 0)
(3 5.0643e-16 0)
(3 6.38077e-16 0)
(3 7.18099e-16 0)
(3 9.76135e-16 0)
(3 9.97549e-16 0)
(3 9.85542e-16 0)
(3 9.67996e-16 0)
(3 1.09132e-15 0)
(3 1.12877e-15 0)
(3 1.07934e-15 0)
(3 1.11125e-15 0)
(3 1.17246e-15 0)
(2.104 -0.659168 0)
(2.99032 -0.000122942 0)
(3 -2.32434e-15 0)
(3 -1.32208e-15 0)
(3 -1.03798e-15 0)
(3 -6.74199e-16 0)
(3 -7.16326e-16 0)
(3 -7.16552e-16 0)
(3 -8.3764e-16 0)
(3 -7.91177e-16 0)
(3 -7.64974e-16 0)
(3 -8.16697e-16 0)
(3 -9.48937e-16 0)
(3 -1.06282e-15 0)
(3 -1.16327e-15 0)
(3 -1.0949e-15 0)
(3 -1.16236e-15 0)
(3 -1.41518e-15 0)
(3 -1.23059e-15 0)
(3 -9.73624e-16 0)
(1.93127 -0.876602 0)
(2.70194 -0.214762 0)
(3 -1.40904e-15 0)
(3 -1.26509e-15 0)
(3 -1.18603e-15 0)
(3 -1.25156e-15 0)
(3 -1.44537e-15 0)
(3 -1.73108e-15 0)
(3 -2.17633e-15 0)
(3 -2.49791e-15 0)
(3 -2.50795e-15 0)
(3 -2.64429e-15 0)
(3 -2.59088e-15 0)
(3 -2.27146e-15 0)
(3 -2.03061e-15 0)
(3 -2.20367e-15 0)
(3 -2.63614e-15 0)
(3 -2.06423e-15 0)
(3 -1.12641e-15 0)
(3 -5.86581e-16 0)
(1.82058 -1.00832 0)
(2.44512 -0.447112 0)
(3 -1.07108e-15 0)
(3 -3.60998e-16 0)
(3 2.06118e-15 0)
(3 2.90767e-15 0)
(3 2.96498e-15 0)
(3 1.70413e-15 0)
(3 1.18256e-15 0)
(3 6.1092e-16 0)
(3 1.10621e-16 0)
(3 1.51843e-16 0)
(3 6.2865e-16 0)
(3 8.91298e-16 0)
(3 1.3196e-15 0)
(3 1.66816e-15 0)
(3 1.70962e-15 0)
(3 2.10615e-15 0)
(3 2.31629e-15 0)
(3 2.72981e-15 0)
(1.76108 -1.09402 0)
(2.23995 -0.643385 0)
(3 -1.38415e-15 0)
(3 -3.15491e-16 0)
(3 5.81731e-16 0)
(3 1.3634e-15 0)
(3 1.32268e-15 0)
(3 1.09253e-15 0)
(3 9.15503e-16 0)
(3 1.00083e-15 0)
(3 1.30911e-15 0)
(3 1.77117e-15 0)
(3 2.19537e-15 0)
(3 2.10558e-15 0)
(3 1.95696e-15 0)
(3 2.31906e-15 0)
(3 2.87532e-15 0)
(3 3.56666e-15 0)
(3 3.7282e-15 0)
(3 3.06633e-15 0)
(1.72728 -1.17052 0)
(2.06949 -0.816428 0)
(3 -6.57894e-17 0)
(3 9.59842e-16 0)
(3 1.16232e-15 0)
(3 1.32318e-15 0)
(3 1.6746e-15 0)
(3 1.64074e-15 0)
(3 1.46961e-15 0)
(3 1.60745e-15 0)
(3 2.09341e-15 0)
(3 2.61261e-15 0)
(3 3.31413e-15 0)
(3 3.29799e-15 0)
(3 4.37805e-15 0)
(3 4.4552e-15 0)
(3 3.94792e-15 0)
(3 3.23407e-15 0)
(3 2.49195e-15 0)
(3 1.3963e-15 0)
(1.667 -1.20682 0)
(1.88632 -0.976565 0)
(2.97931 -0.0128294 0)
(3 6.62012e-16 0)
(3 1.1798e-15 0)
(3 1.55308e-15 0)
(3 1.86974e-15 0)
(3 1.67777e-15 0)
(3 1.42186e-15 0)
(3 1.14046e-15 0)
(3 5.95583e-16 0)
(3 1.24461e-15 0)
(3 2.05318e-15 0)
(3 2.56798e-15 0)
(3 2.11446e-15 0)
(3 1.32712e-15 0)
(3 1.79748e-16 0)
(3 1.75083e-16 0)
(3 -2.29106e-17 0)
(3 8.8234e-17 0)
(1.64612 -1.24536 0)
(1.81243 -1.10687 0)
(2.85867 -0.105171 0)
(3 -2.33906e-15 0)
(3 1.70891e-15 0)
(3 2.27764e-15 0)
(3 2.38427e-15 0)
(3 1.59983e-15 0)
(3 6.62607e-16 0)
(3 4.10316e-17 0)
(3 1.23679e-15 0)
(3 1.29828e-15 0)
(3 8.58625e-16 0)
(3 1.02008e-15 0)
(3 1.63442e-15 0)
(3 1.19277e-15 0)
(3 1.9728e-16 0)
(3 1.9785e-16 0)
(3 -2.03306e-16 0)
(3 -1.68948e-16 0)
(1.63481 -1.25679 0)
(1.62552 -1.25316 0)
(2.64497 -0.304527 0)
(3 -7.94366e-14 0)
(3 8.39713e-15 0)
(3 1.94399e-15 0)
(3 1.89733e-15 0)
(3 6.37364e-16 0)
(3 1.1475e-15 0)
(3 2.83751e-15 0)
(3 2.25568e-15 0)
(3 1.8243e-15 0)
(3 1.143e-15 0)
(3 1.44682e-15 0)
(3 1.39319e-15 0)
(3 1.0518e-15 0)
(3 4.69153e-16 0)
(3 2.08877e-16 0)
(3 -4.00755e-16 0)
(3 -9.31318e-16 0)
(1.62325 -1.27946 0)
(1.58317 -1.31433 0)
(2.42113 -0.54365 0)
(3 1.56074e-12 0)
(3 1.41263e-11 0)
(3 1.03138e-14 0)
(3 1.34259e-15 0)
(3 2.22535e-16 0)
(3 1.29563e-15 0)
(3 1.20092e-15 0)
(3 1.09927e-15 0)
(3 9.77594e-16 0)
(3 8.76701e-16 0)
(3 5.05687e-16 0)
(3 4.86038e-16 0)
(3 5.37452e-16 0)
(3 -7.51279e-16 0)
(3 -1.37863e-15 0)
(3 -2.00936e-15 0)
(3 -2.03795e-15 0)
(1.60663 -1.29473 0)
(1.48145 -1.37577 0)
(2.17643 -0.814641 0)
(3.01076 0.00899922 0)
(3 -1.66648e-08 0)
(3 -2.62515e-13 0)
(3 6.4009e-15 0)
(3 -5.57239e-17 0)
(3 3.71051e-16 0)
(3 8.63023e-17 0)
(3 2.45638e-16 0)
(3 -1.10288e-16 0)
(3 -6.19804e-16 0)
(3 -5.58007e-16 0)
(3 -7.91213e-16 0)
(3 -7.52648e-16 0)
(3 -1.49435e-15 0)
(3 -1.67549e-15 0)
(3 -1.06886e-15 0)
(3 -9.37481e-16 0)
(1.58956 -1.30717 0)
(1.46422 -1.36123 0)
(1.92395 -1.04592 0)
(2.85395 -0.127556 0)
(3 1.28801e-08 0)
(3 2.5499e-12 0)
(3 -1.30909e-14 0)
(3 5.36286e-16 0)
(3 -1.47427e-17 0)
(3 -2.18822e-16 0)
(3 -3.55953e-16 0)
(3 -4.18749e-16 0)
(3 -6.13225e-16 0)
(3 -6.70979e-16 0)
(3 -4.43352e-16 0)
(3 -2.18149e-16 0)
(3 -6.6016e-16 0)
(3 -3.96566e-16 0)
(3 1.5666e-16 0)
(3 7.04055e-16 0)
(1.59153 -1.32631 0)
(1.49431 -1.33216 0)
(1.76331 -1.18157 0)
(2.41965 -0.549573 0)
(3 4.84601e-07 0)
(3 -5.64064e-12 0)
(3 1.08677e-14 0)
(3 -1.92096e-14 0)
(3 4.63434e-15 0)
(3 -9.12347e-17 0)
(3 -3.62189e-16 0)
(3 -5.98946e-16 0)
(3 -4.56126e-16 0)
(3 -8.60571e-16 0)
(3 -1.78267e-16 0)
(3 2.80641e-16 0)
(3 8.93913e-16 0)
(3 -1.62884e-16 0)
(3 -3.31711e-16 0)
(3 -4.47237e-16 0)
(1.58065 -1.29883 0)
(1.56271 -1.29996 0)
(1.67878 -1.24004 0)
(2.19452 -0.827256 0)
(3.0229 0.0226228 0)
(3 4.70142e-12 0)
(3 1.29467e-11 0)
(3 -2.38725e-11 0)
(3 3.83709e-12 0)
(3 1.18419e-16 0)
(3 -9.78122e-16 0)
(3 2.36923e-16 0)
(3 6.51775e-17 0)
(3 -6.75383e-16 0)
(3 7.0572e-16 0)
(3 1.01102e-15 0)
(3 1.38392e-15 0)
(3 -6.87137e-16 0)
(3 -8.78949e-16 0)
(3 -6.85969e-16 0)
(1.58287 -1.27684 0)
(1.5798 -1.27629 0)
(1.64198 -1.26034 0)
(1.75514 -1.17452 0)
(2.67305 -0.280097 0)
(3 6.11159e-10 0)
(3 -1.4442e-08 0)
(3 1.30275e-08 0)
(3 -5.62781e-10 0)
(3 -2.92163e-12 0)
(3 1.03598e-13 0)
(3 4.10436e-16 0)
(3 1.70777e-16 0)
(3 -2.40255e-16 0)
(3 7.43885e-16 0)
(3 1.14703e-15 0)
(3 1.31933e-15 0)
(3 -1.24722e-15 0)
(3 -5.79954e-16 0)
(3 2.45372e-16 0)
(1.58273 -1.26545 0)
(1.59285 -1.26268 0)
(1.62819 -1.26052 0)
(1.72423 -1.20628 0)
(2.38277 -0.626438 0)
(3.01919 0.0185052 0)
(2.99976 -0.000159549 0)
(3 4.31724e-06 0)
(3 -8.57211e-08 0)
(3 9.45149e-10 0)
(3 -1.9225e-13 0)
(3 2.99506e-16 0)
(3 -1.37629e-16 0)
(3 8.59029e-16 0)
(3 1.23676e-15 0)
(3 1.29399e-15 0)
(3 1.33369e-15 0)
(3 -1.63317e-15 0)
(3 1.5886e-16 0)
(3 5.22569e-16 0)
(1.58146 -1.25291 0)
(1.60222 -1.25616 0)
(1.62322 -1.25501 0)
(1.64173 -1.26665 0)
(1.85363 -1.09188 0)
(2.7433 -0.222365 0)
(3.00499 0.00139344 0)
(2.99991 -7.88799e-05 0)
(3 1.00813e-06 0)
(3 -9.37408e-10 0)
(3 2.98058e-14 0)
(3 -4.50517e-16 0)
(3 -1.99923e-16 0)
(3 1.59133e-15 0)
(3 1.81805e-15 0)
(3 1.49292e-15 0)
(3 1.55237e-15 0)
(3 -9.33785e-16 0)
(3 1.15523e-16 0)
(3 1.75087e-15 0)
(1.58425 -1.24711 0)
(1.60526 -1.25463 0)
(1.61508 -1.2584 0)
(1.60508 -1.28448 0)
(1.69556 -1.22019 0)
(2.24804 -0.773115 0)
(3.00124 0.00528824 0)
(3.00017 0.000549221 0)
(3 -9.05241e-07 0)
(3 -5.16259e-11 0)
(3 5.42295e-14 0)
(3 1.00237e-15 0)
(3 1.2776e-15 0)
(3 1.28426e-15 0)
(3 1.63457e-15 0)
(3 1.25302e-15 0)
(3 9.68289e-16 0)
(3 5.06115e-17 0)
(3 8.32199e-16 0)
(3 1.71225e-15 0)
(1.58723 -1.24985 0)
(1.59724 -1.25883 0)
(1.60298 -1.27125 0)
(1.60516 -1.28037 0)
(1.66164 -1.26735 0)
(1.72115 -1.23286 0)
(2.24906 -0.755404 0)
(2.99427 -0.0175554 0)
(3 -5.06814e-08 0)
(3 -8.25543e-11 0)
(3 -5.11293e-16 0)
(3 9.58445e-16 0)
(3 7.43125e-15 0)
(3 -2.52051e-15 0)
(3 1.42088e-15 0)
(3 1.80491e-15 0)
(3 1.67796e-15 0)
(3 6.06239e-16 0)
(3 1.91395e-15 0)
(3 2.46628e-15 0)
(1.58282 -1.25941 0)
(1.58668 -1.26621 0)
(1.59098 -1.27164 0)
(1.59542 -1.26345 0)
(1.6011 -1.24398 0)
(1.58635 -1.26788 0)
(1.90068 -1.17398 0)
(2.97114 -0.403879 0)
(3.34737 0.625663 0)
(3 -1.13383e-11 0)
(3 -5.17276e-11 0)
(3 -4.35229e-15 0)
(3 -5.44705e-12 0)
(3 5.33797e-12 0)
(3 -1.1043e-14 0)
(3 -6.84733e-15 0)
(3 -5.51756e-16 0)
(3 1.65587e-15 0)
(3 1.56719e-15 0)
(3 2.82229e-15 0)
(1.15702 -0.781678 0)
(1.83564 -1.14802 0)
(1.84251 -1.1556 0)
(1.73558 -1.20036 0)
(1.70346 -1.19465 0)
(1.65859 -1.23804 0)
(1.65741 -1.21182 0)
(1.72763 -1.1645 0)
(1.75918 -1.23186 0)
(1.79093 -1.14043 0)
(2.26926 -0.739911 0)
(2.8594 -0.208865 0)
(3.09799 0.0284675 0)
(3.0206 0.012397 0)
(3.00455 0.00543882 0)
(3.00184 0.00301041 0)
(3.00006 0.000593308 0)
(2.99998 2.33051e-05 0)
(2.99999 -1.41465e-05 0)
(3 -5.84165e-06 0)
(1.0033 -0.0304569 0)
(1.90546 -0.846216 0)
(2.11118 -0.815694 0)
(2.01272 -0.930838 0)
(1.95213 -0.991149 0)
(1.8547 -1.09456 0)
(1.79496 -1.13055 0)
(1.76334 -1.14399 0)
(1.75986 -1.16208 0)
(1.73519 -1.20313 0)
(1.71589 -1.19462 0)
(1.86142 -1.06864 0)
(2.09701 -0.884493 0)
(2.5052 -0.574496 0)
(2.98942 -0.133089 0)
(3.07384 0.0298223 0)
(3.00803 0.00767461 0)
(3.00287 0.0038157 0)
(3.0012 0.00217529 0)
(3.00008 0.00048718 0)
(1.15883 0.106175 0)
(1.95048 0.255606 0)
(2.2365 -0.349145 0)
(2.22081 -0.560875 0)
(2.2105 -0.560402 0)
(2.14994 -0.72899 0)
(2.03446 -0.905641 0)
(1.96047 -0.982338 0)
(1.90324 -1.04112 0)
(1.85068 -1.12762 0)
(1.79086 -1.15587 0)
(1.79065 -1.14862 0)
(1.80882 -1.12883 0)
(1.85102 -1.08624 0)
(2.04157 -0.950167 0)
(2.25864 -0.830212 0)
(2.66479 -0.505109 0)
(3.0364 -0.0928805 0)
(3.0543 0.0230984 0)
(3.00384 0.00452786 0)
(1.23938 0.417752 0)
(1.78891 0.831166 0)
(2.26657 0.166457 0)
(2.39118 0.0796915 0)
(2.37123 -0.247446 0)
(2.35461 -0.334549 0)
(2.28527 -0.50432 0)
(2.223 -0.619014 0)
(2.14101 -0.746381 0)
(2.09317 -0.887184 0)
(1.98099 -0.993923 0)
(1.92127 -1.04932 0)
(1.88468 -1.07467 0)
(1.86843 -1.08916 0)
(1.87214 -1.05886 0)
(1.89734 -1.05106 0)
(1.96281 -1.02336 0)
(2.16583 -0.905222 0)
(2.38634 -0.789965 0)
(2.78482 -0.434063 0)
(0.961717 1.02952 0)
(1.69962 1.5132 0)
(2.05401 1.49467 0)
(2.25616 0.205725 0)
(2.41557 0.00408461 0)
(2.48271 0.0783773 0)
(2.48508 -0.130053 0)
(2.40394 -0.391348 0)
(2.33956 -0.479457 0)
(2.31079 -0.609652 0)
(2.21857 -0.754672 0)
(2.12709 -0.870603 0)
(2.064 -0.93512 0)
(2.00848 -0.99213 0)
(1.97786 -0.988512 0)
(1.9555 -0.995278 0)
(1.95657 -1.01493 0)
(1.9718 -0.993289 0)
(1.99649 -0.993167 0)
(2.0714 -0.976775 0)
(0.997369 1.34498 0)
(1.50248 2.05426 0)
(1.78099 1.92154 0)
(2.14001 1.18774 0)
(2.36455 1.18623 0)
(2.40442 0.262896 0)
(2.5159 0.151972 0)
(2.52639 -0.0712098 0)
(2.47018 -0.216493 0)
(2.45299 -0.346882 0)
(2.39696 -0.500133 0)
(2.32718 -0.622958 0)
(2.27302 -0.694706 0)
(2.21964 -0.757375 0)
(2.18022 -0.774651 0)
(2.13989 -0.796856 0)
(2.08685 -0.851261 0)
(2.06097 -0.887231 0)
(2.02943 -0.937986 0)
(2.05754 -0.956909 0)
(1.04435 1.32058 0)
(1.59466 2.17336 0)
(1.85093 2.06541 0)
(1.97509 1.67129 0)
(2.12526 1.59663 0)
(2.32592 1.08729 0)
(2.40801 0.878258 0)
(2.47682 0.634302 0)
(2.48123 0.311372 0)
(2.51365 0.194628 0)
(2.51412 -0.00144639 0)
(2.48057 -0.168644 0)
(2.4548 -0.290583 0)
(2.41301 -0.407604 0)
(2.35709 -0.524992 0)
(2.32427 -0.586866 0)
(2.23703 -0.699101 0)
(2.18671 -0.754816 0)
(2.1662 -0.781717 0)
(2.14627 -0.786689 0)
(0.982644 1.09552 0)
(1.59781 2.06729 0)
(1.99891 2.25796 0)
(2.12535 1.88946 0)
(2.16405 1.72031 0)
(2.24329 1.46312 0)
(2.36097 1.14905 0)
(2.44205 0.906959 0)
(2.46854 0.749292 0)
(2.51825 0.556641 0)
(2.58344 0.357 0)
(2.57302 0.101966 0)
(2.58322 -0.0766048 0)
(2.54027 -0.265987 0)
(2.48622 -0.418955 0)
(2.44378 -0.482358 0)
(2.38134 -0.551696 0)
(2.37465 -0.493519 0)
(2.32559 -0.545901 0)
(2.33189 -0.506354 0)
(0.979646 0.950738 0)
(1.32984 1.67847 0)
(1.90844 2.19178 0)
(2.337 2.19587 0)
(2.42274 1.82793 0)
(2.39667 1.7054 0)
(2.53969 1.24494 0)
(2.63071 0.996649 0)
(2.68385 0.918721 0)
(2.69499 0.560473 0)
(2.73243 0.372429 0)
(2.68958 0.119599 0)
(2.67858 0.0102615 0)
(2.64356 -0.115504 0)
(2.61153 -0.17576 0)
(2.57159 -0.196139 0)
(2.54246 -0.180889 0)
(2.52839 -0.178141 0)
(2.45262 -0.325386 0)
(2.46587 -0.315977 0)
(1.05854 0.967096 0)
(1.25775 1.56629 0)
(1.74541 2.01165 0)
(2.02567 2.30835 0)
(2.55073 1.95715 0)
(2.55036 1.91142 0)
(2.66165 1.41185 0)
(2.76193 1.14931 0)
(2.79328 0.973441 0)
(2.77713 0.752782 0)
(2.76861 0.668738 0)
(2.74293 0.495061 0)
(2.71093 0.430255 0)
(2.70019 0.346543 0)
(2.66534 0.253003 0)
(2.64272 0.198367 0)
(2.6378 0.121739 0)
(2.60987 -0.0246666 0)
(2.55362 -0.193106 0)
(2.56338 -0.16943 0)
(1.19585 1.03966 0)
(1.23838 1.49992 0)
(1.60861 1.88839 0)
(1.79876 2.11105 0)
(2.06832 2.01511 0)
(2.23224 1.99344 0)
(2.26574 1.62117 0)
(2.36526 1.37924 0)
(2.49118 1.2961 0)
(2.52021 1.31221 0)
(2.55757 1.1529 0)
(2.60235 0.996383 0)
(2.60726 0.820377 0)
(2.67395 0.733023 0)
(2.66843 0.512797 0)
(2.70532 0.377942 0)
(2.70589 0.182337 0)
(2.68512 0.0105785 0)
(2.63922 -0.0275973 0)
(2.621 0.00112169 0)
(1.30863 1.19417 0)
(1.31498 1.53852 0)
(1.50523 1.8901 0)
(1.72149 2.04609 0)
(1.78677 2.10258 0)
(1.86008 2.06805 0)
(2.095 1.8204 0)
(2.21879 1.60607 0)
(2.25806 1.55215 0)
(2.32162 1.50945 0)
(2.4414 1.28454 0)
(2.55863 1.18119 0)
(2.61039 0.918952 0)
(2.73539 0.807794 0)
(2.72963 0.522033 0)
(2.75395 0.402209 0)
(2.75014 0.261918 0)
(2.73145 0.213373 0)
(2.70881 0.340555 0)
(2.66811 0.249002 0)
(1.40846 1.42075 0)
(1.43427 1.62697 0)
(1.48498 1.9962 0)
(1.68458 2.0937 0)
(1.6694 2.15394 0)
(1.80139 2.06255 0)
(1.97113 1.93265 0)
(2.12072 1.69702 0)
(2.21495 1.59892 0)
(2.37452 1.52331 0)
(2.48807 1.2708 0)
(2.63949 1.17002 0)
(2.6868 0.916521 0)
(2.74079 0.850484 0)
(2.77158 0.712703 0)
(2.77155 0.722795 0)
(2.76179 0.631315 0)
(2.73316 0.639522 0)
(2.73188 0.688275 0)
(2.70443 0.475224 0)
(1.60818 1.57382 0)
(1.57905 1.72913 0)
(1.53099 2.03248 0)
(1.72496 2.12529 0)
(1.64635 2.18516 0)
(1.85366 2.06581 0)
(1.97588 2.00941 0)
(2.18529 1.74715 0)
(2.33677 1.65817 0)
(2.49936 1.55594 0)
(2.56579 1.4606 0)
(2.6667 1.34502 0)
(2.70896 1.26606 0)
(2.70961 1.24117 0)
(2.71768 1.12919 0)