/*--------------------------------*- C++ -*----------------------------------*\
  =========                 |
  \\      /  F ield         | OpenFOAM: The Open Source CFD Toolbox
   \\    /   O peration     | Website:  https://openfoam.org
    \\  /    A nd           | Version:  7
     \\/     M anipulation  |
\*---------------------------------------------------------------------------*/
FoamFile
{
    version     2.0;
    format      ascii;
    class       volScalarField;
    location    "6.2";
    object      p;
}
// * * * * * * * * * * * * * * * * * * * * * * * * * * * * * * * * * * * * * //

dimensions      [1 -1 -2 0 0 0 0];

internalField   nonuniform List<scalar> 
3700
(
0.105045
0.180224
0.225993
0.280659
0.296656
0.318869
0.358512
0.408982
0.433108
0.443147
0.459095
0.462841
0.475788
0.495402
0.486447
0.497105
0.519575
0.52209
0.528615
0.523929
0.0882369
0.0853497
0.0964046
0.115812
0.105521
0.104245
0.119743
0.139928
0.134071
0.11563
0.117569
0.137262
0.169195
0.185695
0.184226
0.189443
0.201839
0.22201
0.243667
0.230912
0.10191
0.0869522
0.0812638
0.0737622
0.0627039
0.0551504
0.0535388
0.0550358
0.0543557
0.057865
0.0611361
0.0677925
0.0765665
0.0881005
0.0995339
0.10999
0.118515
0.123323
0.127377
0.127484
0.113103
0.0862513
0.0763125
0.0662447
0.0595054
0.0585687
0.06434
0.0731458
0.0796473
0.090777
0.0851551
0.0878786
0.0915183
0.101157
0.113436
0.128543
0.145906
0.162513
0.178955
0.187138
0.117007
0.0812671
0.0655821
0.055928
0.0546927
0.0575331
0.0666832
0.0816705
0.100479
0.116072
0.122619
0.130149
0.125671
0.126302
0.127654
0.137168
0.156612
0.183139
0.209514
0.244151
0.112742
0.0699771
0.051402
0.0470537
0.0475101
0.0552449
0.0638131
0.0796372
0.105661
0.127596
0.149163
0.163079
0.177152
0.188185
0.189049
0.187991
0.192977
0.208572
0.239165
0.303905
0.102998
0.0588759
0.0448874
0.0437407
0.0464028
0.0553477
0.0630357
0.0774045
0.101918
0.128451
0.161575
0.182641
0.212028
0.237388
0.259209
0.275392
0.288835
0.300993
0.317899
0.384244
0.0878671
0.051305
0.0418562
0.0417806
0.0501495
0.067806
0.0780803
0.0943252
0.110707
0.129132
0.162046
0.192218
0.237029
0.276362
0.314819
0.357489
0.39352
0.430391
0.452777
0.533009
0.0690477
0.0425937
0.0379879
0.0404675
0.0595713
0.0901558
0.112748
0.140215
0.162235
0.182638
0.196977
0.222891
0.266326
0.318202
0.37117
0.433033
0.499359
0.569849
0.618843
0.735568
0.0499725
0.0348773
0.0338783
0.0391949
0.0608838
0.0999476
0.136952
0.179119
0.222438
0.274202
0.313725
0.356245
0.396448
0.44412
0.486268
0.543544
0.628
0.729185
0.835456
0.97067
0.0359673
0.0291723
0.0301771
0.0376089
0.0574658
0.0981976
0.13849
0.187102
0.254507
0.345816
0.423135
0.49684
0.573752
0.64331
0.702212
0.769859
0.849261
0.944823
1.15351
1.14593
0.0279232
0.0247383
0.0264843
0.0374559
0.0563156
0.0951096
0.131706
0.178661
0.270068
0.397741
0.520682
0.636644
0.760198
0.85939
0.970891
1.08659
1.20129
1.31383
1.53064
1.49554
0.024415
0.0213295
0.0214432
0.0374335
0.0745816
0.148719
0.215082
0.295672
0.437862
0.583068
0.735579
0.874045
1.0189
1.14873
1.31383
1.49852
1.67862
1.84332
2.08713
2.07421
0.022911
0.0187575
0.0181911
0.0472038
0.154779
0.289943
0.417233
0.584909
0.796432
1.00624
1.18303
1.34254
1.50355
1.65973
1.86111
2.09388
2.33271
2.58256
2.79176
2.99266
0.0215192
0.0187432
0.0195193
0.0968682
0.267577
0.433776
0.635034
0.898989
1.19648
1.50147
1.73535
1.9613
2.18505
2.42381
2.7201
3.0014
3.27039
3.51179
3.65481
3.77763
0.0171602
0.025743
0.0574573
0.194974
0.396778
0.65045
1.00639
1.41535
1.87408
2.2622
2.55669
2.83798
3.1203
3.42838
3.7515
3.9568
4.08126
4.13237
4.0399
3.91549
0.0137514
0.0425857
0.148285
0.384135
0.808389
1.41406
2.00161
2.58105
3.17366
3.55445
3.78582
4.02118
4.23359
4.39705
4.4751
4.39802
4.17563
3.63696
2.78294
1.89059
0.0176224
0.105859
0.485061
1.18086
2.10484
2.8998
3.55954
4.26193
4.77624
4.81929
4.73197
4.74622
4.70941
4.54618
4.03852
3.07629
2.0925
1.33027
1.01759
0.992843
0.316457
0.91123
2.03505
3.23316
4.18915
4.80343
5.37464
5.87102
5.73512
5.286
4.84966
4.31546
3.39958
2.33048
1.42799
1.03039
0.989401
0.99495
0.997337
0.999445
2.32567
3.64537
4.9029
5.71431
6.17933
6.40456
6.54642
6.25021
4.56125
3.22127
2.38153
1.5707
1.08137
0.987416
0.992807
0.996216
0.999137
0.999972
1.00002
1.00001
6.99123
6.9382
6.90951
6.91848
6.98497
6.78258
6.02698
2.33743
0.636453
1
1
1
1
1
1
1
1
1
1
1
6.95245
6.8988
6.83954
6.81156
6.92949
5.76688
2.56502
1.01394
1
1
1
1
1
1
1
1
1
1
1
1
6.79815
6.84939
6.78971
6.5789
6.34024
3.32902
1.03435
0.999473
1
1
1
1
1
1
1
1
1
1
1
1
6.66825
6.83086
6.82532
6.38389
4.75118
1.48732
0.994107
1.00009
0.999999
1
1
1
1
1
1
1
1
1
1
1
6.51079
6.83716
6.86851
6.26483
2.78979
0.973528
1.00037
0.999994
1
1
1
1
1
1
1
1
1
1
1
1
6.38627
6.74831
6.84362
5.00079
1.3651
1
1
1
1
1
1
1
1
1
1
1
1
1
1
1
6.3505
6.64859
6.58488
3.46834
0.978951
1
1
1
1
1
1
1
1
1
1
1
1
1
1
1
6.47442
6.64692
6.10127
2.07073
1
1
1
1
1
1
1
1
1
1
1
1
1
1
1
1
6.93889
6.72232
4.94578
1.17431
1
1
1
1
1
1
1
1
1
1
1
1
1
1
1
1
7.21407
6.35752
3.54312
0.987507
1
1
1
1
1
1
1
1
1
1
1
1
1
1
1
1
7.43701
6.02971
2.28942
1
1
1
1
1
1
1
1
1
1
1
1
1
1
1
1
1
7.51947
5.39707
1.58857
1
1
1
1
1
1
1
1
1
1
1
1
1
1
1
1
1
7.56263
4.72362
1.17122
1
1
1
1
1
1
1
1
1
1
1
1
1
1
1
1
1
7.41621
3.96331
1.00086
1
1
1
1
1
1
1
1
1
1
1
1
1
1
1
1
1
7.12574
3.2063
1
1
1
1
1
1
1
1
1
1
1
1
1
1
1
1
1
1
6.90608
2.59554
1
1
1
1
1
1
1
1
1
1
1
1
1
1
1
1
1
1
6.76119
1.90061
1
1
1
1
1
1
1
1
1
1
1
1
1
1
1
1
1
1
6.28324
1.33497
1
1
1
1
1
1
1
1
1
1
1
1
1
1
1
1
1
1
5.66955
1.00462
1
1
1
1
1
1
1
1
1
1
1
1
1
1
1
1
1
1
4.67154
1.00007
1
1
1
1
1
1
1
1
1
1
1
1
1
1
1
1
1
1
4.67076
1.00008
1
1
1
1
1
1
1
1
1
1
1
1
1
1
1
1
1
1
5.68293
1.00453
1
1
1
1
1
1
1
1
1
1
1
1
1
1
1
1
1
1
6.27211
1.33039
1
1
1
1
1
1
1
1
1
1
1
1
1
1
1
1
1
1
6.76524
1.89084
1
1
1
1
1
1
1
1
1
1
1
1
1
1
1
1
1
1
6.91782
2.59584
1
1
1
1
1
1
1
1
1
1
1
1
1
1
1
1
1
1
7.11643
3.22231
1
1
1
1
1
1
1
1
1
1
1
1
1
1
1
1
1
1
7.41434
3.95643
1.00051
1
1
1
1
1
1
1
1
1
1
1
1
1
1
1
1
1
7.56607
4.72181
1.17065
1
1
1
1
1
1
1
1
1
1
1
1
1
1
1
1
1
7.52183
5.39074
1.59072
1
1
1
1
1
1
1
1
1
1
1
1
1
1
1
1
1
7.44543
6.03498
2.2777
1
1
1
1
1
1
1
1
1
1
1
1
1
1
1
1
1
7.22109
6.35653
3.53412
0.98744
1
1
1
1
1
1
1
1
1
1
1
1
1
1
1
1
6.93627
6.71675
4.93899
1.18095
1
1
1
1
1
1
1
1
1
1
1
1
1
1
1
1
6.47378
6.66456
6.12407
2.07101
1
1
1
1
1
1
1
1
1
1
1
1
1
1
1
1
6.34892
6.6493
6.57442
3.49209
0.984123
1
1
1
1
1
1
1
1
1
1
1
1
1
1
1
6.38147
6.73846
6.8256
4.9545
1.35782
1
1
1
1
1
1
1
1
1
1
1
1
1
1
1
6.50518
6.83609
6.87371
6.32446
2.76004
0.973852
1.00037
0.999994
1
1
1
1
1
1
1
1
1
1
1
1
6.66379
6.8318
6.83924
6.4048
4.76146
1.50325
0.993623
1.0001
0.999999
1
1
1
1
1
1
1
1
1
1
1
6.79129
6.84603
6.77142
6.5564
6.31748
3.35041
1.03984
0.999361
1
1
1
1
1
1
1
1
1
1
1
1
6.944
6.89411
6.82359
6.77168
6.93669
5.77108
2.55704
1.01157
1
1
1
1
1
1
1
1
1
1
1
1
6.9928
6.94015
6.91176
6.93623
7.01496
6.78472
6.02463
2.32377
0.638651
1
1
1
1
1
1
1
1
1
1
1
2.32849
3.64901
4.9224
5.74407
6.21033
6.40663
6.543
6.24422
4.5581
3.22086
2.38145
1.57129
1.08185
0.98749
0.992838
0.996228
0.999138
0.999972
1.00002
1.00001
0.312071
0.873751
1.97602
3.18909
4.20708
4.84209
5.3918
5.87074
5.73399
5.28525
4.84877
4.31331
3.39795
2.32909
1.42668
1.02991
0.989382
0.994946
0.997335
0.999446
0.0336201
0.163098
0.508454
1.1929
2.07468
2.86739
3.55474
4.26786
4.78368
4.82126
4.7303
4.74381
4.70732
4.54511
4.03866
3.07747
2.09335
1.33032
1.01749
0.992848
0.00688553
0.0425059
0.174203
0.366154
0.800739
1.41576
1.99295
2.57269
3.16922
3.54919
3.78221
4.01861
4.23034
4.39745
4.47685
4.3999
4.17823
3.63832
2.78199
1.88917
0.00946226
0.0175088
0.0735302
0.207391
0.410884
0.652033
1.00477
1.41789
1.8761
2.26163
2.55475
2.83408
3.11543
3.42556
3.75305
3.95997
4.08347
4.13249
4.03954
3.91473
0.0138707
0.0127802
0.0297147
0.115926
0.258821
0.429231
0.643285
0.905283
1.20549
1.5074
1.73743
1.96085
2.18377
2.4233
2.72226
3.00565
3.27425
3.51426
3.65557
3.77736
0.0167081
0.0141479
0.0196677
0.0477818
0.140366
0.286393
0.415521
0.587444
0.799685
1.01101
1.1866
1.34494
1.5044
1.66043
1.86228
2.09572
2.33395
2.58204
2.79162
2.991
0.0221079
0.0175292
0.0204147
0.0304593
0.0733631
0.152454
0.209753
0.291406
0.431328
0.580001
0.733095
0.871636
1.01591
1.14597
1.31129
1.498
1.67922
1.84509
2.08709
2.07379
0.0310275
0.0230334
0.0228027
0.03341
0.0607974
0.0940108
0.132264
0.178926
0.268222
0.393058
0.516154
0.632068
0.757271
0.857578
0.970643
1.08732
1.20289
1.31465
1.53014
1.49336
0.0438454
0.0301238
0.0276013
0.0366188
0.0592945
0.0935824
0.140052
0.188264
0.257309
0.345218
0.422449
0.495559
0.573399
0.642864
0.702822
0.77049
0.84832
0.94211
1.15169
1.14541
0.0595706
0.0380037
0.0326158
0.040878
0.0593872
0.0957127
0.141246
0.181131
0.226362
0.275926
0.314587
0.356623
0.396378
0.443535
0.484568
0.540773
0.624613
0.727473
0.835941
0.972856
0.0781571
0.0457087
0.0371489
0.0464883
0.0574574
0.087382
0.120366
0.143019
0.16375
0.183949
0.197065
0.222578
0.264035
0.31538
0.368423
0.430809
0.498953
0.571074
0.621848
0.738413
0.0974839
0.0511028
0.0396737
0.0454658
0.0512521
0.063992
0.0813716
0.0949843
0.109712
0.129463
0.161679
0.191464
0.235655
0.275512
0.31428
0.357927
0.395201
0.433974
0.455218
0.529979
0.110958
0.0558837
0.0420468
0.0439952
0.0464649
0.0520784
0.0621012
0.081082
0.10394
0.129737
0.161643
0.182349
0.21198
0.237843
0.260416
0.277905
0.291061
0.303034
0.317698
0.379261
0.118815
0.0637403
0.0472792
0.0456856
0.0463066
0.0521376
0.0634932
0.0855353
0.108747
0.128848
0.149183
0.162189
0.177478
0.189564
0.192501
0.19037
0.193804
0.206723
0.235956
0.300597
0.119714
0.0742729
0.0574741
0.0509294
0.049758
0.0576299
0.0680604
0.0876099
0.103837
0.115115
0.122226
0.129217
0.127075
0.128028
0.128799
0.136109
0.154341
0.18125
0.208446
0.244646
0.110363
0.0826967
0.0701015
0.0597707
0.0573455
0.0610699
0.0658925
0.0760236
0.0810379
0.0879309
0.0836042
0.0870155
0.0909059
0.100385
0.113015
0.128099
0.145559
0.162528
0.179379
0.188968
0.100276
0.0839652
0.0790919
0.0714092
0.0631253
0.0595111
0.0544016
0.0547066
0.055402
0.057528
0.0603613
0.066868
0.0757609
0.0876275
0.0999465
0.111234
0.120474
0.124875
0.128333
0.128479
0.0928827
0.0925071
0.104751
0.115788
0.131064
0.148154
0.142036
0.141906
0.154644
0.166348
0.174794
0.160626
0.147133
0.157627
0.181628
0.210546
0.228993
0.211765
0.200586
0.192046
0.128879
0.208328
0.239885
0.275884
0.317361
0.364523
0.382144
0.417984
0.452642
0.466695
0.479604
0.468801
0.460587
0.486761
0.494197
0.503436
0.51241
0.498318
0.495529
0.507987
0.558502
0.645686
0.717295
0.796022
0.800029
0.834914
0.865338
0.896701
0.898677
0.893588
0.893938
0.907653
0.941982
0.972352
0.96661
0.943549
0.937009
0.946481
0.962694
0.967279
0.292243
0.4185
0.543936
0.681598
0.741812
0.810965
0.849343
0.89222
0.903201
0.910267
0.913584
0.91756
0.933741
0.958931
0.964558
0.957297
0.949093
0.948443
0.954046
0.960686
0.134933
0.159513
0.232356
0.344081
0.53771
0.687125
0.769704
0.84987
0.890763
0.917447
0.922865
0.923458
0.927811
0.941457
0.956023
0.962684
0.964891
0.961386
0.953983
0.954756
0.186882
0.2106
0.243633
0.243875
0.262898
0.340492
0.533769
0.718196
0.824162
0.889125
0.935441
0.92488
0.914238
0.920585
0.943118
0.962357
0.967155
0.965012
0.954731
0.956133
0.238637
0.254942
0.274312
0.299705
0.296808
0.285409
0.304597
0.388963
0.597401
0.793034
0.895903
0.911195
0.906337
0.906368
0.931624
0.961968
0.969524
0.963533
0.951897
0.955891
0.313
0.318437
0.336275
0.348978
0.336835
0.327112
0.326794
0.323758
0.356119
0.493988
0.717293
0.885313
0.90726
0.908513
0.923382
0.955701
0.96812
0.959758
0.951385
0.958769
0.397962
0.393763
0.393063
0.400193
0.397347
0.382082
0.369034
0.360303
0.359556
0.370877
0.455415
0.6734
0.87577
0.916457
0.915692
0.946132
0.957399
0.94664
0.95135
0.963083
0.525416
0.494864
0.445777
0.440586
0.442604
0.431858
0.409348
0.394751
0.392322
0.385075
0.387614
0.440504
0.637357
0.862273
0.899167
0.949696
0.944073
0.93816
0.955587
0.964985
0.68813
0.613659
0.52149
0.480669
0.493688
0.494423
0.471692
0.448737
0.433517
0.420758
0.403983
0.407608
0.447249
0.62609
0.844595
0.942144
0.919674
0.930361
0.963705
0.963892
0.878714
0.769175
0.629007
0.556518
0.547947
0.55067
0.529063
0.494853
0.4732
0.446593
0.42695
0.423582
0.432225
0.462036
0.619026
0.833334
0.877737
0.93027
0.969246
0.960993
1.25828
1.00224
0.808373
0.641677
0.595494
0.61054
0.619784
0.592621
0.552172
0.515009
0.481361
0.473004
0.472761
0.469492
0.47949
0.558032
0.740016
0.884198
0.938595
0.952114
2.02255
1.48939
1.21497
0.985088
0.76711
0.732609
0.730712
0.688521
0.617553
0.579885
0.545108
0.536968
0.533344
0.515328
0.481084
0.483261
0.522372
0.638062
0.787014
0.90961
2.50637
2.15934
1.71353
1.38781
1.10164
0.881543
0.82212
0.763477
0.688118
0.681583
0.6642
0.637215
0.617976
0.586835
0.546793
0.520654
0.526265
0.537142
0.576479
0.744545
2.36562
2.34846
2.23353
1.91545
1.59393
1.264
1.06327
0.968954
0.870513
0.818312
0.766606
0.706602
0.663942
0.63428
0.600577
0.585961
0.576244
0.565445
0.547037
0.58008
1.68269
2.14496
2.22052
2.18877
2.06521
1.79859
1.47078
1.25688
1.07779
0.950853
0.864113
0.771837
0.724818
0.72096
0.706597
0.682182
0.655177
0.6232
0.575542
0.574543
1.10783
1.43765
1.84837
2.11257
2.11177
2.07816
1.92984
1.6869
1.44027
1.21924
1.09338
0.975462
0.893869
0.852466
0.802371
0.743625
0.698572
0.658093
0.629042
0.607597
1.00447
1.04457
1.20616
1.54906
1.85814
2.0213
2.01591
1.97156
1.84221
1.61306
1.39533
1.22985
1.07604
0.973227
0.888853
0.808986
0.771212
0.743051
0.728133
0.693936
1.00009
1.00113
1.0106
1.0776
1.26776
1.57063
1.82689
1.93456
1.92779
1.8855
1.76195
1.58262
1.38414
1.21827
1.09966
1.00366
0.932119
0.883981
0.835045
0.759686
1
1.00001
1.00015
1.00241
1.01912
1.09984
1.29078
1.5575
1.76824
1.85797
1.85122
1.81598
1.7196
1.55194
1.38196
1.22957
1.09734
0.996483
0.922889
0.831832
1
1
1
1.00003
1.00033
1.00388
1.0246
1.10929
1.28662
1.52363
1.70304
1.78796
1.78463
1.75667
1.67719
1.54007
1.38287
1.22853
1.12372
0.99996
1
1
1
1
1
1.00005
1.0005
1.00472
1.02704
1.10509
1.26448
1.47548
1.64097
1.72555
1.72301
1.70325
1.64459
1.52796
1.39508
1.19554
1
1
1
1
1
1
1
1.00006
1.0006
1.00468
1.02548
1.09499
1.23399
1.42175
1.57456
1.66838
1.66611
1.65304
1.6165
1.46382
1
1
1
1
1
1
1
1
1.00001
1.00006
1.00059
1.0043
1.02154
1.08097
1.19717
1.37221
1.50485
1.60848
1.61537
1.59159
1
1
1
1
1
1
1
1
1
1
1.00001
1.00006
1.00048
1.00356
1.01727
1.06375
1.16549
1.3139
1.4431
1.54958
1
1
1
1
1
1
1
1
1
1
1
1
1
1.00005
1.0004
1.00256
1.01421
1.05118
1.13582
1.38824
1.62531
2.46503
2.58589
2.08595
1.30985
1.03701
1.00188
1.00005
1
1
1
1
1
1
1
2.34543
2.81683
2.5286
1.54082
1.04817
1.0008
1
1
1
1
1
1
1
1
1
2.93185
2.87296
1.9816
1.15249
1.00522
1.00005
1
1
1
1
1
1
1
1
1
3.2527
2.55652
1.36463
1.01913
1.00018
1
1
1
1
1
1
1
1
1
1
3.31864
1.68433
1.04752
1.00054
1
1
1
1
1
1
1
1
1
1
1
2.07073
1.07343
1.00047
0.999998
0.999999
1
1
1
1
1
1
1
1
1
1
1.10294
1.00059
0.999997
1
1
1
1
1
1
1
1
1
1
1
1
0.998129
0.999864
0.999996
1
1
1
1
1
1
1
1
1
1
1
1
0.999967
1
1
1
1
1
1
1
1
1
1
1
1
1
1
1
1
1
1
1
1
1
1
1
1
1
1
1
1
1
1
1
1
1
1
1
1
1
1
1
1
1
1
1
1
1
1
1
1
1
1
1
1
1
1
1
1
1
1
1
1
1
1
1
1
1
1
1
1
1
1
1
1
1
1
1
1
1
1
1
1
1
1
1
1
1
1
1
1
1
1
1
1
1
1
1
1
1
1
1
1
1
1
1
1
1
1
1
1
1
1
1
1
1
1
1
1
1
1
1
1
1
1
1
1
1
1
1
1
1
1
1
1
1
1
1
1
1
1
1
1
1
1
1
1
1
1
1
1
1
1
1
1
1
1
1
1
1
1
1
1
1
1
1
1
1
1
1
1
1
1
1
1
1
1
1
1
1
1
1
1
1
1
1
1
1
1
1
1
1
1
1
1
1
1
1
1
1
1
1
1
1
1
1
1
1
1
1
1
1
1
1
1
1
1
1
1
1
1
1
1
1
1
1
1
1
1
1
1
1
1
1
1
1
1
1
1
1
1
1
1
1
1
1
1
1
1
1
1
1
1
1
1
1
1
1
1
1
1
1
1
1
1
1
1
1
1
1
1
1
1
1
1
1
1
1
1
1
1
1
1
1
1
1
1
1
1
1
1
1
1
1
1
1
1
1
1
1
1
1
1
1
1
1
1
1
1
1
1
1
1
1
1
1
1
1
1
1
1
1
1
1
1
1
1
1
1
1
1
1
1
1
1
1
1
1
1
1
1
1
1
1
1
1
1
1
1
1
1
1
1
1
1
1
1
1
1
1
1
1
1
1
1
1
1
1
1
1
1
1
1
1
1
1
1
1
1
1
1
1
1
1
1
1
1
1
1
1
1
1
1
1
1
1
1
1
1
1
1
1
1
1
1
1
1
1
1
1
1
1
1
1
1
1
1
1
1
1
1
1
1
1
1
1
1
1
1
1
1
1
1
1
1
1
1
1
1
1
1
1
1
1
1
1
1
1
1
1
1
1
1
1
1
1
1
1
1
1
1
1
1
1
1
1
1
1
1
1
1
1
1
1
1
1
1
1
1
1
1
1
1
1
1
1
1
1
1
1
1
1
1
1
1
1
1
1
1
1
1
1
1
1
1
1
1
1
1
1
1
1
1
1
1
1
1
1
1
1
1
1
1
1
1
1
1
1
1
1
1
1
1
1
1
1
1
1
1
1
1
1
1
1
1
1
1
1
1
1
1
1
1
1
1
1
1
1
1
1
1
1
1
1
1
1
1
1
1
1
1
1
1
1
1
1
1
1
1
1
1
1
1
1
1
1
1
1
1
1
1
1
1
1
1
1
1
1
1
1
1
1
1
1
1
1
1
1
1
1
1
1
1
1
1
1
1
1
1
1
1
1
1
1
1
1
1
1
1
1
1
1
1
1
1
1
1
1
1
1
1
1
1
1
1
1
1
1
1
1
1
1
1
1
1
1
1
1
1
1
1
1
1
1
1
1
1
1
1
1
1
1
1
1
1
1
1
1
1
1
1
1
1
1
1
1
1
1
1
1
1
1
1
1
1
1
1
1
1
1
1
1
1
1
1
1
1
1
1
1
1
1
1
1
1
1
1
1
1
1
1
1
1
1
1
1
1
1
1
1
1
1
1
1
1
1
1
1
1
1
1
1
1
1
1
1
1
1
1
1
1
1
1
1
1
1
1
1
1
1
1
1
1
1
1
1
1
1
1
1
1
1
1
1
1
1
1
1
1
1
1
1
1
1
1
1
1
1
1
1
1
1
1
1
1
1
1
1
1
1
1
1
1
1
1
1
1
1
1
1
1
1
1
1
1
1
1
1
1
1
1
1
1
1
1
1
1
1
1
1
1
1
1
1
1
1
1
1
1
1
1
1
1
1
1
1
1
0.999967
1
1
1
1
1
1
1
1
1
1
1
1
1
1
0.99813
0.999864
0.999996
1
1
1
1
1
1
1
1
1
1
1
1
1.10277
1.00058
0.999997
1
1
1
1
1
1
1
1
1
1
1
1
2.07047
1.07345
1.00047
0.999998
0.999999
1
1
1
1
1
1
1
1
1
1
3.31839
1.6842
1.04751
1.00054
1
1
1
1
1
1
1
1
1
1
1
3.25214
2.55657
1.3646
1.0191
1.00018
1
1
1
1
1
1
1
1
1
1
2.93148
2.87325
1.98234
1.15263
1.00524
1.00005
1
1
1
1
1
1
1
1
1
2.34524
2.81714
2.52865
1.54095
1.04815
1.0008
1
1
1
1
1
1
1
1
1
1.62578
2.4655
2.5859
2.08563
1.30965
1.03705
1.00189
1.00005
1
1
1
1
1
1
1
1.25624
2.01928
2.50706
2.36609
1.68256
1.10708
1.00445
1.00009
1
1
1
1
1
1
1
1.00557
1.49017
2.15798
2.34908
2.14832
1.43869
1.04464
1.00113
1.00001
1
1
1
1
1
1
0.811185
1.22367
1.71702
2.23142
2.21847
1.84887
1.2066
1.01063
1.00015
1
1
1
1
1
1
0.640693
0.985329
1.3861
1.9193
2.18712
2.11235
1.54961
1.07766
1.00241
1.00003
1
1
1
1
1
0.594714
0.76481
1.08996
1.58572
2.06475
2.11144
1.85816
1.2678
1.01908
1.00033
1
1
1
1
1
0.609437
0.736711
0.905395
1.2592
1.78671
2.07657
2.02043
1.57064
1.09991
1.00387
1.00005
1
1
1
1
0.615595
0.723249
0.831769
1.08073
1.47625
1.92771
2.01555
1.82618
1.29057
1.02457
1.0005
1
1
1
1
0.590964
0.678251
0.75095
0.962557
1.26692
1.69185
1.97216
1.93527
1.55723
1.10904
1.0047
1.00006
1
1
1
0.561407
0.619798
0.685098
0.857522
1.07115
1.44652
1.84428
1.92883
1.76877
1.28625
1.02695
1.0006
1.00001
1
1
0.524717
0.585989
0.687385
0.820502
0.939736
1.21183
1.61745
1.88578
1.85796
1.52332
1.10496
1.00467
1.00006
1
1
0.481178
0.545324
0.670402
0.77526
0.866844
1.0855
1.39319
1.76281
1.85106
1.70269
1.26444
1.0255
1.00059
1.00001
1
0.467949
0.530364
0.633367
0.710783
0.789461
0.981767
1.2256
1.5834
1.81572
1.78752
1.47536
1.09505
1.00431
1.00006
1
0.467476
0.528276
0.610955
0.656427
0.735568
0.91004
1.07758
1.38376
1.71793
1.78418
1.6408
1.23406
1.02154
1.00048
1
0.469768
0.514357
0.582684
0.624924
0.71923
0.860264
0.97271
1.21292
1.5525
1.75647
1.72544
1.42169
1.08098
1.00357
1.00005
0.48346
0.48647
0.543193
0.595859
0.695733
0.79891
0.889616
1.09934
1.38231
1.67716
1.72292
1.57451
1.19709
1.01724
1.0004
0.567572
0.48896
0.518291
0.580195
0.672872
0.738634
0.815715
1.00478
1.22803
1.54047
1.70324
1.66822
1.37204
1.06374
1.00256
0.746639
0.53056
0.528404
0.56935
0.649985
0.693194
0.772122
0.935051
1.09722
1.38314
1.64412
1.6659
1.50459
1.16546
1.01421
0.885794
0.647165
0.542901
0.561145
0.620596
0.656352
0.73884
0.884902
0.997499
1.22713
1.52718
1.65283
1.60841
1.31385
1.05118
0.937977
0.78972
0.580375
0.551404
0.577174
0.627301
0.727692
0.83431
0.923302
1.12188
1.39483
1.6165
1.61538
1.44312
1.13585
0.950895
0.905503
0.743548
0.585566
0.579825
0.602021
0.696298
0.7577
0.83238
0.999481
1.19596
1.46412
1.59173
1.54976
1.38849
0.879152
0.765955
0.622785
0.554222
0.549126
0.557444
0.536151
0.49921
0.47969
0.447996
0.426807
0.420512
0.430444
0.467177
0.628477
0.854381
0.884663
0.929823
0.970612
0.962928
0.686554
0.610673
0.51128
0.478101
0.491362
0.494798
0.472809
0.451541
0.433815
0.416545
0.398055
0.403882
0.448395
0.636382
0.851413
0.934367
0.911962
0.920918
0.961413
0.968003
0.52488
0.490844
0.441563
0.444398
0.447933
0.432555
0.408699
0.397423
0.396391
0.384871
0.38636
0.437616
0.633445
0.873056
0.911565
0.935535
0.923034
0.924858
0.949274
0.96856
0.398645
0.394762
0.385905
0.395173
0.395503
0.379344
0.367974
0.364309
0.359798
0.37022
0.455965
0.668731
0.875542
0.920328
0.913846
0.932138
0.936654
0.932038
0.944629
0.966603
0.314383
0.316931
0.336225
0.350849
0.341632
0.326615
0.327443
0.325785
0.353062
0.49242
0.721921
0.889494
0.915083
0.910221
0.912803
0.943509
0.961316
0.95469
0.951153
0.960743
0.240632
0.252851
0.273916
0.302584
0.301865
0.28753
0.304293
0.38466
0.586929
0.789849
0.902264
0.921232
0.916774
0.903562
0.919254
0.956991
0.974727
0.971641
0.957169
0.95722
0.187453
0.21093
0.240567
0.2439
0.26007
0.334893
0.527903
0.711664
0.828382
0.893221
0.942472
0.938914
0.923077
0.915281
0.930683
0.95867
0.976844
0.9768
0.965686
0.956848
0.134875
0.159349
0.234291
0.336608
0.52606
0.68865
0.764475
0.841596
0.892777
0.917446
0.931828
0.935269
0.931811
0.933781
0.94515
0.962568
0.972909
0.975265
0.968849
0.959323
0.278273
0.412541
0.547281
0.677563
0.750273
0.818768
0.847577
0.883576
0.898322
0.908275
0.918393
0.930082
0.939629
0.949708
0.957335
0.960509
0.962521
0.964878
0.965688
0.962139
0.558016
0.64511
0.718037
0.795038
0.806095
0.844853
0.865056
0.896963
0.907793
0.908233
0.911337
0.921435
0.94422
0.9656
0.962959
0.950416
0.943377
0.949528
0.964824
0.966245
)
;

boundaryField
{
    inlet
    {
        type            fixedValue;
        value           uniform 1;
    }
    outlet
    {
        type            zeroGradient;
    }
    airfoil
    {
        type            zeroGradient;
    }
    top
    {
        type            symmetryPlane;
    }
    bottom
    {
        type            symmetryPlane;
    }
    defaultFaces
    {
        type            empty;
    }
}


// ************************************************************************* //
