/*--------------------------------*- C++ -*----------------------------------*\
  =========                 |
  \\      /  F ield         | OpenFOAM: The Open Source CFD Toolbox
   \\    /   O peration     | Website:  https://openfoam.org
    \\  /    A nd           | Version:  7
     \\/     M anipulation  |
\*---------------------------------------------------------------------------*/
FoamFile
{
    version     2.0;
    format      ascii;
    class       volScalarField;
    location    "6.2";
    object      rho;
}
// * * * * * * * * * * * * * * * * * * * * * * * * * * * * * * * * * * * * * //

dimensions      [1 -3 0 0 0 0 0];

internalField   nonuniform List<scalar> 
3700
(
0.146323
0.250467
0.313879
0.389635
0.411904
0.442641
0.49711
0.566382
0.599669
0.613679
0.635861
0.640859
0.658474
0.685639
0.673452
0.688407
0.719521
0.722957
0.73201
0.725632
0.123314
0.119297
0.13468
0.161666
0.147378
0.145544
0.166815
0.194647
0.186591
0.161167
0.163953
0.191205
0.235392
0.258394
0.256622
0.264047
0.281288
0.309233
0.339187
0.321544
0.142394
0.12156
0.113652
0.103204
0.0877818
0.0772485
0.075011
0.0771143
0.0761806
0.0810967
0.0856747
0.0949775
0.107234
0.123346
0.139321
0.153937
0.165856
0.172581
0.17826
0.178439
0.157969
0.120579
0.106738
0.0927025
0.0833073
0.0820036
0.0900711
0.102387
0.111495
0.127076
0.119258
0.123089
0.128185
0.141639
0.158775
0.179877
0.204135
0.227323
0.250299
0.261745
0.163386
0.113609
0.0917531
0.0782938
0.0765774
0.0805528
0.0933358
0.114271
0.140543
0.16234
0.17151
0.182064
0.175852
0.176775
0.178675
0.191965
0.219114
0.25614
0.29296
0.341297
0.157434
0.0978672
0.0719829
0.0659247
0.0665678
0.0773762
0.0893443
0.111436
0.147767
0.178396
0.208517
0.227978
0.247654
0.2631
0.264351
0.262921
0.269915
0.291706
0.334391
0.424661
0.143877
0.0824067
0.062905
0.0613102
0.0650323
0.0775352
0.0882783
0.108339
0.14257
0.179595
0.225833
0.255255
0.296269
0.331695
0.362176
0.384783
0.40358
0.420569
0.444186
0.536695
0.122834
0.0718536
0.0586778
0.058577
0.0702836
0.0949834
0.109348
0.132023
0.154882
0.180576
0.22652
0.26864
0.331151
0.386032
0.439684
0.499193
0.549456
0.600887
0.632102
0.743848
0.0966183
0.0596897
0.0532703
0.0567403
0.0834375
0.126178
0.157748
0.196088
0.226832
0.255284
0.275316
0.311483
0.372074
0.444409
0.518248
0.60447
0.69688
0.795098
0.863353
1.02578
0.0700088
0.048907
0.0475183
0.0549527
0.0852444
0.139786
0.19144
0.25029
0.310704
0.382872
0.438001
0.49729
0.553336
0.619808
0.678587
0.758418
0.876034
1.01689
1.16476
1.35278
0.050444
0.0409312
0.0423325
0.0527262
0.0804474
0.137284
0.193509
0.26136
0.355341
0.482564
0.590304
0.693007
0.800125
0.897039
0.979076
1.07329
1.18383
1.31683
1.60694
1.59641
0.0391869
0.0347251
0.0371554
0.0524963
0.0787906
0.132883
0.183976
0.24954
0.376994
0.554867
0.726086
0.887556
1.05953
1.19761
1.35274
1.51368
1.67314
1.82954
2.13071
2.082
0.0342694
0.0299466
0.0300905
0.052423
0.104219
0.207583
0.300173
0.41249
0.610518
0.812723
1.02506
1.2178
1.41936
1.59996
1.82943
2.08598
2.33605
2.56467
2.90299
2.88508
0.0321585
0.0263403
0.0255336
0.0660299
0.216031
0.404337
0.581668
0.814994
1.10918
1.40092
1.64688
1.86873
2.09263
2.30967
2.5893
2.91234
3.24364
3.59014
3.88035
4.15919
0.0302088
0.0263194
0.0273767
0.135313
0.373134
0.604556
0.884581
1.25157
1.665
2.08881
2.41392
2.72785
3.03854
3.36972
3.78051
4.1705
4.54347
4.87833
5.07722
5.24811
0.0241173
0.0361358
0.0804108
0.272089
0.552968
0.905894
1.40072
1.96885
2.60576
3.14477
3.55369
3.94401
4.33539
4.76206
5.20969
5.49425
5.66719
5.73859
5.61159
5.44114
0.0193453
0.0597112
0.207123
0.535331
1.12512
1.9663
2.78197
3.58593
4.408
4.93629
5.25711
5.58319
5.87717
6.10366
6.21202
6.10569
5.79999
5.05758
3.87619
2.6395
0.0248051
0.148165
0.676
1.64246
2.92449
4.02714
4.94199
5.91552
6.62842
6.68794
6.56684
6.58664
6.53564
6.31055
5.61058
4.2801
2.919
1.86052
1.42456
1.39002
0.442546
1.26901
2.82811
4.48877
5.81345
6.66483
7.45628
8.14421
7.95597
7.33366
6.72932
5.99138
4.72525
3.24747
1.99625
1.4424
1.38521
1.39296
1.39629
1.39923
3.23343
5.0612
6.80197
7.92496
8.56915
8.88214
9.07873
8.66961
6.33215
4.47553
3.31493
2.19378
1.51345
1.38245
1.38997
1.39472
1.3988
1.39997
1.40003
1.40002
9.69093
9.61765
9.57819
9.59117
9.68438
9.40661
8.36401
3.25735
0.89244
1.40001
1.40001
1.40001
1.40001
1.40001
1.40001
1.40001
1.40001
1.40001
1.40001
1.40001
9.63713
9.56301
9.48138
9.44364
9.60912
8.00576
3.57425
1.41936
1.40001
1.40001
1.40001
1.40001
1.40001
1.40001
1.40001
1.40001
1.40001
1.40001
1.40001
1.40001
9.42398
9.49481
9.41258
9.12226
8.79501
4.63134
1.44763
1.39927
1.40001
1.40001
1.40001
1.40001
1.40001
1.40001
1.40001
1.40001
1.40001
1.40001
1.40001
1.40001
9.24451
9.46936
9.462
8.8535
6.59856
2.07661
1.39181
1.40013
1.4
1.40001
1.40001
1.40001
1.40001
1.40001
1.40001
1.40001
1.40001
1.40001
1.40001
1.40001
9.02693
9.47835
9.52206
8.69033
3.88342
1.36306
1.40052
1.4
1.40001
1.40001
1.40001
1.40001
1.40001
1.40001
1.40001
1.40001
1.40001
1.40001
1.40001
1.40001
8.85475
9.35573
9.48832
6.94366
1.9069
1.40001
1.40001
1.40001
1.40001
1.40001
1.40001
1.40001
1.40001
1.40001
1.40001
1.40001
1.40001
1.40001
1.40001
1.40001
8.80521
9.2179
9.13096
4.82234
1.37058
1.40001
1.40001
1.40001
1.40001
1.40001
1.40001
1.40001
1.40001
1.40001
1.40001
1.40001
1.40001
1.40001
1.40001
1.40001
8.97587
9.21564
8.46375
2.88521
1.40001
1.40001
1.40001
1.40001
1.40001
1.40001
1.40001
1.40001
1.40001
1.40001
1.40001
1.40001
1.40001
1.40001
1.40001
1.40001
9.61785
9.32015
6.86724
1.64184
1.40001
1.40001
1.40001
1.40001
1.40001
1.40001
1.40001
1.40001
1.40001
1.40001
1.40001
1.40001
1.40001
1.40001
1.40001
1.40001
9.99821
8.8174
4.92631
1.38257
1.40001
1.40001
1.40001
1.40001
1.40001
1.40001
1.40001
1.40001
1.40001
1.40001
1.40001
1.40001
1.40001
1.40001
1.40001
1.40001
10.3063
8.36567
3.18923
1.40001
1.40001
1.40001
1.40001
1.40001
1.40001
1.40001
1.40001
1.40001
1.40001
1.40001
1.40001
1.40001
1.40001
1.40001
1.40001
1.40001
10.4203
7.49205
2.21712
1.40001
1.40001
1.40001
1.40001
1.40001
1.40001
1.40001
1.40001
1.40001
1.40001
1.40001
1.40001
1.40001
1.40001
1.40001
1.40001
1.40001
10.4798
6.56098
1.63781
1.40001
1.40001
1.40001
1.40001
1.40001
1.40001
1.40001
1.40001
1.40001
1.40001
1.40001
1.40001
1.40001
1.40001
1.40001
1.40001
1.40001
10.2774
5.50862
1.40121
1.40001
1.40001
1.40001
1.40001
1.40001
1.40001
1.40001
1.40001
1.40001
1.40001
1.40001
1.40001
1.40001
1.40001
1.40001
1.40001
1.40001
9.87589
4.45925
1.40001
1.40001
1.40001
1.40001
1.40001
1.40001
1.40001
1.40001
1.40001
1.40001
1.40001
1.40001
1.40001
1.40001
1.40001
1.40001
1.40001
1.40001
9.5735
3.61242
1.40001
1.40001
1.40001
1.40001
1.40001
1.40001
1.40001
1.40001
1.40001
1.40001
1.40001
1.40001
1.40001
1.40001
1.40001
1.40001
1.40001
1.40001
9.37585
2.6492
1.40001
1.40001
1.40001
1.40001
1.40001
1.40001
1.40001
1.40001
1.40001
1.40001
1.40001
1.40001
1.40001
1.40001
1.40001
1.40001
1.40001
1.40001
8.71825
1.86499
1.40001
1.40001
1.40001
1.40001
1.40001
1.40001
1.40001
1.40001
1.40001
1.40001
1.40001
1.40001
1.40001
1.40001
1.40001
1.40001
1.40001
1.40001
7.87008
1.40642
1.40001
1.40001
1.40001
1.40001
1.40001
1.40001
1.40001
1.40001
1.40001
1.40001
1.40001
1.40001
1.40001
1.40001
1.40001
1.40001
1.40001
1.40001
6.48723
1.4001
1.40001
1.40001
1.40001
1.40001
1.40001
1.40001
1.40001
1.40001
1.40001
1.40001
1.40001
1.40001
1.40001
1.40001
1.40001
1.40001
1.40001
1.40001
6.48613
1.40012
1.40001
1.40001
1.40001
1.40001
1.40001
1.40001
1.40001
1.40001
1.40001
1.40001
1.40001
1.40001
1.40001
1.40001
1.40001
1.40001
1.40001
1.40001
7.8885
1.4063
1.40001
1.40001
1.40001
1.40001
1.40001
1.40001
1.40001
1.40001
1.40001
1.40001
1.40001
1.40001
1.40001
1.40001
1.40001
1.40001
1.40001
1.40001
8.70292
1.85863
1.40001
1.40001
1.40001
1.40001
1.40001
1.40001
1.40001
1.40001
1.40001
1.40001
1.40001
1.40001
1.40001
1.40001
1.40001
1.40001
1.40001
1.40001
9.38166
2.63567
1.40001
1.40001
1.40001
1.40001
1.40001
1.40001
1.40001
1.40001
1.40001
1.40001
1.40001
1.40001
1.40001
1.40001
1.40001
1.40001
1.40001
1.40001
9.58975
3.61281
1.40001
1.40001
1.40001
1.40001
1.40001
1.40001
1.40001
1.40001
1.40001
1.40001
1.40001
1.40001
1.40001
1.40001
1.40001
1.40001
1.40001
1.40001
9.86296
4.48137
1.40001
1.40001
1.40001
1.40001
1.40001
1.40001
1.40001
1.40001
1.40001
1.40001
1.40001
1.40001
1.40001
1.40001
1.40001
1.40001
1.40001
1.40001
10.2747
5.4991
1.40072
1.40001
1.40001
1.40001
1.40001
1.40001
1.40001
1.40001
1.40001
1.40001
1.40001
1.40001
1.40001
1.40001
1.40001
1.40001
1.40001
1.40001
10.4846
6.5585
1.63701
1.40001
1.40001
1.40001
1.40001
1.40001
1.40001
1.40001
1.40001
1.40001
1.40001
1.40001
1.40001
1.40001
1.40001
1.40001
1.40001
1.40001
10.4236
7.48331
2.22009
1.40001
1.40001
1.40001
1.40001
1.40001
1.40001
1.40001
1.40001
1.40001
1.40001
1.40001
1.40001
1.40001
1.40001
1.40001
1.40001
1.40001
10.318
8.37303
3.17298
1.40001
1.40001
1.40001
1.40001
1.40001
1.40001
1.40001
1.40001
1.40001
1.40001
1.40001
1.40001
1.40001
1.40001
1.40001
1.40001
1.40001
10.008
8.81611
4.91391
1.38247
1.40001
1.40001
1.40001
1.40001
1.40001
1.40001
1.40001
1.40001
1.40001
1.40001
1.40001
1.40001
1.40001
1.40001
1.40001
1.40001
9.61424
9.31244
6.85779
1.65105
1.40001
1.40001
1.40001
1.40001
1.40001
1.40001
1.40001
1.40001
1.40001
1.40001
1.40001
1.40001
1.40001
1.40001
1.40001
1.40001
8.97494
9.23995
8.49515
2.88558
1.40001
1.40001
1.40001
1.40001
1.40001
1.40001
1.40001
1.40001
1.40001
1.40001
1.40001
1.40001
1.40001
1.40001
1.40001
1.40001
8.80296
9.2188
9.11638
4.85514
1.37776
1.40001
1.40001
1.40001
1.40001
1.40001
1.40001
1.40001
1.40001
1.40001
1.40001
1.40001
1.40001
1.40001
1.40001
1.40001
8.84808
9.34209
9.4634
6.8796
1.89679
1.40001
1.40001
1.40001
1.40001
1.40001
1.40001
1.40001
1.40001
1.40001
1.40001
1.40001
1.40001
1.40001
1.40001
1.40001
9.01918
9.47693
9.52935
8.77293
3.84225
1.36351
1.40052
1.4
1.40001
1.40001
1.40001
1.40001
1.40001
1.40001
1.40001
1.40001
1.40001
1.40001
1.40001
1.40001
9.23839
9.47071
9.48132
8.88244
6.61277
2.09874
1.39113
1.40014
1.4
1.40001
1.40001
1.40001
1.40001
1.40001
1.40001
1.40001
1.40001
1.40001
1.40001
1.40001
9.41452
9.49021
9.3873
9.09114
8.76333
4.66084
1.45526
1.39912
1.40001
1.40001
1.40001
1.40001
1.40001
1.40001
1.40001
1.40001
1.40001
1.40001
1.40001
1.40001
9.62544
9.55651
9.45934
9.38844
9.61898
8.01147
3.56318
1.41606
1.40001
1.40001
1.40001
1.40001
1.40001
1.40001
1.40001
1.40001
1.40001
1.40001
1.40001
1.40001
9.69309
9.62032
9.58127
9.61566
9.7258
9.4096
8.36091
3.23845
0.895502
1.40001
1.40001
1.40001
1.40001
1.40001
1.40001
1.40001
1.40001
1.40001
1.40001
1.40001
3.23732
5.06625
6.82895
7.96603
8.61201
8.885
9.07404
8.66139
6.32779
4.47496
3.31482
2.1946
1.51413
1.38255
1.39001
1.39474
1.3988
1.39997
1.40003
1.40002
0.436365
1.21687
2.74626
4.42774
5.83827
6.71834
7.48006
8.14387
7.95446
7.33263
6.72806
5.98838
4.723
3.24556
1.99444
1.44173
1.38519
1.39295
1.39629
1.39923
0.0472865
0.228031
0.708549
1.6591
2.88259
3.98221
4.93537
5.92378
6.63878
6.69065
6.5645
6.58328
6.53274
6.30908
5.6108
4.28173
2.92018
1.86058
1.42442
1.39002
0.00970154
0.0595895
0.243357
0.51049
1.1146
1.96864
2.76993
3.57436
4.40188
4.92899
5.25207
5.57959
5.87266
6.10422
6.21445
6.1083
5.80358
5.05945
3.87487
2.63752
0.0133183
0.0245828
0.102874
0.289433
0.572613
0.908069
1.39843
1.97234
2.60855
3.14396
3.55097
3.93857
4.32862
4.75817
5.21185
5.49864
5.67025
5.73874
5.61109
5.44011
0.0194962
0.0179603
0.0416334
0.161971
0.36101
0.598217
0.896018
1.26029
1.67748
2.09702
2.41679
2.72721
3.03676
3.36904
3.78352
4.17638
4.54881
4.88175
5.07826
5.24775
0.0234652
0.0198775
0.0275957
0.0668731
0.195957
0.3994
0.579272
0.818501
1.11369
1.40754
1.65183
1.87207
2.09382
2.31066
2.59093
2.9149
3.24536
3.58941
3.88016
4.15689
0.0310192
0.0246134
0.0286549
0.0426908
0.102536
0.212811
0.292752
0.40654
0.601416
0.808453
1.02161
1.21447
1.41523
1.59614
1.82591
2.08526
2.33688
2.56712
2.90293
2.8845
0.0434936
0.0323236
0.032007
0.0468323
0.0850668
0.131366
0.184776
0.249921
0.374437
0.54837
0.71981
0.881215
1.05548
1.19511
1.3524
1.51468
1.67536
1.83068
2.13002
2.07899
0.0614079
0.0422504
0.0387347
0.0513363
0.0830271
0.130858
0.195697
0.262994
0.359269
0.481762
0.589375
0.691248
0.799652
0.896431
0.979929
1.07417
1.18251
1.31305
1.60442
1.59569
0.0833608
0.0532695
0.0457548
0.0573035
0.0831725
0.133877
0.19743
0.253106
0.316193
0.385299
0.439223
0.497838
0.553251
0.618999
0.676219
0.754561
0.871319
1.0145
1.16544
1.35583
0.109271
0.0640304
0.0520935
0.0651554
0.080494
0.122298
0.168372
0.200005
0.228955
0.25713
0.275452
0.311056
0.368887
0.440478
0.514419
0.601368
0.69631
0.796798
0.867536
1.02974
0.136174
0.0715531
0.0556174
0.0637235
0.0718304
0.089651
0.113935
0.132931
0.153488
0.181041
0.226011
0.267588
0.329231
0.384839
0.438924
0.499796
0.551791
0.605877
0.635504
0.73963
0.154934
0.0782093
0.0589242
0.0616572
0.0651144
0.0729618
0.0869622
0.113469
0.14539
0.181386
0.225927
0.254842
0.296191
0.332318
0.363851
0.388282
0.406681
0.423416
0.443905
0.529756
0.165906
0.0891514
0.0662139
0.0640034
0.0648768
0.0730298
0.0888869
0.119654
0.152063
0.180139
0.20854
0.226728
0.248101
0.265016
0.269161
0.266237
0.271068
0.289122
0.329917
0.420048
0.167216
0.103857
0.0804218
0.0712969
0.0696676
0.0806689
0.0952448
0.122548
0.145224
0.161002
0.17096
0.180761
0.17781
0.179179
0.180272
0.190484
0.215943
0.253503
0.291467
0.341983
0.154248
0.115646
0.0980562
0.0836369
0.0802568
0.0854756
0.0922252
0.106396
0.113434
0.123102
0.117094
0.121882
0.127327
0.140559
0.158184
0.179253
0.203648
0.22734
0.250885
0.264292
0.140204
0.117434
0.110619
0.0998942
0.0883446
0.0833177
0.0762038
0.0766516
0.0776399
0.0806241
0.0845867
0.0936813
0.106108
0.122683
0.139893
0.15567
0.168587
0.174743
0.179591
0.179827
0.129855
0.129303
0.14631
0.161647
0.182718
0.20624
0.197733
0.197554
0.215073
0.231178
0.242947
0.223517
0.20515
0.219789
0.253071
0.293106
0.318724
0.294886
0.279593
0.267845
0.17945
0.289412
0.333222
0.383159
0.440412
0.505384
0.529581
0.578971
0.626527
0.645861
0.663776
0.649025
0.638034
0.674273
0.684252
0.69685
0.709294
0.689965
0.686444
0.703963
0.773785
0.894798
0.994248
1.10353
1.10942
1.1581
1.20053
1.24411
1.24699
1.24016
1.24082
1.25992
1.30762
1.3498
1.34198
1.3102
1.30125
1.31442
1.33695
1.34336
0.406734
0.582179
0.756307
0.947293
1.03057
1.12644
1.17968
1.23911
1.25428
1.26411
1.26879
1.27436
1.29685
1.33183
1.33971
1.32975
1.31842
1.31753
1.3253
1.33451
0.188866
0.223189
0.324763
0.480338
0.749478
0.957013
1.07146
1.18258
1.23905
1.27582
1.28328
1.2841
1.29009
1.30899
1.32918
1.33837
1.34137
1.33645
1.32612
1.32711
0.261447
0.294586
0.340733
0.341089
0.367582
0.475668
0.74462
1.00113
1.14821
1.23812
1.30228
1.2876
1.27275
1.28149
1.31268
1.33927
1.34582
1.34274
1.32837
1.33018
0.333664
0.356446
0.383532
0.418989
0.414977
0.399073
0.425791
0.543316
0.833421
1.10537
1.24827
1.26943
1.26266
1.26267
1.29767
1.33972
1.35012
1.34173
1.32548
1.33092
0.43738
0.445028
0.469944
0.487679
0.470756
0.457188
0.456765
0.452552
0.497652
0.689643
1.00031
1.23381
1.26432
1.26607
1.2867
1.33156
1.34876
1.33712
1.32544
1.33565
0.555822
0.550041
0.5491
0.559047
0.555079
0.53379
0.515603
0.503475
0.502488
0.518285
0.636049
0.939371
1.22073
1.27733
1.27628
1.31856
1.3342
1.31924
1.32578
1.34207
0.733351
0.690878
0.62254
0.615308
0.618116
0.603135
0.571768
0.551471
0.548161
0.538138
0.541684
0.615381
0.889392
1.2022
1.25352
1.32373
1.31592
1.3077
1.33192
1.34498
0.959816
0.856222
0.727929
0.671111
0.689258
0.690292
0.658639
0.626691
0.605566
0.58787
0.564557
0.569621
0.624888
0.873896
1.17785
1.31347
1.28222
1.29706
1.3434
1.34367
1.22485
1.07251
0.877528
0.776693
0.764836
0.768656
0.738582
0.690955
0.660866
0.623893
0.596585
0.591949
0.604008
0.645596
0.864221
1.16243
1.22415
1.29713
1.35132
1.33986
1.75227
1.39662
1.12712
0.895281
0.831123
0.852095
0.864992
0.827202
0.770932
0.719259
0.672457
0.660872
0.660581
0.656078
0.67009
0.779523
1.03286
1.23345
1.30916
1.32794
2.81423
2.07392
1.69268
1.37311
1.07
1.02216
1.0196
0.960929
0.862144
0.809749
0.761372
0.750108
0.745128
0.720102
0.672423
0.675534
0.730097
0.891326
1.09879
1.2694
3.48772
3.00549
2.38615
1.93353
1.53566
1.22963
1.14708
1.06552
0.960602
0.951557
0.927442
0.889963
0.863245
0.819937
0.764191
0.727819
0.735716
0.750991
0.805901
1.04008
3.29579
3.26999
3.11014
2.66792
2.22092
1.7622
1.48306
1.35188
1.2149
1.1423
1.07039
0.98692
0.927568
0.886295
0.839372
0.819083
0.805632
0.790676
0.765089
0.811255
2.34989
2.99168
3.09494
3.04959
2.87764
2.50674
2.05076
1.75322
1.504
1.32735
1.20662
1.07815
1.0127
1.0074
0.987456
0.953502
0.91594
0.871449
0.805011
0.80378
1.55031
2.0098
2.58117
2.94771
2.94507
2.89739
2.69089
2.35274
2.00947
1.70179
1.52656
1.36235
1.24873
1.19112
1.12138
1.03957
0.976807
0.9204
0.879926
0.85012
1.40624
1.46218
1.68751
2.16533
2.59539
2.82165
2.81301
2.7506
2.57036
2.25121
1.94801
1.71752
1.50324
1.35998
1.24242
1.13111
1.07848
1.03924
1.01849
0.970877
1.40013
1.40158
1.4148
1.50827
1.7735
2.19563
2.55233
2.70164
2.6914
2.63208
2.45984
2.20993
1.93338
1.70223
1.5369
1.40308
1.30336
1.23626
1.16805
1.06297
1.40001
1.40002
1.40021
1.40337
1.42669
1.53931
1.80564
2.17748
2.47092
2.59553
2.58552
2.53618
2.40176
2.16805
1.93113
1.71869
1.53431
1.39366
1.29102
1.164
1.40001
1.40001
1.40001
1.40004
1.40047
1.40541
1.43433
1.55251
1.79986
2.13035
2.38025
2.49835
2.49324
2.4542
2.34335
2.15217
1.93301
1.7178
1.57163
1.39898
1.40001
1.40001
1.40001
1.40001
1.40001
1.40007
1.4007
1.40659
1.43774
1.54665
1.76899
2.06324
2.29382
2.41158
2.40774
2.38017
2.29835
2.13573
1.95046
1.67213
1.40001
1.40001
1.40001
1.40001
1.40001
1.40001
1.40001
1.40009
1.40085
1.40653
1.43556
1.53255
1.72647
1.98834
2.2013
2.33201
2.32864
2.31041
2.25944
2.04652
1.40001
1.40001
1.40001
1.40001
1.40001
1.40001
1.40001
1.40001
1.40001
1.40009
1.40083
1.40601
1.43006
1.513
1.67511
1.91925
2.10413
2.24859
2.25803
2.22486
1.40001
1.40001
1.40001
1.40001
1.40001
1.40001
1.40001
1.40001
1.40001
1.40001
1.40001
1.40009
1.40068
1.40498
1.4241
1.48897
1.6309
1.83791
2.01807
2.16644
1.40001
1.40001
1.40001
1.40001
1.40001
1.40001
1.40001
1.40001
1.40001
1.40001
1.40001
1.40001
1.40001
1.40007
1.40056
1.40358
1.41983
1.47142
1.58951
1.94149
2.26193
3.42865
3.59831
2.90826
1.83119
1.45156
1.40263
1.40007
1.40001
1.40001
1.40001
1.40001
1.40001
1.40001
1.40001
3.26174
3.91762
3.52181
2.15249
1.46712
1.40113
1.40001
1.4
1.40001
1.40001
1.40001
1.40001
1.40001
1.40001
1.40001
4.0759
3.99674
2.76392
1.6123
1.40728
1.40008
1.40001
1.40001
1.40001
1.40001
1.40001
1.40001
1.40001
1.40001
1.40001
4.52127
3.56067
1.9073
1.42665
1.40025
1.40001
1.40001
1.40001
1.40001
1.40001
1.40001
1.40001
1.40001
1.40001
1.40001
4.61608
2.35138
1.46617
1.40075
1.40001
1.40001
1.40001
1.40001
1.40001
1.40001
1.40001
1.40001
1.40001
1.40001
1.40001
2.88761
1.50224
1.40066
1.4
1.4
1.4
1.40001
1.40001
1.40001
1.40001
1.40001
1.40001
1.40001
1.40001
1.40001
1.54345
1.40082
1.4
1.4
1.40001
1.40001
1.40001
1.40001
1.40001
1.40001
1.40001
1.40001
1.40001
1.40001
1.40001
1.39739
1.39982
1.4
1.40001
1.40001
1.40001
1.40001
1.40001
1.40001
1.40001
1.40001
1.40001
1.40001
1.40001
1.40001
1.39996
1.40001
1.40001
1.40001
1.40001
1.40001
1.40001
1.40001
1.40001
1.40001
1.40001
1.40001
1.40001
1.40001
1.40001
1.40001
1.40001
1.40001
1.40001
1.40001
1.40001
1.40001
1.40001
1.40001
1.40001
1.40001
1.40001
1.40001
1.40001
1.40001
1.40001
1.40001
1.40001
1.40001
1.40001
1.40001
1.40001
1.40001
1.40001
1.40001
1.40001
1.40001
1.40001
1.40001
1.40001
1.40001
1.40001
1.40001
1.40001
1.40001
1.40001
1.40001
1.40001
1.40001
1.40001
1.40001
1.40001
1.40001
1.40001
1.40001
1.40001
1.40001
1.40001
1.40001
1.40001
1.40001
1.40001
1.40001
1.40001
1.40001
1.40001
1.40001
1.40001
1.40001
1.40001
1.40001
1.40001
1.40001
1.40001
1.40001
1.40001
1.40001
1.40001
1.40001
1.40001
1.40001
1.40001
1.40001
1.40001
1.40001
1.40001
1.40001
1.40001
1.40001
1.40001
1.40001
1.40001
1.40001
1.40001
1.40001
1.40001
1.40001
1.40001
1.40001
1.40001
1.40001
1.40001
1.40001
1.40001
1.40001
1.40001
1.40001
1.40001
1.40001
1.40001
1.40001
1.40001
1.40001
1.40001
1.40001
1.40001
1.40001
1.40001
1.40001
1.40001
1.40001
1.40001
1.40001
1.40001
1.40001
1.40001
1.40001
1.40001
1.40001
1.40001
1.40001
1.40001
1.40001
1.40001
1.40001
1.40001
1.40001
1.40001
1.40001
1.40001
1.40001
1.40001
1.40001
1.40001
1.40001
1.40001
1.40001
1.40001
1.40001
1.40001
1.40001
1.40001
1.40001
1.40001
1.40001
1.40001
1.40001
1.40001
1.40001
1.40001
1.40001
1.40001
1.40001
1.40001
1.40001
1.40001
1.40001
1.40001
1.40001
1.40001
1.40001
1.40001
1.40001
1.40001
1.40001
1.40001
1.40001
1.40001
1.40001
1.40001
1.40001
1.40001
1.40001
1.40001
1.40001
1.40001
1.40001
1.40001
1.40001
1.40001
1.40001
1.40001
1.40001
1.40001
1.40001
1.40001
1.40001
1.40001
1.40001
1.40001
1.40001
1.40001
1.40001
1.40001
1.40001
1.40001
1.40001
1.40001
1.40001
1.40001
1.40001
1.40001
1.40001
1.40001
1.40001
1.40001
1.40001
1.40001
1.40001
1.40001
1.40001
1.40001
1.40001
1.40001
1.40001
1.40001
1.40001
1.40001
1.40001
1.40001
1.40001
1.40001
1.40001
1.40001
1.40001
1.40001
1.40001
1.40001
1.40001
1.40001
1.40001
1.40001
1.40001
1.40001
1.40001
1.40001
1.40001
1.40001
1.40001
1.40001
1.40001
1.40001
1.40001
1.40001
1.40001
1.40001
1.40001
1.40001
1.40001
1.40001
1.40001
1.40001
1.40001
1.40001
1.40001
1.40001
1.40001
1.40001
1.40001
1.40001
1.40001
1.40001
1.40001
1.40001
1.40001
1.40001
1.40001
1.40001
1.40001
1.40001
1.40001
1.40001
1.40001
1.40001
1.40001
1.40001
1.40001
1.40001
1.40001
1.40001
1.40001
1.40001
1.40001
1.40001
1.40001
1.40001
1.40001
1.40001
1.40001
1.40001
1.40001
1.40001
1.40001
1.40001
1.40001
1.40001
1.40001
1.40001
1.40001
1.40001
1.40001
1.40001
1.40001
1.40001
1.40001
1.40001
1.40001
1.40001
1.40001
1.40001
1.40001
1.40001
1.40001
1.40001
1.40001
1.40001
1.40001
1.40001
1.40001
1.40001
1.40001
1.40001
1.40001
1.40001
1.40001
1.40001
1.40001
1.40001
1.40001
1.40001
1.40001
1.40001
1.40001
1.40001
1.40001
1.40001
1.40001
1.40001
1.40001
1.40001
1.40001
1.40001
1.40001
1.40001
1.40001
1.40001
1.40001
1.40001
1.40001
1.40001
1.40001
1.40001
1.40001
1.40001
1.40001
1.40001
1.40001
1.40001
1.40001
1.40001
1.40001
1.40001
1.40001
1.40001
1.40001
1.40001
1.40001
1.40001
1.40001
1.40001
1.40001
1.40001
1.40001
1.40001
1.40001
1.40001
1.40001
1.40001
1.40001
1.40001
1.40001
1.40001
1.40001
1.40001
1.40001
1.40001
1.40001
1.40001
1.40001
1.40001
1.40001
1.40001
1.40001
1.40001
1.40001
1.40001
1.40001
1.40001
1.40001
1.40001
1.40001
1.40001
1.40001
1.40001
1.40001
1.40001
1.40001
1.40001
1.40001
1.40001
1.40001
1.40001
1.40001
1.40001
1.40001
1.40001
1.40001
1.40001
1.40001
1.40001
1.40001
1.40001
1.40001
1.40001
1.40001
1.40001
1.40001
1.40001
1.40001
1.40001
1.40001
1.40001
1.40001
1.40001
1.40001
1.40001
1.40001
1.40001
1.40001
1.40001
1.40001
1.40001
1.40001
1.40001
1.40001
1.40001
1.40001
1.40001
1.40001
1.40001
1.40001
1.40001
1.40001
1.40001
1.40001
1.40001
1.40001
1.40001
1.40001
1.40001
1.40001
1.40001
1.40001
1.40001
1.40001
1.40001
1.40001
1.40001
1.40001
1.40001
1.40001
1.40001
1.40001
1.40001
1.40001
1.40001
1.40001
1.40001
1.40001
1.40001
1.40001
1.40001
1.40001
1.40001
1.40001
1.40001
1.40001
1.40001
1.40001
1.40001
1.40001
1.40001
1.40001
1.40001
1.40001
1.40001
1.40001
1.40001
1.40001
1.40001
1.40001
1.40001
1.40001
1.40001
1.40001
1.40001
1.40001
1.40001
1.40001
1.40001
1.40001
1.40001
1.40001
1.40001
1.40001
1.40001
1.40001
1.40001
1.40001
1.40001
1.40001
1.40001
1.40001
1.40001
1.40001
1.40001
1.40001
1.40001
1.40001
1.40001
1.40001
1.40001
1.40001
1.40001
1.40001
1.40001
1.40001
1.40001
1.40001
1.40001
1.40001
1.40001
1.40001
1.40001
1.40001
1.40001
1.40001
1.40001
1.40001
1.40001
1.40001
1.40001
1.40001
1.40001
1.40001
1.40001
1.40001
1.40001
1.40001
1.40001
1.40001
1.40001
1.40001
1.40001
1.40001
1.40001
1.40001
1.40001
1.40001
1.40001
1.40001
1.40001
1.40001
1.40001
1.40001
1.40001
1.40001
1.40001
1.40001
1.40001
1.40001
1.40001
1.40001
1.40001
1.40001
1.40001
1.40001
1.40001
1.40001
1.40001
1.40001
1.40001
1.40001
1.40001
1.40001
1.40001
1.40001
1.40001
1.40001
1.40001
1.40001
1.40001
1.40001
1.40001
1.40001
1.40001
1.40001
1.40001
1.40001
1.40001
1.40001
1.40001
1.40001
1.40001
1.40001
1.40001
1.40001
1.40001
1.40001
1.40001
1.40001
1.40001
1.40001
1.40001
1.40001
1.40001
1.40001
1.40001
1.40001
1.40001
1.40001
1.40001
1.40001
1.40001
1.40001
1.40001
1.40001
1.40001
1.40001
1.40001
1.40001
1.40001
1.40001
1.40001
1.40001
1.40001
1.40001
1.40001
1.40001
1.40001
1.40001
1.40001
1.40001
1.40001
1.40001
1.40001
1.40001
1.40001
1.40001
1.40001
1.40001
1.40001
1.40001
1.40001
1.40001
1.40001
1.40001
1.40001
1.40001
1.40001
1.40001
1.40001
1.40001
1.40001
1.40001
1.40001
1.40001
1.40001
1.40001
1.40001
1.40001
1.40001
1.40001
1.40001
1.40001
1.40001
1.40001
1.40001
1.40001
1.40001
1.40001
1.40001
1.40001
1.40001
1.40001
1.40001
1.40001
1.40001
1.40001
1.40001
1.40001
1.40001
1.40001
1.40001
1.40001
1.40001
1.40001
1.40001
1.40001
1.40001
1.40001
1.40001
1.40001
1.40001
1.40001
1.40001
1.40001
1.40001
1.40001
1.40001
1.40001
1.40001
1.40001
1.40001
1.40001
1.40001
1.40001
1.40001
1.40001
1.40001
1.40001
1.40001
1.40001
1.40001
1.40001
1.40001
1.40001
1.40001
1.40001
1.40001
1.40001
1.40001
1.40001
1.40001
1.40001
1.40001
1.40001
1.40001
1.40001
1.40001
1.40001
1.40001
1.40001
1.40001
1.40001
1.40001
1.40001
1.40001
1.40001
1.40001
1.40001
1.40001
1.40001
1.40001
1.40001
1.40001
1.40001
1.40001
1.40001
1.40001
1.40001
1.40001
1.40001
1.40001
1.40001
1.40001
1.40001
1.40001
1.40001
1.40001
1.40001
1.40001
1.40001
1.40001
1.40001
1.40001
1.40001
1.40001
1.40001
1.40001
1.40001
1.40001
1.40001
1.40001
1.40001
1.40001
1.40001
1.40001
1.40001
1.40001
1.40001
1.40001
1.40001
1.40001
1.40001
1.40001
1.40001
1.40001
1.40001
1.40001
1.40001
1.40001
1.40001
1.40001
1.40001
1.40001
1.40001
1.40001
1.40001
1.40001
1.40001
1.40001
1.40001
1.40001
1.40001
1.40001
1.40001
1.40001
1.40001
1.40001
1.39996
1.40001
1.40001
1.40001
1.40001
1.40001
1.40001
1.40001
1.40001
1.40001
1.40001
1.40001
1.40001
1.40001
1.40001
1.39739
1.39982
1.4
1.40001
1.40001
1.40001
1.40001
1.40001
1.40001
1.40001
1.40001
1.40001
1.40001
1.40001
1.40001
1.54322
1.40082
1.4
1.4
1.40001
1.40001
1.40001
1.40001
1.40001
1.40001
1.40001
1.40001
1.40001
1.40001
1.40001
2.88725
1.50227
1.40067
1.4
1.4
1.4
1.40001
1.40001
1.40001
1.40001
1.40001
1.40001
1.40001
1.40001
1.40001
4.61575
2.3512
1.46615
1.40075
1.40001
1.40001
1.40001
1.40001
1.40001
1.40001
1.40001
1.40001
1.40001
1.40001
1.40001
4.5205
3.56073
1.90725
1.42661
1.40025
1.40001
1.40001
1.40001
1.40001
1.40001
1.40001
1.40001
1.40001
1.40001
1.40001
4.07538
3.99714
2.76494
1.6125
1.4073
1.40008
1.40001
1.40001
1.40001
1.40001
1.40001
1.40001
1.40001
1.40001
1.40001
3.26147
3.91805
3.52189
2.15266
1.4671
1.40112
1.40001
1.4
1.40001
1.40001
1.40001
1.40001
1.40001
1.40001
1.40001
2.26259
3.42929
3.59833
2.90782
1.83092
1.45162
1.40264
1.40007
1.40001
1.40001
1.40001
1.40001
1.40001
1.40001
1.40001
1.74942
2.80968
3.48867
3.29645
2.34972
1.54927
1.40621
1.40013
1.40001
1.40001
1.40001
1.40001
1.40001
1.40001
1.40001
1.40124
2.075
3.00361
3.27085
2.99635
2.01125
1.46229
1.40158
1.40002
1.40001
1.40001
1.40001
1.40001
1.40001
1.40001
1.13102
1.70477
2.391
3.10722
3.09209
2.58186
1.68814
1.41484
1.40021
1.40001
1.40001
1.40001
1.40001
1.40001
1.40001
0.893901
1.37344
1.93115
2.67328
3.0473
2.9474
2.16611
1.50835
1.40337
1.40004
1.40001
1.40001
1.40001
1.40001
1.40001
0.830035
1.06679
1.51942
2.20949
2.877
2.94461
2.59541
1.77355
1.42663
1.40047
1.40001
1.40001
1.40001
1.40001
1.40001
0.850564
1.02786
1.26281
1.75553
2.49023
2.8952
2.82045
2.19563
1.53941
1.40541
1.40007
1.40001
1.40001
1.40001
1.40001
0.85917
1.00921
1.16049
1.50734
2.05839
2.68793
2.81252
2.55133
1.80535
1.43429
1.4007
1.40001
1.40001
1.40001
1.40001
0.824909
0.946636
1.04808
1.34297
1.7672
2.35962
2.75143
2.70264
2.1771
1.55215
1.40656
1.40009
1.40001
1.40001
1.40001
0.7838
0.865285
0.956411
1.19682
1.49476
2.01815
2.57324
2.69284
2.47165
1.79934
1.43762
1.40085
1.40001
1.40001
1.40001
0.73278
0.818254
0.959646
1.14536
1.31187
1.69147
2.25733
2.63247
2.59552
2.12991
1.54647
1.40653
1.40009
1.40001
1.40001
0.672192
0.761659
0.936075
1.08245
1.21044
1.51559
1.94502
2.46104
2.5853
2.37975
1.76893
1.4356
1.40083
1.40001
1.40001
0.653826
0.740893
0.884585
0.992733
1.1027
1.37115
1.7116
2.21102
2.53582
2.49775
2.06309
1.53264
1.40602
1.40009
1.40001
0.653222
0.738067
0.853455
0.917072
1.02766
1.27127
1.50538
1.93285
2.39944
2.49262
2.29358
1.72656
1.43007
1.40068
1.40001
0.656473
0.718759
0.814155
0.873246
1.00497
1.20198
1.35927
1.69476
2.16883
2.45393
2.41144
1.98825
1.51301
1.40498
1.40007
0.675613
0.679943
0.759184
0.832795
0.972307
1.11655
1.24348
1.53646
1.93163
2.34331
2.40761
2.20124
1.67499
1.42407
1.40056
0.792797
0.683497
0.724538
0.811047
0.940527
1.0326
1.14049
1.40466
1.71654
2.15272
2.38017
2.3318
1.91901
1.48896
1.40358
1.04206
0.741515
0.738706
0.796025
0.908707
0.969306
1.07975
1.30745
1.53415
1.93338
2.2977
2.32835
2.10378
1.63086
1.41984
1.23565
0.903997
0.759035
0.784683
0.867819
0.917974
1.03336
1.23755
1.39508
1.71584
2.13463
2.31012
2.2485
1.83784
1.47142
1.30829
1.10256
0.811342
0.771183
0.807292
0.877497
1.01787
1.16702
1.2916
1.56907
1.95011
2.25945
2.25804
2.0181
1.58956
1.32624
1.26369
1.03869
0.818908
0.811159
0.842334
0.974167
1.0602
1.16477
1.39832
1.67271
2.04693
2.22506
2.16669
1.94185
1.22545
1.06802
0.868861
0.77349
0.766478
0.778093
0.748461
0.697031
0.669904
0.625842
0.596382
0.587676
0.60153
0.652774
0.877365
1.19165
1.23375
1.29651
1.35322
1.34255
0.957621
0.852066
0.713709
0.667534
0.68602
0.690821
0.660197
0.630599
0.605977
0.581998
0.556303
0.564434
0.626489
0.888212
1.18732
1.30266
1.27151
1.28395
1.34022
1.34938
0.732598
0.685285
0.616667
0.620614
0.625539
0.604111
0.570864
0.555197
0.553825
0.537854
0.539945
0.611365
0.883969
1.21714
1.27073
1.30407
1.28669
1.28923
1.32315
1.34995
0.556775
0.551427
0.539136
0.552054
0.552512
0.529977
0.514129
0.50906
0.502831
0.517372
0.636811
0.932897
1.22042
1.28267
1.27369
1.29913
1.3054
1.29897
1.31646
1.34697
0.439307
0.442934