/*--------------------------------*- C++ -*----------------------------------*\
  =========                 |
  \\      /  F ield         | OpenFOAM: The Open Source CFD Toolbox
   \\    /   O peration     | Website:  https://openfoam.org
    \\  /    A nd           | Version:  7
     \\/     M anipulation  |
\*---------------------------------------------------------------------------*/
FoamFile
{
    version     2.0;
    format      ascii;
    class       volScalarField;
    location    "8.6";
    object      rho;
}
// * * * * * * * * * * * * * * * * * * * * * * * * * * * * * * * * * * * * * //

dimensions      [1 -3 0 0 0 0 0];

internalField   nonuniform List<scalar> 
3700
(
0.216943
0.347231
0.41968
0.507974
0.551179
0.555921
0.547845
0.562442
0.598874
0.600146
0.582311
0.582909
0.620038
0.642118
0.663376
0.681444
0.684576
0.679067
0.675852
0.692245
0.128801
0.149031
0.169579
0.18944
0.18398
0.168323
0.169079
0.187513
0.197733
0.194094
0.197751
0.201565
0.215659
0.23985
0.266355
0.273039
0.257867
0.23636
0.230754
0.228046
0.101816
0.112979
0.113941
0.10354
0.0848986
0.0673438
0.0681213
0.077098
0.0864818
0.0986305
0.116145
0.129092
0.138312
0.14278
0.1436
0.144793
0.146505
0.149848
0.15935
0.181758
0.0932206
0.101078
0.103163
0.0918621
0.0679224
0.0651277
0.0685615
0.0759529
0.0845258
0.0978979
0.119331
0.138087
0.163308
0.186426
0.199586
0.213703
0.213259
0.210894
0.210203
0.230588
0.0912931
0.0898738
0.082517
0.0689045
0.0655708
0.0754367
0.0846895
0.0873917
0.0947122
0.108967
0.119694
0.135511
0.164841
0.1999
0.227889
0.256478
0.275477
0.287833
0.287904
0.297216
0.0829791
0.0750198
0.0645914
0.0671529
0.0775945
0.0924338
0.106692
0.1201
0.137549
0.165608
0.156359
0.160258
0.170372
0.202245
0.241255
0.282402
0.324673
0.364454
0.398484
0.433401
0.0660181
0.0665534
0.0633963
0.0672109
0.0844114
0.103387
0.115783
0.140615
0.181973
0.222359
0.229811
0.243423
0.245475
0.258854
0.273486
0.307851
0.360474
0.430655
0.492211
0.586689
0.0574804
0.0640625
0.0650571
0.067588
0.0876175
0.109606
0.114852
0.143499
0.203794
0.253423
0.296905
0.329816
0.362968
0.396502
0.416933
0.443451
0.469041
0.527784
0.606316
0.764565
0.0527327
0.0610009
0.0654237
0.0684305
0.0852218
0.115283
0.117674
0.139795
0.203704
0.269521
0.336846
0.391872
0.46613
0.52442
0.580683
0.634357
0.683164
0.738597
0.807715
1.01093
0.0526665
0.0597903
0.0615712
0.0689517
0.095343
0.132313
0.143765
0.18061
0.230284
0.283796
0.36565
0.447283
0.555933
0.644649
0.741537
0.841542
0.939744
1.02824
1.13684
1.32602
0.0596186
0.0563176
0.0582999
0.0880971
0.137133
0.172029
0.214073
0.293573
0.370329
0.440097
0.522813
0.609684
0.712326
0.816441
0.932974
1.08001
1.24366
1.39159
1.62476
1.5734
0.0634688
0.0545619
0.0664704
0.114606
0.170841
0.207735
0.2863
0.404097
0.530006
0.683204
0.809177
0.935674
1.05957
1.17713
1.29175
1.44463
1.65
1.85312
2.17235
2.11878
0.0647744
0.0563725
0.0745635
0.116432
0.174663
0.210243
0.329491
0.46672
0.646736
0.894306
1.09048
1.29167
1.48275
1.66082
1.85415
2.07391
2.29896
2.53149
2.90446
2.89968
0.0574499
0.051553
0.0686488
0.0867878
0.151484
0.212761
0.375484
0.579176
0.872941
1.19731
1.49597
1.77334
2.04284
2.29918
2.61902
2.94555
3.25845
3.57776
3.88442
4.17042
0.0334287
0.0369226
0.0634117
0.0827033
0.148604
0.420978
0.793039
1.18842
1.65066
2.0566
2.38961
2.68846
2.99386
3.31743
3.74801
4.14796
4.52068
4.8505
5.06318
5.25249
0.0164093
0.032698
0.0540018
0.150828
0.438227
1.04123
1.59632
2.17748
2.79218
3.30458
3.66557
4.01863
4.3914
4.80038
5.25861
5.54662
5.69151
5.73189
5.60104
5.42693
0.0104178
0.0405031
0.135565
0.559185
1.30465
2.05711
2.78328
3.57353
4.39484
4.89421
5.20621
5.53683
5.83418
6.08171
6.2181
6.11573
5.81719
5.07902
3.88803
2.63543
0.0505813
0.232125
0.769435
1.69964
2.94456
3.99923
4.89325
5.82685
6.6042
6.70055
6.56214
6.57296
6.52266
6.30007
5.60305
4.27691
2.92092
1.86384
1.42564
1.39011
0.425962
1.19071
2.74334
4.47028
5.82526
6.69567
7.4951
8.1744
7.97667
7.34156
6.73234
5.98511
4.71784
3.24135
1.99282
1.44101
1.38514
1.39292
1.39627
1.39923
3.23259
5.08211
6.82399
7.95252
8.66325
8.93181
9.10811
8.66222
6.31089
4.46449
3.31374
2.20127
1.51947
1.38293
1.39029
1.39486
1.39881
1.39997
1.40003
1.40002
9.67736
9.61021
9.54896
9.61613
9.78099
9.41702
8.33271
3.14823
0.916542
1.40001
1.40001
1.40001
1.40001
1.40001
1.40001
1.40001
1.40001
1.40001
1.40001
1.40001
9.58145
9.53281
9.39475
9.28306
9.60812
8.00777
3.57829
1.41388
1.40001
1.40001
1.40001
1.40001
1.40001
1.40001
1.40001
1.40001
1.40001
1.40001
1.40001
1.40001
9.39796
9.48689
9.3657
9.10254
8.73037
4.77041
1.47756
1.39866
1.40001
1.40001
1.40001
1.40001
1.40001
1.40001
1.40001
1.40001
1.40001
1.40001
1.40001
1.40001
9.22687
9.48137
9.509
9.03566
6.59638
2.10303
1.38966
1.40017
1.4
1.40001
1.40001
1.40001
1.40001
1.40001
1.40001
1.40001
1.40001
1.40001
1.40001
1.40001
9.00517
9.45667
9.51912
8.80135
3.74316
1.36501
1.40053
1.4
1.40001
1.40001
1.40001
1.40001
1.40001
1.40001
1.40001
1.40001
1.40001
1.40001
1.40001
1.40001
8.85664
9.31557
9.36133
6.76726
1.91524
1.40001
1.40001
1.40001
1.40001
1.40001
1.40001
1.40001
1.40001
1.40001
1.40001
1.40001
1.40001
1.40001
1.40001
1.40001
8.82069
9.24856
9.11391
4.94516
1.39558
1.40001
1.40001
1.40001
1.40001
1.40001
1.40001
1.40001
1.40001
1.40001
1.40001
1.40001
1.40001
1.40001
1.40001
1.40001
9.0092
9.31789
8.54411
2.85572
1.40001
1.40001
1.40001
1.40001
1.40001
1.40001
1.40001
1.40001
1.40001
1.40001
1.40001
1.40001
1.40001
1.40001
1.40001
1.40001
9.62561
9.24774
6.79991
1.67904
1.40001
1.40001
1.40001
1.40001
1.40001
1.40001
1.40001
1.40001
1.40001
1.40001
1.40001
1.40001
1.40001
1.40001
1.40001
1.40001
10.0481
8.83007
4.86862
1.38239
1.40001
1.40001
1.40001
1.40001
1.40001
1.40001
1.40001
1.40001
1.40001
1.40001
1.40001
1.40001
1.40001
1.40001
1.40001
1.40001
10.3336
8.38776
3.16273
1.40001
1.40001
1.40001
1.40001
1.40001
1.40001
1.40001
1.40001
1.40001
1.40001
1.40001
1.40001
1.40001
1.40001
1.40001
1.40001
1.40001
10.4201
7.4573
2.23277
1.40001
1.40001
1.40001
1.40001
1.40001
1.40001
1.40001
1.40001
1.40001
1.40001
1.40001
1.40001
1.40001
1.40001
1.40001
1.40001
1.40001
10.4969
6.54047
1.62404
1.40001
1.40001
1.40001
1.40001
1.40001
1.40001
1.40001
1.40001
1.40001
1.40001
1.40001
1.40001
1.40001
1.40001
1.40001
1.40001
1.40001
10.238
5.50225
1.40015
1.40001
1.40001
1.40001
1.40001
1.40001
1.40001
1.40001
1.40001
1.40001
1.40001
1.40001
1.40001
1.40001
1.40001
1.40001
1.40001
1.40001
9.85226
4.55265
1.40001
1.40001
1.40001
1.40001
1.40001
1.40001
1.40001
1.40001
1.40001
1.40001
1.40001
1.40001
1.40001
1.40001
1.40001
1.40001
1.40001
1.40001
9.66236
3.57122
1.40001
1.40001
1.40001
1.40001
1.40001
1.40001
1.40001
1.40001
1.40001
1.40001
1.40001
1.40001
1.40001
1.40001
1.40001
1.40001
1.40001
1.40001
9.34713
2.59481
1.40001
1.40001
1.40001
1.40001
1.40001
1.40001
1.40001
1.40001
1.40001
1.40001
1.40001
1.40001
1.40001
1.40001
1.40001
1.40001
1.40001
1.40001
8.69342
1.85304
1.40001
1.40001
1.40001
1.40001
1.40001
1.40001
1.40001
1.40001
1.40001
1.40001
1.40001
1.40001
1.40001
1.40001
1.40001
1.40001
1.40001
1.40001
7.9468
1.40621
1.40001
1.40001
1.40001
1.40001
1.40001
1.40001
1.40001
1.40001
1.40001
1.40001
1.40001
1.40001
1.40001
1.40001
1.40001
1.40001
1.40001
1.40001
6.47261
1.4002
1.40001
1.40001
1.40001
1.40001
1.40001
1.40001
1.40001
1.40001
1.40001
1.40001
1.40001
1.40001
1.40001
1.40001
1.40001
1.40001
1.40001
1.40001
6.46341
1.40021
1.40001
1.40001
1.40001
1.40001
1.40001
1.40001
1.40001
1.40001
1.40001
1.40001
1.40001
1.40001
1.40001
1.40001
1.40001
1.40001
1.40001
1.40001
7.96561
1.40641
1.40001
1.40001
1.40001
1.40001
1.40001
1.40001
1.40001
1.40001
1.40001
1.40001
1.40001
1.40001
1.40001
1.40001
1.40001
1.40001
1.40001
1.40001
8.69796
1.85909
1.40001
1.40001
1.40001
1.40001
1.40001
1.40001
1.40001
1.40001
1.40001
1.40001
1.40001
1.40001
1.40001
1.40001
1.40001
1.40001
1.40001
1.40001
9.30936
2.58028
1.40001
1.40001
1.40001
1.40001
1.40001
1.40001
1.40001
1.40001
1.40001
1.40001
1.40001
1.40001
1.40001
1.40001
1.40001
1.40001
1.40001
1.40001
9.70594
3.54126
1.40001
1.40001
1.40001
1.40001
1.40001
1.40001
1.40001
1.40001
1.40001
1.40001
1.40001
1.40001
1.40001
1.40001
1.40001
1.40001
1.40001
1.40001
9.85925
4.57456
1.40001
1.40001
1.40001
1.40001
1.40001
1.40001
1.40001
1.40001
1.40001
1.40001
1.40001
1.40001
1.40001
1.40001
1.40001
1.40001
1.40001
1.40001
10.2148
5.52587
1.40008
1.40001
1.40001
1.40001
1.40001
1.40001
1.40001
1.40001
1.40001
1.40001
1.40001
1.40001
1.40001
1.40001
1.40001
1.40001
1.40001
1.40001
10.4958
6.5478
1.61963
1.40001
1.40001
1.40001
1.40001
1.40001
1.40001
1.40001
1.40001
1.40001
1.40001
1.40001
1.40001
1.40001
1.40001
1.40001
1.40001
1.40001
10.4242
7.44498
2.2344
1.40001
1.40001
1.40001
1.40001
1.40001
1.40001
1.40001
1.40001
1.40001
1.40001
1.40001
1.40001
1.40001
1.40001
1.40001
1.40001
1.40001
10.3366
8.3801
3.16382
1.40001
1.40001
1.40001
1.40001
1.40001
1.40001
1.40001
1.40001
1.40001
1.40001
1.40001
1.40001
1.40001
1.40001
1.40001
1.40001
1.40001
10.0625
8.8403
4.84494
1.38246
1.40001
1.40001
1.40001
1.40001
1.40001
1.40001
1.40001
1.40001
1.40001
1.40001
1.40001
1.40001
1.40001
1.40001
1.40001
1.40001
9.63747
9.21722
6.76862
1.68781
1.4
1.40001
1.40001
1.40001
1.40001
1.40001
1.40001
1.40001
1.40001
1.40001
1.40001
1.40001
1.40001
1.40001
1.40001
1.40001
9.03705
9.34091
8.54271
2.83392
1.40001
1.40001
1.40001
1.40001
1.40001
1.40001
1.40001
1.40001
1.40001
1.40001
1.40001
1.40001
1.40001
1.40001
1.40001
1.40001
8.83563
9.26677
9.1323
4.97514
1.39913
1.40001
1.40001
1.40001
1.40001
1.40001
1.40001
1.40001
1.40001
1.40001
1.40001
1.40001
1.40001
1.40001
1.40001
1.40001
8.87228
9.30593
9.32417
6.75921
1.94453
1.40001
1.40001
1.40001
1.40001
1.40001
1.40001
1.40001
1.40001
1.40001
1.40001
1.40001
1.40001
1.40001
1.40001
1.40001
9.0055
9.43574
9.49972
8.7525
3.71163
1.36563
1.40052
1.4
1.40001
1.40001
1.40001
1.40001
1.40001
1.40001
1.40001
1.40001
1.40001
1.40001
1.40001
1.40001
9.22568
9.48447
9.50724
9.11402
6.58116
2.08306
1.38943
1.40019
1.4
1.40001
1.40001
1.40001
1.40001
1.40001
1.40001
1.40001
1.40001
1.40001
1.40001
1.40001
9.40094
9.4916
9.37651
9.11238
8.71609
4.80937
1.48508
1.39847
1.40001
1.40001
1.40001
1.40001
1.40001
1.40001
1.40001
1.40001
1.40001
1.40001
1.40001
1.40001
9.56719
9.52365
9.37616
9.27588
9.59629
8.00899
3.60127
1.41561
1.40001
1.40001
1.40001
1.40001
1.40001
1.40001
1.40001
1.40001
1.40001
1.40001
1.40001
1.40001
9.66552
9.59998
9.5265
9.61164
9.79369
9.41342
8.31856
3.1218
0.924341
1.40001
1.40001
1.40001
1.40001
1.40001
1.40001
1.40001
1.40001
1.40001
1.40001
1.40001
3.22784
5.08211
6.81677
7.94261
8.67558
8.93548
9.11563
8.65925
6.30687
4.45986
3.30924
2.19973
1.52007
1.38296
1.39037
1.39491
1.39882
1.39997
1.40003
1.40002
0.424588
1.18166
2.73844
4.47401
5.83233
6.70012
7.50718
8.18185
7.98309
7.34626
6.73624
5.98625
4.7182
3.24115
1.99229
1.44064
1.38512
1.39291
1.39626
1.39923
0.0515875
0.236784
0.762955
1.6822
2.94863
4.00834
4.89894
5.82612
6.61271
6.70508
6.56345
6.56983
6.51928
6.29723
5.60159
4.27752
2.92221
1.86448
1.4258
1.39013
0.00969673
0.0425056
0.149434
0.572818
1.30899
2.05995
2.78466
3.57331
4.3957
4.89301
5.20624
5.53808
5.83236
6.07837
6.21859
6.11664
5.81841
5.08074
3.88937
2.63492
0.0148986
0.0315908
0.0477705
0.15578
0.429559
1.03928
1.59715
2.17503
2.79223
3.30575
3.66677
4.01941
4.39049
4.79862
5.25627
5.54682
5.69354
5.73258
5.60131
5.42581
0.0276197
0.0336892
0.0552271
0.0822187
0.154032
0.421794
0.788006
1.1831
1.64886
2.05628
2.38942
2.68795
2.9927
3.31576
3.7447
4.14575
4.52169
4.85228
5.06349
5.25166
0.0509626
0.0462965
0.0652059
0.0896349
0.172235
0.214185
0.370844
0.577012
0.872219
1.19859
1.49802
1.77542
2.04402
2.29913
2.61794
2.94582
3.26123
3.58256
3.8876
4.17017
0.062777
0.0527406
0.0729496
0.116673
0.183129
0.21513
0.331919
0.467848
0.646986
0.893559
1.08994
1.29088
1.48125
1.65923
1.85297
2.07454
2.30264
2.53544
2.90642
2.90047
0.0629944
0.0515203
0.0649368
0.112232
0.171152
0.212438
0.288518
0.404799
0.529324
0.680604
0.806702
0.933401
1.05681
1.17404
1.28941
1.44457
1.65142
1.85364
2.17055
2.11602
0.0616313
0.0533275
0.0569418
0.0847853
0.133183
0.175087
0.213732
0.292515
0.368126
0.438668
0.521859
0.60951
0.712162
0.816033
0.932858
1.0801
1.24286
1.38994
1.62332
1.57232
0.0555603
0.0584785
0.0603022
0.068049
0.0938259
0.135498
0.142258
0.178854
0.228002
0.284113
0.36803
0.449699
0.557555
0.645684
0.742489
0.841988
0.93944
1.02763
1.13665
1.32578
0.0536994
0.0627699
0.0658248
0.0684952
0.0822513
0.115571
0.118005
0.140356
0.204953
0.271074
0.338758
0.393449
0.467545
0.525809
0.581696
0.634759
0.683325
0.738795
0.808376
1.01126
0.0573661
0.0665209
0.0675837
0.0685041
0.0852847
0.109151
0.115434
0.144241
0.205907
0.254486
0.297966
0.330719
0.363182
0.396377
0.416834
0.443598
0.468981
0.526997
0.605154
0.763754
0.064571
0.0681197
0.0659514
0.0680757
0.0835488
0.103931
0.117094
0.141312
0.183278
0.222889
0.229196
0.242788
0.244074
0.257187
0.272062
0.306529
0.358495
0.428834
0.49062
0.58694
0.0825123
0.0721164
0.0639114
0.0666858
0.0774734
0.093344
0.109257
0.120539
0.137167
0.165445
0.156171
0.16004
0.169834
0.201163
0.24026
0.281355
0.323798
0.363925
0.398357
0.435399
0.0951747
0.0871571
0.0764098
0.0647578
0.0665668
0.0758345
0.0873253
0.0883008
0.0952966
0.110097
0.120981
0.13616
0.164661
0.200008
0.228092
0.256474
0.275846
0.288781
0.289441
0.299244
0.0953854
0.100175
0.100919
0.087028
0.0660949
0.0646695
0.0698576
0.0769421
0.0854711
0.0995302
0.120901
0.138867
0.164107
0.187383
0.200351
0.214509
0.214301
0.211871
0.211082
0.230453
0.101681
0.111846
0.113223
0.101354
0.083336
0.0667019
0.0692025
0.078284
0.0874661
0.0999826
0.117725
0.130667
0.139653
0.143364
0.143694
0.144634
0.146532
0.149944
0.158773
0.179559
0.129675
0.15281
0.178741
0.17526
0.179662
0.165338
0.140992
0.138424
0.150735
0.184111
0.234023
0.276762
0.309682
0.297881
0.270216
0.265786
0.272082
0.286274
0.312286
0.331852
0.223434
0.356419
0.440487
0.494876
0.546997
0.550241
0.539327
0.541475
0.580368
0.603227
0.61684
0.632175
0.65485
0.655747
0.659841
0.689323
0.718529
0.732082
0.746596
0.747754
0.781986
0.883855
0.964724
1.13815
1.16187
1.19191
1.17437
1.18199
1.21708
1.2757
1.31629
1.32024
1.30207
1.29185
1.31084
1.33048
1.33793
1.33762
1.32978
1.32398
0.36735
0.579517
0.752872
0.949058
1.08399
1.17999
1.1753
1.17788
1.20968
1.25886
1.30191
1.3156
1.31105
1.29858
1.30335
1.32044
1.34035
1.34625
1.34174
1.33378
0.194164
0.226946
0.337324
0.467967
0.73489
0.985663
1.07444
1.17548
1.22639
1.2523
1.28729
1.30728
1.31534
1.31616
1.31066
1.312
1.32515
1.33651
1.33969
1.33923
0.265958
0.302667
0.312393
0.327133
0.35992
0.475402
0.770119
1.03564
1.14074
1.21873
1.27453
1.29661
1.31891
1.32924
1.32218
1.31581
1.31997
1.32891
1.33436
1.33943
0.326318
0.374507
0.37413
0.383932
0.408938
0.412095
0.448814
0.591648
0.864017
1.09634
1.20371
1.26952
1.31975
1.34338
1.33841
1.32279
1.31657
1.31544
1.3208
1.3357
0.431467
0.457964
0.457031
0.450202
0.451476
0.460847
0.483239
0.477692
0.518138
0.688673
0.962475
1.16086
1.29469
1.34089
1.33901
1.33263
1.32086
1.31168
1.31576
1.33499
0.567453
0.575104
0.535929
0.498933
0.503474
0.520011
0.53613
0.543012
0.539382
0.52386
0.623205
0.897649
1.13771
1.3275
1.33428
1.33174
1.32086
1.30004
1.30939
1.33662
0.737093
0.719765
0.652099
0.56051
0.549166
0.573241
0.596096
0.598545
0.586313
0.556136
0.54256
0.607955
0.856808
1.15578
1.29753
1.32996
1.31729
1.29843
1.3233
1.34198
0.944479
0.88051
0.788004
0.655362
0.633066
0.643225
0.651032
0.651882
0.638444
0.60304
0.570774
0.565083
0.608218
0.842973
1.15178
1.31609
1.28601
1.30157
1.34064
1.34357
1.19177
1.08285
0.968329
0.7977
0.71197
0.697352
0.695385
0.698926
0.685314
0.649692
0.616093
0.587046
0.592904
0.633188
0.846397
1.17391
1.24167
1.31521
1.35347
1.33872
1.70362
1.3364
1.17688
1.04115
0.89626
0.785389
0.764831
0.778903
0.772217
0.744582
0.701005
0.660586
0.636239
0.63332
0.661328
0.802752
1.06611
1.25348
1.3057
1.32634
2.85295
2.03697
1.57165
1.39518
1.26237
1.08534
0.933773
0.891178
0.856618
0.815649
0.78792
0.762233
0.729871
0.712933
0.684092
0.686124
0.739262
0.903228
1.10394
1.27091
3.49256
3.01533
2.37934
1.8601
1.55727
1.35655
1.13245
1.0042
0.965745
0.948455
0.939126
0.909181
0.857112
0.806388
0.760792
0.717669
0.72573
0.749423
0.813802
1.04603
3.3
3.27205
3.1133
2.68022
2.15217
1.7895
1.53551
1.30156
1.21597
1.14754
1.07808
1.00614
0.927664
0.862792
0.835534
0.801384
0.788043
0.778113
0.765158
0.810691
2.34598
2.99852
3.0983
3.05914
2.86138
2.46913
2.0988
1.74679
1.5099
1.31761
1.18129
1.10782
1.04556
1.01009
0.989651
0.943535
0.900381
0.864676
0.801463
0.799904
1.55166
2.00878
2.58352
2.94979
2.94589
2.88975
2.69327
2.35736
2.01223
1.72724
1.48709
1.3633
1.27418
1.20049
1.13274
1.04565
0.959748
0.912059
0.887225
0.857211
1.40639
1.46077
1.68897
2.16595
2.6038
2.81992
2.81105
2.75151
2.55544
2.27292
1.95852
1.6951
1.50478
1.34907
1.24152
1.164
1.05953
1.01208
1.01768
0.983485
1.40014
1.40151
1.41495
1.5108
1.77337
2.1936
2.55118
2.70383
2.69313
2.63526
2.46874
2.20241
1.94159
1.69784
1.5073
1.41728
1.31883
1.22159
1.15369
1.06492
1.40001
1.40002
1.40022
1.40349
1.42615
1.53872
1.80802
2.17329
2.47227
2.59817
2.58897
2.53613
2.40058
2.17737
1.91757
1.70657
1.54951
1.40243
1.287
1.16141
1.40001
1.40001
1.40001
1.40004
1.40045
1.4054
1.43391
1.55445
1.79929
2.1253
2.37613
2.50118
2.49507
2.45682
2.34703
2.14777
1.9313
1.72545
1.57432
1.39563
1.40001
1.40001
1.40001
1.40001
1.40001
1.40007
1.40067
1.40703
1.4358
1.54786
1.76769
2.06936
2.28139
2.40954
2.40771
2.38184
2.30044
2.14073
1.95592
1.67412
1.40001
1.40001
1.40001
1.40001
1.40001
1.40001
1.40001
1.4001
1.40075
1.407
1.43505
1.53128
1.72582
1.99383
2.20454
2.31806
2.32362
2.30909
2.26049
2.04778
1.40001
1.40001
1.40001
1.40001
1.40001
1.40001
1.40001
1.40001
1.40001
1.4001
1.4008
1.4058
1.43201
1.50963
1.67656
1.91219
2.12412
2.23984
2.25033
2.21959
1.40001
1.40001
1.40001
1.40001
1.40001
1.40001
1.40001
1.40001
1.40001
1.40001
1.40001
1.40008
1.40077
1.40453
1.42504
1.49092
1.62636
1.83848
2.02233
2.16835
1.40001
1.40001
1.40001
1.40001
1.40001
1.40001
1.40001
1.40001
1.40001
1.40001
1.40001
1.40001
1.40001
1.40007
1.4006
1.40364
1.41949
1.47202
1.59067
1.94243
2.26464
3.43066
3.59215
2.90515
1.83146
1.45156
1.40263
1.40007
1.40001
1.40001
1.40001
1.40001
1.40001
1.40001
1.40001
3.25849
3.91897
3.51884
2.15296
1.46742
1.40114
1.40001
1.4
1.40001
1.40001
1.40001
1.40001
1.40001
1.40001
1.40001
4.07831
3.9935
2.76435
1.61173
1.40719
1.40007
1.40001
1.40001
1.40001
1.40001
1.40001
1.40001
1.40001
1.40001
1.40001
4.52298
3.56305
1.90688
1.42686
1.40027
1.40001
1.40001
1.40001
1.40001
1.40001
1.40001
1.40001
1.40001
1.40001
1.40001
4.62264
2.35355
1.46607
1.40072
1.40001
1.4
1.40001
1.40001
1.40001
1.40001
1.40001
1.40001
1.40001
1.40001
1.40001
2.88341
1.50266
1.40069
1.4
1.4
1.4
1.40001
1.40001
1.40001
1.40001
1.40001
1.40001
1.40001
1.40001
1.40001
1.54145
1.40077
1.4
1.4
1.40001
1.40001
1.40001
1.40001
1.40001
1.40001
1.40001
1.40001
1.40001
1.40001
1.40001
1.39741
1.39981
1.4
1.4
1.40001
1.40001
1.40001
1.40001
1.40001
1.40001
1.40001
1.40001
1.40001
1.40001
1.40001
1.39996
1.40001
1.40001
1.40001
1.40001
1.40001
1.40001
1.40001
1.40001
1.40001
1.40001
1.40001
1.40001
1.40001
1.40001
1.40001
1.40001
1.40001
1.40001
1.40001
1.40001
1.40001
1.40001
1.40001
1.40001
1.40001
1.40001
1.40001
1.40001
1.40001
1.40001
1.40001
1.40001
1.40001
1.40001
1.40001
1.40001
1.40001
1.40001
1.40001
1.40001
1.40001
1.40001
1.40001
1.40001
1.40001
1.40001
1.40001
1.40001
1.40001
1.40001
1.40001
1.40001
1.40001
1.40001
1.40001
1.40001
1.40001
1.40001
1.40001
1.40001
1.40001
1.40001
1.40001
1.40001
1.40001
1.40001
1.40001
1.40001
1.40001
1.40001
1.40001
1.40001
1.40001
1.40001
1.40001
1.40001
1.40001
1.40001
1.40001
1.40001
1.40001
1.40001
1.40001
1.40001
1.40001
1.40001
1.40001
1.40001
1.40001
1.40001
1.40001
1.40001
1.40001
1.40001
1.40001
1.40001
1.40001
1.40001
1.40001
1.40001
1.40001
1.40001
1.40001
1.40001
1.40001
1.40001
1.40001
1.40001
1.40001
1.40001
1.40001
1.40001
1.40001
1.40001
1.40001
1.40001
1.40001
1.40001
1.40001
1.40001
1.40001
1.40001
1.40001
1.40001
1.40001
1.40001
1.40001
1.40001
1.40001
1.40001
1.40001
1.40001
1.40001
1.40001
1.40001
1.40001
1.40001
1.40001
1.40001
1.40001
1.40001
1.40001
1.40001
1.40001
1.40001
1.40001
1.40001
1.40001
1.40001
1.40001
1.40001
1.40001
1.40001
1.40001
1.40001
1.40001
1.40001
1.40001
1.40001
1.40001
1.40001
1.40001
1.40001
1.40001
1.40001
1.40001
1.40001
1.40001
1.40001
1.40001
1.40001
1.40001
1.40001
1.40001
1.40001
1.40001
1.40001
1.40001
1.40001
1.40001
1.40001
1.40001
1.40001
1.40001
1.40001
1.40001
1.40001
1.40001
1.40001
1.40001
1.40001
1.40001
1.40001
1.40001
1.40001
1.40001
1.40001
1.40001
1.40001
1.40001
1.40001
1.40001
1.40001
1.40001
1.40001
1.40001
1.40001
1.40001
1.40001
1.40001
1.40001
1.40001
1.40001
1.40001
1.40001
1.40001
1.40001
1.40001
1.40001
1.40001
1.40001
1.40001
1.40001
1.40001
1.40001
1.40001
1.40001
1.40001
1.40001
1.40001
1.40001
1.40001
1.40001
1.40001
1.40001
1.40001
1.40001
1.40001
1.40001
1.40001
1.40001
1.40001
1.40001
1.40001
1.40001
1.40001
1.40001
1.40001
1.40001
1.40001
1.40001
1.40001
1.40001
1.40001
1.40001
1.40001
1.40001
1.40001
1.40001
1.40001
1.40001
1.40001
1.40001
1.40001
1.40001
1.40001
1.40001
1.40001
1.40001
1.40001
1.40001
1.40001
1.40001
1.40001
1.40001
1.40001
1.40001
1.40001
1.40001
1.40001
1.40001
1.40001
1.40001
1.40001
1.40001
1.40001
1.40001
1.40001
1.40001
1.40001
1.40001
1.40001
1.40001
1.40001
1.40001
1.40001
1.40001
1.40001
1.40001
1.40001
1.40001
1.40001
1.40001
1.40001
1.40001
1.40001
1.40001
1.40001
1.40001
1.40001
1.40001
1.40001
1.40001
1.40001
1.40001
1.40001
1.40001
1.40001
1.40001
1.40001
1.40001
1.40001
1.40001
1.40001
1.40001
1.40001
1.40001
1.40001
1.40001
1.40001
1.40001
1.40001
1.40001
1.40001
1.40001
1.40001
1.40001
1.40001
1.40001
1.40001
1.40001
1.40001
1.40001
1.40001
1.40001
1.40001
1.40001
1.40001
1.40001
1.40001
1.40001
1.40001
1.40001
1.40001
1.40001
1.40001
1.40001
1.40001
1.40001
1.40001
1.40001
1.40001
1.40001
1.40001
1.40001
1.40001
1.40001
1.40001
1.40001
1.40001
1.40001
1.40001
1.40001
1.40001
1.40001
1.40001
1.40001
1.40001
1.40001
1.40001
1.40001
1.40001
1.40001
1.40001
1.40001
1.40001
1.40001
1.40001
1.40001
1.40001
1.40001
1.40001
1.40001
1.40001
1.40001
1.40001
1.40001
1.40001
1.40001
1.40001
1.40001
1.40001
1.40001
1.40001
1.40001
1.40001
1.40001
1.40001
1.40001
1.40001
1.40001
1.40001
1.40001
1.40001
1.40001
1.40001
1.40001
1.40001
1.40001
1.40001
1.40001
1.40001
1.40001
1.40001
1.40001
1.40001
1.40001
1.40001
1.40001
1.40001
1.40001
1.40001
1.40001
1.40001
1.40001
1.40001
1.40001
1.40001
1.40001
1.40001
1.40001
1.40001
1.40001
1.40001
1.40001
1.40001
1.40001
1.40001
1.40001
1.40001
1.40001
1.40001
1.40001
1.40001
1.40001
1.40001
1.40001
1.40001
1.40001
1.40001
1.40001
1.40001
1.40001
1.40001
1.40001
1.40001
1.40001
1.40001
1.40001
1.40001
1.40001
1.40001
1.40001
1.40001
1.40001
1.40001
1.40001
1.40001
1.40001
1.40001
1.40001
1.40001
1.40001
1.40001
1.40001
1.40001
1.40001
1.40001
1.40001
1.40001
1.40001
1.40001
1.40001
1.40001
1.40001
1.40001
1.40001
1.40001
1.40001
1.40001
1.40001
1.40001
1.40001
1.40001
1.40001
1.40001
1.40001
1.40001
1.40001
1.40001
1.40001
1.40001
1.40001
1.40001
1.40001
1.40001
1.40001
1.40001
1.40001
1.40001
1.40001
1.40001
1.40001
1.40001
1.40001
1.40001
1.40001
1.40001
1.40001
1.40001
1.40001
1.40001
1.40001
1.40001
1.40001
1.40001
1.40001
1.40001
1.40001
1.40001
1.40001
1.40001
1.40001
1.40001
1.40001
1.40001
1.40001
1.40001
1.40001
1.40001
1.40001
1.40001
1.40001
1.40001
1.40001
1.40001
1.40001
1.40001
1.40001
1.40001
1.40001
1.40001
1.40001
1.40001
1.40001
1.40001
1.40001
1.40001
1.40001
1.40001
1.40001
1.40001
1.40001
1.40001
1.40001
1.40001
1.40001
1.40001
1.40001
1.40001
1.40001
1.40001
1.40001
1.40001
1.40001
1.40001
1.40001
1.40001
1.40001
1.40001
1.40001
1.40001
1.40001
1.40001
1.40001
1.40001
1.40001
1.40001
1.40001
1.40001
1.40001
1.40001
1.40001
1.40001
1.40001
1.40001
1.40001
1.40001
1.40001
1.40001
1.40001
1.40001
1.40001
1.40001
1.40001
1.40001
1.40001
1.40001
1.40001
1.40001
1.40001
1.40001
1.40001
1.40001
1.40001
1.40001
1.40001
1.40001
1.40001
1.40001
1.40001
1.40001
1.40001
1.40001
1.40001
1.40001
1.40001
1.40001
1.40001
1.40001
1.40001
1.40001
1.40001
1.40001
1.40001
1.40001
1.40001
1.40001
1.40001
1.40001
1.40001
1.40001
1.40001
1.40001
1.40001
1.40001
1.40001
1.40001
1.40001
1.40001
1.40001
1.40001
1.40001
1.40001
1.40001
1.40001
1.40001
1.40001
1.40001
1.40001
1.40001
1.40001
1.40001
1.40001
1.40001
1.40001
1.40001
1.40001
1.40001
1.40001
1.40001
1.40001
1.40001
1.40001
1.40001
1.40001
1.40001
1.40001
1.40001
1.40001
1.40001
1.40001
1.40001
1.40001
1.40001
1.40001
1.40001
1.40001
1.40001
1.40001
1.40001
1.40001
1.40001
1.40001
1.40001
1.40001
1.40001
1.40001
1.40001
1.40001
1.40001
1.40001
1.40001
1.40001
1.40001
1.40001
1.40001
1.40001
1.40001
1.40001
1.40001
1.40001
1.40001
1.40001
1.40001
1.40001
1.40001
1.40001
1.40001
1.40001
1.40001
1.40001
1.40001
1.40001
1.40001
1.40001
1.40001
1.40001
1.40001
1.40001
1.40001
1.40001
1.40001
1.40001
1.40001
1.40001
1.40001
1.40001
1.40001
1.40001
1.40001
1.40001
1.40001
1.40001
1.40001
1.40001
1.40001
1.40001
1.40001
1.40001
1.40001
1.40001
1.40001
1.40001
1.40001
1.40001
1.40001
1.40001
1.40001
1.40001
1.40001
1.40001
1.40001
1.40001
1.40001
1.40001
1.40001
1.40001
1.40001
1.40001
1.40001
1.40001
1.40001
1.40001
1.40001
1.40001
1.40001
1.40001
1.40001
1.40001
1.40001
1.40001
1.40001
1.40001
1.40001
1.40001
1.40001
1.40001
1.40001
1.40001
1.40001
1.40001
1.40001
1.40001
1.40001
1.40001
1.40001
1.40001
1.40001
1.40001
1.40001
1.40001
1.40001
1.40001
1.40001
1.40001
1.40001
1.40001
1.40001
1.40001
1.40001
1.40001
1.40001
1.40001
1.40001
1.40001
1.40001
1.40001
1.40001
1.40001
1.40001
1.40001
1.40001
1.40001
1.40001
1.40001
1.40001
1.40001
1.40001
1.40001
1.40001
1.40001
1.40001
1.40001
1.39996
1.40001
1.40001
1.40001
1.40001
1.40001
1.40001
1.40001
1.40001
1.40001
1.40001
1.40001
1.40001
1.40001
1.40001
1.39742
1.39982
1.4
1.4
1.40001
1.40001
1.40001
1.40001
1.40001
1.40001
1.40001
1.40001
1.40001
1.40001
1.40001
1.54113
1.40076
1.4
1.4
1.40001
1.40001
1.40001
1.40001
1.40001
1.40001
1.40001
1.40001
1.40001
1.40001
1.40001
2.88217
1.50254
1.40069
1.4
1.4
1.4
1.40001
1.40001
1.40001
1.40001
1.40001
1.40001
1.40001
1.40001
1.40001
4.62176
2.35352
1.46611
1.40072
1.40001
1.4
1.40001
1.40001
1.40001
1.40001
1.40001
1.40001
1.40001
1.40001
1.40001
4.52249
3.56325
1.90738
1.42686
1.40027
1.40001
1.40001
1.40001
1.40001
1.40001
1.40001
1.40001
1.40001
1.40001
1.40001
4.07721
3.9932
2.76395
1.61186
1.40721
1.40007
1.40001
1.40001
1.40001
1.40001
1.40001
1.40001
1.40001
1.40001
1.40001
3.25865
3.91872
3.51889
2.15268
1.46734
1.40114
1.40001
1.4
1.40001
1.40001
1.40001
1.40001
1.40001
1.40001
1.40001
2.2596
3.42902
3.59377
2.90628
1.83158
1.45153
1.40262
1.40007
1.40001
1.40001
1.40001
1.40001
1.40001
1.40001
1.40001
1.72766
2.85863
3.48889
3.29841
2.34638
1.55198
1.40639
1.40014
1.40001
1.40001
1.40001
1.40001
1.40001
1.40001
1.40001
1.32449
2.02772
3.02469
3.27233
2.99777
2.00928
1.46093
1.40151
1.40002
1.40001
1.40001
1.40001
1.40001
1.40001
1.40001
1.16625
1.57064
2.3801
3.11602
3.09806
2.58238
1.68858
1.41493
1.40022
1.40001
1.40001
1.40001
1.40001
1.40001
1.40001
1.03696
1.40302
1.84839
2.67612
3.06009
2.94958
2.16552
1.51058
1.40349
1.40004
1.40001
1.40001
1.40001
1.40001
1.40001
0.884128
1.26214
1.56736
2.1534
2.856
2.94616
2.60434
1.77395
1.42622
1.40046
1.40001
1.40001
1.40001
1.40001
1.40001
0.782763
1.06374
1.35287
1.81027
2.47692
2.89085
2.81982
2.19363
1.53903
1.40543
1.40007
1.40001
1.40001
1.40001
1.40001
0.776154
0.929354
1.10112
1.51639
2.10483
2.70005
2.81198
2.55249
1.80806
1.43391
1.40067
1.40001
1.40001
1.40001
1.40001
0.791056
0.90103
0.997478
1.27977
1.74255
2.35933
2.75082
2.70392
2.17457
1.55432
1.40699
1.4001
1.40001
1.40001
1.40001
0.776318
0.868053
0.988577
1.21865
1.50069
2.00506
2.55749
2.69296
2.47139
1.79979
1.43608
1.40076
1.40001
1.40001
1.40001
0.738897
0.815546
0.957095
1.1513
1.32215
1.73177
2.27015
2.63415
2.59727
2.12562
1.54785
1.407
1.4001
1.40001
1.40001
0.693947
0.779919
0.941816
1.07971
1.19039
1.49728
1.95666
2.46809
2.58854
2.37724
1.76813
1.43491
1.4008
1.40001
1.40001
0.666019
0.760507
0.914893
1.00453
1.10109
1.364
1.69678
2.20377
2.53647
2.50071
2.06847
1.53175
1.40584
1.40008
1.40001
0.63941
0.734604
0.869689
0.93253
1.02905
1.26605
1.50148
1.93801
2.40101
2.4947
2.28182
1.72547
1.43195
1.40076
1.40001
0.629425
0.709294
0.814802
0.872619
1.00033
1.19473
1.35044
1.69383
2.17594
2.45633
2.41018
1.99417
1.50934
1.40451
1.40007
0.655998
0.66891
0.760575
0.836143
0.983307
1.12738
1.24723
1.51648
1.91956
2.34602
2.40806
2.20413
1.67707
1.4251
1.4006
0.790323
0.675042
0.720015
0.809965
0.944225
1.04049
1.15854
1.41924
1.70982
2.14928
2.3821
2.31805
1.91293
1.49125
1.40365
1.05433
0.732769
0.72812
0.799292
0.908159
0.963096
1.05817
1.31482
1.54706
1.93208
2.3011
2.32442
2.12457
1.62629
1.41945
1.2471
0.897355
0.747127
0.786702
0.870083
0.914352
1.01892
1.22211
1.39906
1.72453
2.14183
2.31
2.23966
1.83824
1.47184
1.3115
1.10552
0.809789
0.76456
0.802302
0.880875
1.01893
1.15506
1.28609
1.57501
1.95727
2.26147
2.25078
2.02243
1.5907
1.33126
1.27326
1.04357
0.809061
0.800212
0.852971
0.979805
1.06396
1.16061
1.39672
1.67483
2.04851
2.21996
2.16842
1.94262
1.19571
1.07834
0.964115
0.803248
0.72367
0.709156
0.709923
0.711256
0.685777
0.642815
0.61796
0.59437
0.59491
0.629844
0.835768
1.16139
1.23789
1.31229
1.35555
1.3428
0.942567
0.879836
0.789867
0.653016
0.633438
0.647896
0.66313
0.664863
0.643567
0.603233
0.574737
0.565953
0.608817
0.841619
1.13536
1.3104
1.28591
1.30129
1.3425
1.34568
0.735384
0.719396
0.658949
0.572287
0.562801
0.57182
0.598746
0.605572
0.59148
0.555503
0.540226
0.605776
0.855757
1.15239
1.31757
1.3377
1.32051
1.30593
1.33002
1.34433
0.56396
0.577797
0.5364
0.497791
0.507186
0.521324
0.532458
0.536928
0.52313
0.518051
0.622008
0.899532
1.15721
1.33472
1.34771
1.34245
1.32547
1.30747
1.31677
1.34062
0.430145
0.456329
0.458246