/*--------------------------------*- C++ -*----------------------------------*\
  =========                 |
  \\      /  F ield         | OpenFOAM: The Open Source CFD Toolbox
   \\    /   O peration     | Website:  https://openfoam.org
    \\  /    A nd           | Version:  7
     \\/     M anipulation  |
\*---------------------------------------------------------------------------*/
FoamFile
{
    version     2.0;
    format      ascii;
    class       volScalarField;
    location    "8.6";
    object      T;
}
// * * * * * * * * * * * * * * * * * * * * * * * * * * * * * * * * * * * * * //

dimensions      [0 0 0 1 0 0 0];

internalField   nonuniform List<scalar> 
3700
(
100.635
100.804
100.898
100.998
101.023
101.024
101.015
101.018
101.038
101.043
101.032
101.044
101.095
101.13
101.132
101.124
101.106
101.062
100.992
100.962
100.261
100.333
100.419
100.516
100.522
100.559
100.602
100.628
100.606
100.518
100.403
100.382
100.428
100.524
100.606
100.606
100.552
100.43
100.302
100.247
100.142
100.17
100.154
100.091
99.9867
99.8849
99.8892
99.9232
99.9491
99.9883
100.028
100.04
100.044
100.04
100.025
100.01
100.002
100.002
100.015
100.038
100.051
100.08
100.084
100.032
99.8959
99.86
99.8708
99.8971
99.9213
99.9645
100.014
100.043
100.069
100.088
100.09
100.089
100.075
100.048
100.027
100.052
100.004
100.004
99.9797
99.908
99.8613
99.8684
99.8851
99.8928
99.9162
99.9599
99.9926
100.02
100.059
100.093
100.11
100.125
100.133
100.132
100.118
100.108
99.9587
99.9494
99.9118
99.9081
99.9516
99.9889
100
99.999
100.003
100.032
100.013
100.024
100.048
100.08
100.107
100.131
100.157
100.178
100.188
100.203
99.8913
99.9239
99.9251
99.9874
100.058
100.088
100.074
100.092
100.122
100.138
100.124
100.12
100.111
100.112
100.112
100.126
100.158
100.203
100.229
100.266
99.8668
99.9369
99.9863
100.036
100.104
100.135
100.102
100.129
100.185
100.199
100.208
100.208
100.218
100.222
100.22
100.217
100.215
100.233
100.265
100.321
99.8753
99.9631
100.005
100.034
100.088
100.134
100.113
100.136
100.197
100.227
100.245
100.255
100.282
100.292
100.302
100.307
100.31
100.319
100.331
100.382
99.9278
99.9732
99.9698
100.003
100.069
100.116
100.106
100.154
100.199
100.231
100.256
100.277
100.312
100.332
100.354
100.372
100.383
100.395
100.416
100.452
100.007
99.9316
99.9135
100.001
100.095
100.123
100.164
100.231
100.263
100.302
100.321
100.338
100.353
100.371
100.393
100.421
100.447
100.466
100.504
100.495
100.019
99.8794
99.9101
100.055
100.131
100.172
100.234
100.302
100.348
100.395
100.412
100.43
100.444
100.456
100.468
100.486
100.511
100.535
100.576
100.57
100.018
99.8644
99.9263
100.071
100.134
100.179
100.274
100.334
100.397
100.458
100.478
100.498
100.515
100.53
100.553
100.577
100.6
100.619
100.649
100.652
100.006
99.8422
99.8788
99.9969
100.114
100.201
100.317
100.385
100.463
100.513
100.54
100.559
100.578
100.6
100.632
100.664
100.691
100.712
100.725
100.734
99.9226
99.7634
99.8419
99.9728
100.16
100.407
100.501
100.561
100.61
100.635
100.646
100.655
100.667
100.689
100.721
100.751
100.773
100.783
100.779
100.774
99.6285
99.7201
99.8136
100.146
100.435
100.591
100.637
100.677
100.711
100.73
100.74
100.753
100.77
100.793
100.814
100.825
100.823
100.815
100.789
100.743
99.3938
99.7104
100.139
100.468
100.637
100.695
100.73
100.765
100.792
100.807
100.819
100.834
100.849
100.855
100.855
100.844
100.793
100.68
100.518
100.277
99.5282
100.121
100.487
100.669
100.768
100.809
100.834
100.859
100.875
100.883
100.883
100.883
100.881
100.857
100.771
100.622
100.36
100.101
100.006
99.9978
100.126
100.523
100.736
100.841
100.885
100.901
100.915
100.922
100.919
100.91
100.896
100.841
100.724
100.467
100.146
100.01
99.9966
99.9985
99.9992
99.9998
100.697
100.838
100.915
100.95
100.961
100.952
100.95
100.928
100.847
100.767
100.583
100.24
100.032
99.9959
99.9978
99.9989
99.9998
100
100
100
100.999
100.997
100.994
100.99
100.981
100.946
100.875
100.442
99.8542
100
100
100
100
100
100
100
100
100
100
100
100.998
100.996
100.988
100.977
100.964
100.857
100.475
100.009
100
100
100
100
100
100
100
100
100
100
100
100
100.989
100.991
100.986
100.966
100.929
100.654
100.046
99.9992
100
100
100
100
100
100
100
100
100
100
100
100
100.983
100.989
100.986
100.953
100.801
100.271
99.9959
100
100
100
100
100
100
100
100
100
100
100
100
100
100.977
100.987
100.982
100.924
100.555
99.9922
100
100
100
100
100
100
100
100
100
100
100
100
100
100
100.974
100.984
100.976
100.821
100.229
100
100
100
100
100
100
100
100
100
100
100
100
100
100
100
100.975
100.982
100.968
100.708
100.011
100
100
100
100
100
100
100
100
100
100
100
100
100
100
100
100.986
100.984
100.93
100.472
99.998
100
100
100
100
100
100
100
100
100
100
100
100
100
100
100
101.003
100.972
100.825
100.149
100
100
100
100
100
100
100
100
100
100
100
100
100
100
100
100
101.014
100.941
100.683
99.9964
100
100
100
100
100
100
100
100
100
100
100
100
100
100
100
100
101.022
100.907
100.498
100
100
100
100
100
100
100
100
100
100
100
100
100
100
100
100
100
101.027
100.85
100.315
100
100
100
100
100
100
100
100
100
100
100
100
100
100
100
100
100
101.031
100.791
100.11
100
100
100
100
100
100
100
100
100
100
100
100
100
100
100
100
100
101.03
100.728
100
100
100
100
100
100
100
100
100
100
100
100
100
100
100
100
100
100
101.015
100.678
100
100
100
100
100
100
100
100
100
100
100
100
100
100
100
100
100
100
100.992
100.585
100
100
100
100
100
100
100
100
100
100
100
100
100
100
100
100
100
100
100.949
100.426
100
100
100
100
100
100
100
100
100
100
100
100
100
100
100
100
100
100
100.898
100.21
100
100
100
100
100
100
100
100
100
100
100
100
100
100
100
100
100
100
100.864
100.004
100
100
100
100
100
100
100
100
100
100
100
100
100
100
100
100
100
100
100.815
100
100
100
100
100
100
100
100
100
100
100
100
100
100
100
100
100
100
100
100.814
100
100
100
100
100
100
100
100
100
100
100
100
100
100
100
100
100
100
100
100.866
100.004
100
100
100
100
100
100
100
100
100
100
100
100
100
100
100
100
100
100
100.9
100.214
100
100
100
100
100
100
100
100
100
100
100
100
100
100
100
100
100
100
100.947
100.422
100
100
100
100
100
100
100
100
100
100
100
100
100
100
100
100
100
100
100.99
100.579
100
100
100
100
100
100
100
100
100
100
100
100
100
100
100
100
100
100
101.014
100.682
100
100
100
100
100
100
100
100
100
100
100
100
100
100
100
100
100
100
101.032
100.731
100
100
100
100
100
100
100
100
100
100
100
100
100
100
100
100
100
100
101.032
100.791
100.108
100
100
100
100
100
100
100
100
100
100
100
100
100
100
100
100
100
101.027
100.849
100.316
100
100
100
100
100
100
100
100
100
100
100
100
100
100
100
100
100
101.022
100.906
100.499
100
100
100
100
100
100
100
100
100
100
100
100
100
100
100
100
100
101.014
100.941
100.68
99.9964
100
100
100
100
100
100
100
100
100
100
100
100
100
100
100
100
101.002
100.969
100.822
100.152
100
100
100
100
100
100
100
100
100
100
100
100
100
100
100
100
100.986
100.985
100.93
100.467
99.9976
100
100
100
100
100
100
100
100
100
100
100
100
100
100
100
100.976
100.984
100.97
100.712
100.011
100
100
100
100
100
100
100
100
100
100
100
100
100
100
100
100.975
100.985
100.977
100.823
100.24
100
100
100
100
100
100
100
100
100
100
100
100
100
100
100
100.977
100.987
100.981
100.922
100.551
99.9923
100
100
100
100
100
100
100
100
100
100
100
100
100
100
100.983
100.989
100.986
100.954
100.797
100.262
99.9959
100
100
100
100
100
100
100
100
100
100
100
100
100
100.989
100.991
100.985
100.966
100.928
100.658
100.049
99.9992
100
100
100
100
100
100
100
100
100
100
100
100
100.996
100.995
100.987
100.976
100.965
100.861
100.482
100.01
100
100
100
100
100
100
100
100
100
100
100
100
100.999
100.997
100.994
100.99
100.982
100.946
100.874
100.436
99.8568
100
100
100
100
100
100
100
100
100
100
100
100.696
100.838
100.915
100.95
100.961
100.953
100.951
100.927
100.847
100.767
100.582
100.24
100.032
99.9959
99.9978
99.9989
99.9998
100
100
100
100.126
100.522
100.736
100.842
100.886
100.902
100.916
100.922
100.918
100.909
100.896
100.842
100.725
100.467
100.146
100.01
99.9966
99.9985
99.9992
99.9998
99.5364
100.129
100.488
100.667
100.77
100.81
100.835
100.858
100.874
100.883
100.883
100.883
100.881
100.857
100.771
100.622
100.36
100.102
100.006
99.9978
99.3676
99.6786
100.152
100.474
100.639
100.696
100.73
100.765
100.792
100.806
100.818
100.834
100.85
100.855
100.854
100.844
100.793
100.68
100.518
100.277
99.6145
99.6912
99.8019
100.152
100.429
100.592
100.638
100.677
100.71
100.729
100.74
100.753
100.771
100.793
100.814
100.825
100.823
100.815
100.789
100.743
99.8658
99.7244
99.8063
99.9749
100.15
100.405
100.503
100.56
100.61
100.635
100.646
100.655
100.668
100.689
100.721
100.75
100.773
100.784
100.779
100.774
99.9876
99.8073
99.8566
100.022
100.157
100.211
100.318
100.385
100.464
100.514
100.541
100.561
100.579
100.6
100.632
100.664
100.691
100.712
100.725
100.733
100.015
99.8483
99.9215
100.083
100.153
100.193
100.277
100.336
100.398
100.459
100.479
100.499
100.515
100.53
100.552
100.576
100.6
100.619
100.65
100.652
100.032
99.8671
99.9051
100.054
100.135
100.18
100.237
100.303
100.348
100.395
100.412
100.431
100.444
100.454
100.466
100.485
100.511
100.536
100.576
100.57
100.044
99.9209
99.9054
99.9874
100.087
100.126
100.164
100.231
100.262
100.303
100.322
100.338
100.353
100.37
100.392
100.421
100.447
100.466
100.503
100.494
99.999
99.9869
99.9563
99.9873
100.057
100.121
100.108
100.155
100.197
100.231
100.258
100.278
100.312
100.332
100.354
100.372
100.384
100.395
100.416
100.452
99.9273
99.9938
100.006
100.018
100.075
100.135
100.112
100.134
100.197
100.228
100.247
100.256
100.282
100.292
100.302
100.307
100.311
100.32
100.331
100.381
99.9045
99.9769
100.002
100.022
100.092
100.132
100.097
100.127
100.187
100.2
100.209
100.208
100.217
100.222
100.22
100.219
100.217
100.233
100.264
100.32
99.9124
99.9508
99.9551
99.9891
100.053
100.087
100.075
100.092
100.123
100.138
100.123
100.12
100.11
100.112
100.113
100.127
100.158
100.202
100.228
100.266
99.977
99.9569
99.9135
99.9153
99.9567
99.9954
100.01
100.001
100.003
100.032
100.015
100.027
100.049
100.081
100.108
100.131
100.157
100.178
100.188
100.204
100.03
100.006
99.9654
99.8909
99.8695
99.8777
99.9011
99.9002
99.9222
99.967
99.9983
100.023
100.06
100.095
100.112
100.126
100.134
100.133
100.12
100.111
100.067
100.082
100.082
100.019
99.8857
99.8636
99.8801
99.9043
99.9278
99.9722
100.02
100.047
100.071
100.09
100.092
100.091
100.077
100.05
100.027
100.05
100.139
100.162
100.151
100.087
99.9836
99.8867
99.8963
99.9274
99.9533
99.9953
100.035
100.045
100.047
100.042
100.025
100.01
100.001
100.001
100.015
100.034
100.254
100.341
100.435
100.423
100.477
100.509
100.452
100.316
100.329
100.444
100.573
100.663
100.696
100.662
100.559
100.504
100.509
100.529
100.546
100.534
100.623
100.805
100.899
100.949
100.993
100.999
100.983
100.954
100.962
101.027
101.117
101.147
101.142
101.132
101.11
101.095
101.096
101.094
101.085
101.076
101.027
101.025
101
100.989
100.97
100.951
100.919
100.894
100.882
100.882
100.881
100.875
100.858
100.841
100.835
100.83
100.823
100.817
100.809
100.8
100.521
100.656
100.702
100.726
100.774
100.809
100.809
100.801
100.798
100.802
100.813
100.815
100.811
100.801
100.794
100.792
100.793
100.792
100.788
100.779
100.028
100.077
100.192
100.276
100.42
100.52
100.584
100.629
100.64
100.652
100.679
100.694
100.698
100.7
100.698
100.701
100.711
100.717
100.718
100.717
100.082
100.086
100.089
100.09
100.11
100.205
100.37
100.459
100.489
100.52
100.555
100.573
100.582
100.587
100.591
100.597
100.609
100.619
100.623
100.63
100.124
100.14
100.126
100.121
100.127
100.132
100.167
100.26
100.371
100.436
100.468
100.493
100.511
100.518
100.519
100.522
100.529
100.535
100.54
100.549
100.185
100.183
100.172
100.159
100.159
100.164
100.177
100.176
100.206
100.288
100.377
100.432
100.468
100.483
100.483
100.482
100.483
100.484
100.487
100.495
100.246
100.239
100.21
100.187
100.189
100.198
100.206
100.209
100.203
100.189
100.236
100.341
100.409
100.46
100.462
100.46
100.457
100.453
100.456
100.464
100.306
100.293
100.263
100.225
100.215
100.224
100.231
100.231
100.222
100.2
100.18
100.208
100.308
100.4
100.436
100.443
100.439
100.435
100.441
100.446
100.365
100.347
100.319
100.275
100.257
100.253
100.25
100.247
100.238
100.218
100.191
100.174
100.191
100.285
100.381
100.423
100.416
100.42
100.43
100.431
100.427
100.405
100.375
100.327
100.291
100.27
100.261
100.259
100.25
100.231
100.207
100.18
100.177
100.183
100.27
100.372
100.389
100.409
100.417
100.413
100.522
100.453
100.414
100.382
100.342
100.294
100.275
100.276
100.268
100.253
100.231
100.207
100.185
100.171
100.177
100.23
100.317
100.365
100.372
100.378
100.62
100.541
100.47
100.433
100.406
100.365
100.316
100.292
100.273
100.256
100.245
100.23
100.205
100.185
100.165
100.152
100.169
100.225
100.277
100.32
100.609
100.587
100.539
100.474
100.428
100.393
100.345
100.302
100.282
100.274
100.266
100.249
100.223
100.196
100.171
100.145
100.138
100.133
100.147
100.221
100.489
100.547
100.54
100.515
100.467
100.422
100.385
100.338
100.313
100.291
100.267
100.241
100.213
100.188
100.171
100.149
100.131
100.115
100.1
100.106
100.25
100.377
100.446
100.483
100.474
100.447
100.411
100.366
100.328
100.288
100.254
100.231
100.211
100.196
100.183
100.16
100.138
100.116
100.091
100.073
100.043
100.145
100.254
100.337
100.388
100.414
100.405
100.381
100.345
100.307
100.268
100.241
100.219
100.198
100.176
100.148
100.119
100.097
100.083
100.064
100.002
100.015
100.066
100.156
100.234
100.29
100.328
100.349
100.339
100.317
100.283
100.246
100.214
100.184
100.159
100.138
100.11
100.092
100.087
100.069
100
100
100.003
100.025
100.078
100.148
100.208
100.25
100.279
100.291
100.282
100.259
100.229
100.196
100.166
100.148
100.127
100.104
100.084
100.056
100
100
100
100.001
100.006
100.03
100.081
100.139
100.187
100.217
100.241
100.244
100.236
100.217
100.186
100.156
100.131
100.104
100.079
100.048
100
100
100
100
100
100.001
100.007
100.033
100.078
100.128
100.168
100.192
100.211
100.21
100.202
100.183
100.156
100.127
100.101
100.069
100
100
100
100
100
100
100
100.002
100.008
100.032
100.073
100.119
100.153
100.173
100.186
100.185
100.178
100.161
100.137
100.098
100
100
100
100
100
100
100
100
100
100.002
100.008
100.028
100.065
100.108
100.141
100.158
100.168
100.167
100.162
100.139
100
100
100
100
100
100
100
100
100
100
100
100.001
100.007
100.024
100.057
100.096
100.129
100.146
100.153
100.15
100
100
100
100
100
100
100
100
100
100
100
100
100
100.001
100.006
100.02
100.047
100.085
100.114
100.138
100
100
100
100
100
100
100
100
100
100
100
100
100
100
100
100.001
100.004
100.016
100.041
100.105
100.599
100.654
100.609
100.415
100.142
100.017
100.001
100
100
100
100
100
100
100
100
100.672
100.664
100.518
100.218
100.022
100
100
100
100
100
100
100
100
100
100
100.705
100.636
100.373
100.073
100.002
100
100
100
100
100
100
100
100
100
100
100.719
100.519
100.167
100.009
100
100
100
100
100
100
100
100
100
100
100
100.652
100.286
100.025
100
100
100
100
100
100
100
100
100
100
100
100
100.393
100.038
100
100
100
100
100
100
100
100
100
100
100
100
100
100.042
100
100
100
100
100
100
100
100
100
100
100
100
100
100
99.9995
100
100
100
100
100
100
100
100
100
100
100
100
100
100
100
100
100
100
100
100
100
100
100
100
100
100
100
100
100
100
100
100
100
100
100
100
100
100
100
100
100
100
100
100
100
100
100
100
100
100
100
100
100
100
100
100
100
100
100
100
100
100
100
100
100
100
100
100
100
100
100
100
100
100
100
100
100
100
100
100
100
100
100
100
100
100
100
100
100
100
100
100
100
100
100
100
100
100
100
100
100
100
100
100
100
100
100
100
100
100
100
100
100
100
100
100
100
100
100
100
100
100
100
100
100
100
100
100
100
100
100
100
100
100
100
100
100
100
100
100
100
100
100
100
100
100
100
100
100
100
100
100
100
100
100
100
100
100
100
100
100
100
100
100
100
100
100
100
100
100
100
100
100
100
100
100
100
100
100
100
100
100
100
100
100
100
100
100
100
100
100
100
100
100
100
100
100
100
100
100
100
100
100
100
100
100
100
100
100
100
100
100
100
100
100
100
100
100
100
100
100
100
100
100
100
100
100
100
100
100
100
100
100
100
100
100
100
100
100
100
100
100
100
100
100
100
100
100
100
100
100
100
100
100
100
100
100
100
100
100
100
100
100
100
100
100
100
100
100
100
100
100
100
100
100
100
100
100
100
100
100
100
100
100
100
100
100
100
100
100
100
100
100
100
100
100
100
100
100
100
100
100
100
100
100
100
100
100
100
100
100
100
100
100
100
100
100
100
100
100
100
100
100
100
100
100
100
100
100
100
100
100
100
100
100
100
100
100
100
100
100
100
100
100
100
100
100
100
100
100
100
100
100
100
100
100
100
100
100
100
100
100
100
100
100
100
100
100
100
100
100
100
100
100
100
100
100
100
100
100
100
100
100
100
100
100
100
100
100
100
100
100
100
100
100
100
100
100
100
100
100
100
100
100
100
100
100
100
100
100
100
100
100
100
100
100
100
100
100
100
100
100
100
100
100
100
100
100
100
100
100
100
100
100
100
100
100
100
100
100
100
100
100
100
100
100
100
100
100
100
100
100
100
100
100
100
100
100
100
100
100
100
100
100
100
100
100
100
100
100
100
100
100
100
100
100
100
100
100
100
100
100
100
100
100
100
100
100
100
100
100
100
100
100
100
100
100
100
100
100
100
100
100
100
100
100
100
100
100
100
100
100
100
100
100
100
100
100
100
100
100
100
100
100
100
100
100
100
100
100
100
100
100
100
100
100
100
100
100
100
100
100
100
100
100
100
100
100
100
100
100
100
100
100
100
100
100
100
100
100
100
100
100
100
100
100
100
100
100
100
100
100
100
100
100
100
100
100
100
100
100
100
100
100
100
100
100
100
100
100
100
100
100
100
100
100
100
100
100
100
100
100
100
100
100
100
100
100
100
100
100
100
100
100
100
100
100
100
100
100
100
100
100
100
100
100
100
100
100
100
100
100
100
100
100
100
100
100
100
100
100
100
100
100
100
100
100
100
100
100
100
100
100
100
100
100
100
100
100
100
100
100
100
100
100
100
100
100
100
100
100
100
100
100
100
100
100
100
100
100
100
100
100
100
100
100
100
100
100
100
100
100
100
100
100
100
100
100
100
100
100
100
100
100
100
100
100
100
100
100
100
100
100
100
100
100
100
100
100
100
100
100
100
100
100
100
100
100
100
100
100
100
100
100
100
100
100
100
100
100
100
100
100
100
100
100
100
100
100
100
100
100
100
100
100
100
100
100
100
100
100
100
100
100
100
100
100
100
100
100
100
100
100
100
100
100
100
100
100
100
100
100
100
100
100
100
100
100
100
100
100
100
100
100
100
100
100
100
100
100
100
100
100
100
100
100
100
100
100
100
100
100
100
100
100
100
100
100
100
100
100
100
100
100
100
100
100
100
100
100
100
100
100
100
100
100
100
100
100
100
100
100
100
100
100
100
100
100
100
100
100
100
100
100
100
100
100
100
100
100
100
100
100
100
100
100
100
100
100
100
100
100
100
100
99.9995
100
100
100
100
100
100
100
100
100
100
100
100
100
100
100.042
100
100
100
100
100
100
100
100
100
100
100
100
100
100
100.393
100.038
100
100
100
100
100
100
100
100
100
100
100
100
100
100.652
100.286
100.025
100
100
100
100
100
100
100
100
100
100
100
100
100.718
100.519
100.168
100.009
100
100
100
100
100
100
100
100
100
100
100
100.704
100.636
100.373
100.073
100.002
100
100
100
100
100
100
100
100
100
100
100.672
100.663
100.518
100.217
100.022
100
100
100
100
100
100
100
100
100
100
100.599
100.653
100.609
100.416
100.142
100.017
100.001
100
100
100
100
100
100
100
100
100.526
100.62
100.609
100.488
100.25
100.043
100.002
100
100
100
100
100
100
100
100
100.451
100.539
100.588
100.547
100.377
100.145
100.015
100
100
100
100
100
100
100
100
100.412
100.47
100.539
100.541
100.446
100.254
100.066
100.003
100
100
100
100
100
100
100
100.38
100.434
100.472
100.515
100.483
100.337
100.156
100.025
100.001
100
100
100
100
100
100
100.335
100.405
100.43
100.467
100.473
100.388
100.234
100.078
100.006
100
100
100
100
100
100
100.292
100.359
100.393
100.425
100.447
100.415
100.29
100.148
100.03
100.001
100
100
100
100
100
100.282
100.315
100.339
100.383
100.413
100.406
100.329
100.208
100.081
100.007
100
100
100
100
100
100.282
100.295
100.298
100.334
100.367
100.381
100.349
100.25
100.139
100.033
100.002
100
100
100
100
100.27
100.276
100.289
100.313
100.326
100.344
100.339
100.28
100.187
100.078
100.008
100
100
100
100
100.251
100.257
100.278
100.292
100.289
100.307
100.316
100.291
100.217
100.128
100.032
100.002
100
100
100
100.229
100.245
100.268
100.268
100.256
100.269
100.282
100.282
100.241
100.168
100.073
100.008
100
100
100
100.208
100.229
100.251
100.241
100.23
100.242
100.246
100.259
100.244
100.192
100.118
100.028
100.001
100
100
100.186
100.206
100.227
100.214
100.207
100.218
100.214
100.228
100.236
100.211
100.153
100.065
100.007
100
100
100.169
100.184
100.198
100.189
100.192
100.196
100.184
100.196
100.216
100.21
100.173
100.108
100.024
100.001
100
100.173
100.16
100.171
100.17
100.18
100.174
100.16
100.167
100.186
100.202
100.186
100.141
100.057
100.006
100
100.224
100.151
100.146
100.151
100.16
100.147
100.137
100.148
100.157
100.183
100.185
100.158
100.096
100.02
100.001
100.311
100.167
100.14
100.135
100.14
100.119
100.109
100.127
100.131
100.156
100.178
100.168
100.129
100.047
100.004
100.363
100.222
100.133
100.118
100.117
100.098
100.094
100.104
100.103
100.127
100.161
100.167
100.146
100.085
100.016
100.375
100.278
100.147
100.1
100.092
100.082
100.088
100.084
100.079
100.101
100.138
100.162
100.153
100.114
100.041
100.38
100.321
100.22
100.106
100.073
100.062
100.068
100.055
100.048
100.069
100.098
100.139
100.15
100.138
100.105
100.428
100.404
100.374
100.328
100.292
100.274
100.269
100.266
100.251
100.227
100.207
100.182
100.176
100.181
100.265
100.365
100.387
100.409
100.418
100.414
100.364
100.347
100.319
100.274
100.255
100.255
100.256
100.255
100.241
100.217
100.19
100.174
100.191
100.285
100.373
100.42
100.416
100.421
100.43
100.431
100.305
100.293
100.266
100.231
100.221
100.224
100.233
100.235
100.226
100.199
100.178
100.207
100.311
100.399
100.438
100.444
100.44
100.437
100.443
100.446
100.245
100.24
100.211
100.186
100.191
100.198
100.204
100.206
100.198
100.185
100.234
100.342
100.421
100.461
100.462
100.46
100.458
100.456
100.459
100.465
100.184
100.183
100.174
100.161
100.158
100.161
100.17
100.17
100.208
100.284
100.374
100.437
100.472
100.483
100.483
100.481
100.481
100.484
100.489
100.498
100.128
100.134
100.132
100.13
100.134
100.133
100.16
100.256
100.377
100.435
100.466
100.492
100.509
100.518
100.519
100.519
100.523
100.531
100.54
100.554
100.083
100.091
100.087
100.087
100.102
100.19
100.355
100.46
100.498
100.525
100.55
100.563
100.574
100.588
100.594
100.596
100.601
100.609
100.62
100.635
100.029
100.058
100.197
100.274
100.398
100.492
100.567
100.634
100.655
100.662
100.67
100.676
100.686
100.698
100.704
100.702
100.703
100.706
100.713
100.721
100.595
100.631
100.718
100.734
100.755
100.773
100.793
100.81
100.813
100.81
100.804
100.799
100.799
100.798
100.797
100.794
100.789
100.785
100.783
100.78
101.051
101.016
101.003
100.993
100.964
100.941
100.912
100.897
100.888
100.879
100.871
100.862
100.851
100.841
100.836
100.832
100.825
100.818
100.81
100.801
)
;

boundaryField
{
    inlet
    {
        type            fixedValue;
        value           uniform 100;
    }
    outlet
    {
        type            inletOutlet;
        inletValue      uniform 100;
        value           nonuniform List<scalar> 
50
(
100.378
100.32
100.221
100.106
100.073
100.064
100.069
100.056
100.048
100.069
100.098
100.139
100.15
100.138
100.105
100.8
100.779
100.717
100.63
100.549
100.495
100.464
100.446
100.431
100.413
100.414
100.431
100.446
100.465
100.498
100.554
100.635
100.721
100.78
100.801
100.38
100.321
100.22
100.106
100.073
100.062
100.068
100.055
100.048
100.069
100.098
100.139
100.15
100.138
100.105
)
;
    }
    airfoil
    {
        type            zeroGradient;
    }
    top
    {
        type            symmetryPlane;
    }
    bottom
    {
        type            symmetryPlane;
    }
    defaultFaces
    {
        type            empty;
    }
}


// ************************************************************************* //
